INSANE! Membrane UpperLeaflet>loPI=1.0 LowerLeaflet>PSPI:POPI:POPS:YOPS:POPE:YOPE:POPC:YOPC:ERGO=6.0:14.0:21.0:9.0:9.0:21.0:12.0:48.0:60.0
49877
    1loPI    C1    1  18.539  13.296  10.434  0.1367 -0.1777  0.1661
    1loPI    C2    2  18.707  13.652  10.367  0.0504 -0.1405  0.1465
    1loPI    C3    3  18.507  13.586  10.707  0.1522 -0.2027  0.1945
    1loPI   PO4    4  18.612  13.195  10.212  0.1823  0.1258  0.3157
    1loPI   GL1    5  18.728  13.252   9.815 -0.1748 -0.1590 -0.4503
    1loPI   GL2    6  18.585  13.654   9.862  0.1445 -0.1443  0.0090
    1loPI   C1A    7  18.746  13.277   9.372  0.1872  0.0913  0.0137
    1loPI   C2A    8  18.723  13.314   8.974  0.2009 -0.2845  0.2107
    1loPI   C3A    9  18.850  13.263   8.526  0.2821 -0.2792  0.0739
    1loPI   C4A   10  18.761  13.199   8.120  0.3195 -0.0304 -0.1311
    1loPI   C5A   11  18.971  12.895   7.827  0.0650 -0.1850  0.1119
    1loPI   C6A   12  18.815  12.633   7.494  0.0839  0.1625  0.1179
    1loPI   C1B   13  18.851  13.735   9.490  0.3583  0.2687 -0.0252
    1loPI   C2B   14  18.852  13.771   9.081 -0.3370 -0.1585 -0.0479
    1loPI   C3B   15  18.893  13.755   8.683 -0.0855  0.1185  0.0160
    1loPI   C4B   16  18.972  13.688   8.212  0.2722 -0.2129 -0.1603
    2loPI    C1   17  14.337  11.152  10.754  0.0278 -0.4927 -0.1369
    2loPI    C2   18  14.286  11.121  11.149  0.0342 -0.1289 -0.1047
    2loPI    C3   19  14.622  10.987  10.980  0.1284 -0.0824  0.0443
    2loPI   PO4   20  14.146  11.050  10.619  0.1247 -0.0551  0.0789
    2loPI   GL1   21  14.250  11.131  10.222  0.2649 -0.1635  0.0976
    2loPI   GL2   22  14.081  10.962  10.142 -0.1769 -0.1222  0.2827
    2loPI   C1A   23  14.529  11.291   9.955 -0.0122 -0.1839 -0.0847
    2loPI   C2A   24  14.472  11.408   9.573 -0.0956  0.1324  0.0665
    2loPI   C3A   25  14.545  11.472   9.145 -0.1274 -0.0074 -0.3974
    2loPI   C4A   26  14.527  11.509   8.767 -0.1233 -0.0186 -0.0335
    2loPI   C5A   27  14.603  11.483   8.280  0.1506  0.2113 -0.1653
    2loPI   C6A   28  14.531  11.277   7.878  0.1450  0.2576  0.1582
    2loPI   C1B   29  14.174  10.836   9.779 -0.2017 -0.0008  0.1365
    2loPI   C2B   30  14.249  10.920   9.408 -0.1515 -0.1406 -0.2439
    2loPI   C3B   31  14.333  10.996   8.978 -0.0685  0.1581  0.0262
    2loPI   C4B   32  14.445  10.953   8.537  0.0618  0.1314 -0.1204
    3loPI    C1   33  10.763  12.138  10.989 -0.0583  0.1187 -0.1017
    3loPI    C2   34  10.691  12.360  11.314  0.2027  0.0097  0.0328
    3loPI    C3   35  11.057  12.211  11.250  0.0418 -0.3503 -0.0749
    3loPI   PO4   36  10.682  12.380  10.769  0.0728 -0.0819 -0.0623
    3loPI   GL1   37  10.710  12.469  10.334  0.0838  0.1676  0.0245
    3loPI   GL2   38  10.451  12.512  10.188  0.2790 -0.2687 -0.1971
    3loPI   C1A   39  11.073  12.554  10.022  0.1878 -0.1021  0.2282
    3loPI   C2A   40  11.156  12.532   9.644 -0.1355  0.1431  0.3800
    3loPI   C3A   41  11.190  12.539   9.226  0.1881  0.1557  0.2266
    3loPI   C4A   42  11.149  12.560   8.756  0.0586 -0.1282 -0.1560
    3loPI   C5A   43  11.118  12.577   8.309  0.2351 -0.0200 -0.0887
    3loPI   C6A   44  11.169  12.304   7.876 -0.2008 -0.0997 -0.1983
    3loPI   C1B   45  10.487  12.440   9.768  0.0402 -0.1918 -0.0254
    3loPI   C2B   46  10.586  12.582   9.516 -0.1150 -0.0601 -0.0929
    3loPI   C3B   47  10.648  12.515   9.152  0.0498  0.3022  0.3107
    3loPI   C4B   48  10.596  12.472   8.677  0.0518 -0.3482 -0.1934
    4loPI    C1   49   3.119   8.318  10.818 -0.0731  0.2250 -0.1757
    4loPI    C2   50   2.771   8.155  10.929  0.0097  0.1211 -0.0652
    4loPI    C3   51   2.813   8.553  10.924 -0.0826  0.1320  0.0067
    4loPI   PO4   52   3.157   8.212  10.548  0.2493  0.0995 -0.1617
    4loPI   GL1   53   3.301   8.088  10.226 -0.2995 -0.0941 -0.0461
    4loPI   GL2   54   3.057   7.983  10.056 -0.1987  0.1809  0.1380
    4loPI   C1A   55   3.457   8.254   9.834 -0.3483  0.0636  0.4013
    4loPI   C2A   56   3.596   8.494   9.630  0.1543 -0.0887 -0.3472
    4loPI   C3A   57   3.666   8.581   9.236  0.1238 -0.0444  0.0891
    4loPI   C4A   58   3.579   8.621   8.773 -0.1168  0.0477  0.1246
    4loPI   C5A   59   3.622   8.602   8.405 -0.1775  0.2044  0.2557
    4loPI   C6A   60   3.447   8.760   8.055 -0.0876  0.2660  0.0242
    4loPI   C1B   61   2.853   7.969   9.673  0.2404 -0.2575  0.1684
    4loPI   C2B   62   2.845   8.140   9.183  0.3157  0.1211 -0.1530
    4loPI   C3B   63   2.857   8.128   8.714  0.2782 -0.0037  0.1158
    4loPI   C4B   64   2.998   8.021   8.347  0.2103  0.1077 -0.0443
    5loPI    C1   65   6.759   8.088  10.606  0.2641  0.3482 -0.0810
    5loPI    C2   66   6.492   8.218  10.874 -0.0949 -0.0677 -0.2237
    5loPI    C3   67   6.781   7.965  10.986 -0.0026  0.0673 -0.1528
    5loPI   PO4   68   6.598   8.080  10.388  0.0570 -0.0091  0.0250
    5loPI   GL1   69   6.423   8.312  10.014 -0.2672  0.3854  0.1239
    5loPI   GL2   70   6.134   8.075  10.062 -0.0456  0.0156 -0.0120
    5loPI   C1A   71   6.098   8.416   9.733 -0.0830  0.1252 -0.0319
    5loPI   C2A   72   5.950   8.498   9.283  0.0020  0.0775 -0.0310
    5loPI   C3A   73   6.047   8.634   8.896 -0.2128  0.0515  0.2089
    5loPI   C4A   74   6.132   8.906   8.483 -0.0692  0.1490  0.1561
    5loPI   C5A   75   5.896   8.895   8.137  0.3103 -0.0299 -0.2544
    5loPI   C6A   76   6.065   8.950   7.814 -0.1624  0.1513  0.3287
    5loPI   C1B   77   5.889   7.953   9.760 -0.0769  0.1386 -0.2958
    5loPI   C2B   78   5.967   8.001   9.336  0.1383  0.4496  0.3696
    5loPI   C3B   79   6.011   8.169   8.925 -0.0757 -0.1953  0.1692
    5loPI   C4B   80   5.900   8.347   8.490 -0.2277  0.1286 -0.3120
    6loPI    C1   81   2.840   3.886  10.286 -0.0246  0.1100  0.1227
    6loPI    C2   82   2.526   3.867  10.533  0.0858  0.1263  0.2650
    6loPI    C3   83   2.836   3.619  10.583  0.1143  0.1382  0.1507
    6loPI   PO4   84   2.777   3.876  10.120 -0.0680  0.1425 -0.1069
    6loPI   GL1   85   2.949   3.588   9.677  0.0399  0.2487  0.2589
    6loPI   GL2   86   3.181   3.241   9.780 -0.0078 -0.2182  0.1573
    6loPI   C1A   87   2.785   3.433   9.338  0.2669 -0.3364 -0.1068
    6loPI   C2A   88   2.788   3.471   8.945  0.2726  0.1268  0.2946
    6loPI   C3A   89   2.749   3.361   8.489  0.0868  0.0438  0.3029
    6loPI   C4A   90   2.908   3.410   8.156 -0.1477  0.0837  0.1760
    6loPI   C5A   91   3.159   3.238   7.836  0.0361  0.1031  0.0925
    6loPI   C6A   92   3.311   3.346   7.432 -0.0637  0.0511  0.1268
    6loPI   C1B   93   3.320   3.358   9.382 -0.1833 -0.2529  0.1093
    6loPI   C2B   94   3.310   3.586   9.037 -0.2410 -0.1158  0.1320
    6loPI   C3B   95   3.557   3.615   8.601 -0.4759 -0.0783  0.2902
    6loPI   C4B   96   3.347   3.636   8.140 -0.1546  0.2118  0.1049
    7loPI    C1   97   4.177  15.655  10.613  0.2048  0.0268 -0.1844
    7loPI    C2   98   4.566  15.745  10.588  0.1977  0.0421 -0.2391
    7loPI    C3   99   4.294  16.038  10.606  0.1920  0.0315 -0.1503
    7loPI   PO4  100   4.181  15.411  10.470  0.2055 -0.1987  0.0045
    7loPI   GL1  101   4.023  15.219  10.114  0.0659  0.0097 -0.1450
    7loPI   GL2  102   3.783  15.306   9.988 -0.0701  0.1071  0.1529
    7loPI   C1A  103   4.326  15.060   9.891 -0.1728  0.0511 -0.2538
    7loPI   C2A  104   4.433  15.115   9.435 -0.1235  0.0351  0.2803
    7loPI   C3A  105   4.400  15.070   8.925  0.1200 -0.3766 -0.0088
    7loPI   C4A  106   4.443  14.932   8.478  0.1861 -0.0284  0.3679
    7loPI   C5A  107   4.391  14.882   8.035 -0.0279  0.0974 -0.0984
    7loPI   C6A  108   4.412  14.643   7.744  0.0479  0.1856 -0.0616
    7loPI   C1B  109   3.882  15.091   9.590 -0.2990 -0.0275  0.1468
    7loPI   C2B  110   3.900  14.967   9.154  0.0603 -0.1128 -0.0924
    7loPI   C3B  111   3.912  15.022   8.682  0.0322  0.0909 -0.0730
    7loPI   C4B  112   3.927  15.048   8.285 -0.3922 -0.1094  0.1561
    8loPI    C1  113  13.267  10.831  10.355  0.1388  0.1274  0.1394
    8loPI    C2  114  13.637  10.981  10.336  0.2260 -0.0683  0.2597
    8loPI    C3  115  13.395  11.083  10.638  0.0427  0.3622 -0.0229
    8loPI   PO4  116  13.309  10.605  10.252  0.0881  0.2631  0.1932
    8loPI   GL1  117  13.136  10.510   9.836  0.1614 -0.0253 -0.1116
    8loPI   GL2  118  13.432  10.452   9.766 -0.3006 -0.4646  0.5042
    8loPI   C1A  119  12.880  10.355   9.646  0.0541  0.1399 -0.1638
    8loPI   C2A  120  12.630  10.295   9.337 -0.2459  0.1296 -0.1721
    8loPI   C3A  121  12.531  10.387   8.906  0.0722 -0.0609 -0.0663
    8loPI   C4A  122  12.563  10.433   8.544  0.0621 -0.0180 -0.2442
    8loPI   C5A  123  12.650  10.220   8.106  0.1456 -0.1504  0.1021
    8loPI   C6A  124  12.903  10.367   7.849  0.0702  0.0774 -0.1882
    8loPI   C1B  125  13.551  10.421   9.359 -0.3349 -0.0353  0.2157
    8loPI   C2B  126  13.569  10.443   8.932 -0.1659 -0.0682  0.0347
    8loPI   C3B  127  13.672  10.412   8.516 -0.0007  0.0855 -0.0632
    8loPI   C4B  128  13.590  10.451   8.034 -0.1449  0.2140 -0.0729
    9loPI    C1  129  10.882  11.487  10.725  0.0531 -0.0107  0.2649
    9loPI    C2  130  10.874  11.138  10.919  0.3173  0.0276  0.3485
    9loPI    C3  131  10.846  11.480  11.123  0.0588  0.0573  0.2667
    9loPI   PO4  132  11.080  11.425  10.557 -0.0387  0.1073  0.0428
    9loPI   GL1  133  11.091  11.525  10.213 -0.0092  0.0939  0.0044
    9loPI   GL2  134  10.898  11.291  10.036 -0.0219 -0.1395 -0.0247
    9loPI   C1A  135  11.173  11.601   9.803 -0.3497 -0.2541  0.1196
    9loPI   C2A  136  11.260  11.677   9.457  0.1109  0.0598  0.0689
    9loPI   C3A  137  11.254  11.630   9.002 -0.0207 -0.3230 -0.3360
    9loPI   C4A  138  11.274  11.717   8.668 -0.2040 -0.0184  0.0212
    9loPI   C5A  139  11.306  11.682   8.265  0.0372  0.0103  0.2113
    9loPI   C6A  140  11.560  11.726   7.851  0.1195  0.0691  0.0120
    9loPI   C1B  141  10.916  11.200   9.560  0.1816  0.0709  0.1672
    9loPI   C2B  142  10.971  11.158   9.169 -0.1326 -0.2198  0.0894
    9loPI   C3B  143  11.022  11.207   8.828  0.3686  0.1573 -0.0874
    9loPI   C4B  144  11.013  11.280   8.470 -0.0615 -0.1422 -0.1123
   10loPI    C1  145  15.958  14.331  10.924 -0.0843  0.0314 -0.0498
   10loPI    C2  146  15.869  14.012  11.148  0.1289  0.1468  0.2056
   10loPI    C3  147  15.735  14.374  11.253  0.0117  0.1656 -0.0014
   10loPI   PO4  148  15.890  14.189  10.660  0.1390  0.0437  0.0192
   10loPI   GL1  149  15.967  13.900  10.378  0.2094 -0.1108  0.1964
   10loPI   GL2  150  16.203  13.980  10.237 -0.1045 -0.0176  0.0010
   10loPI   C1A  151  15.664  13.900  10.063  0.1878 -0.0244  0.3512
   10loPI   C2A  152  15.638  13.697   9.616  0.4317  0.3453 -0.0678
   10loPI   C3A  153  15.741  13.908   9.228 -0.2349  0.0015 -0.0691
   10loPI   C4A  154  15.788  13.760   8.828  0.0645  0.0994 -0.1656
   10loPI   C5A  155  15.582  13.490   8.452 -0.1378 -0.3280 -0.4646
   10loPI   C6A  156  15.447  13.264   8.159  0.2767 -0.0456  0.2096
   10loPI   C1B  157  16.097  13.713   9.825 -0.0799  0.1416  0.0299
   10loPI   C2B  158  16.092  13.616   9.442 -0.0609 -0.0134 -0.1468
   10loPI   C3B  159  15.989  13.373   9.128  0.1855  0.0827  0.2502
   10loPI   C4B  160  15.974  13.312   8.701  0.1149 -0.5835  0.2070
   11loPI    C1  161  17.780   0.374  10.316 -0.2081 -0.0060 -0.0406
   11loPI    C2  162  17.551   0.459  10.633  0.0057 -0.2713  0.1901
   11loPI    C3  163  17.790   0.138  10.639  0.2585 -0.0948 -0.1129
   11loPI   PO4  164  17.924   0.606  10.228 -0.0192  0.0304 -0.1182
   11loPI   GL1  165  17.884   0.702   9.869  0.0795 -0.0341 -0.0619
   11loPI   GL2  166  17.790   0.461   9.813  0.1503  0.0859  0.4507
   11loPI   C1A  167  18.108   0.743   9.534 -0.1217 -0.3210  0.2955
   11loPI   C2A  168  18.052   0.647   9.087  0.0115 -0.0580  0.4084
   11loPI   C3A  169  18.064   0.644   8.602  0.2350  0.2187  0.3171
   11loPI   C4A  170  18.160   0.684   8.180 -0.0971  0.1048 -0.1403
   11loPI   C5A  171  18.283   0.662   7.752  0.0435 -0.0137 -0.0164
   11loPI   C6A  172  18.537   0.835   7.413 -0.0502  0.1515  0.1419
   11loPI   C1B  173  17.851   0.316   9.459  0.1068 -0.2119 -0.1499
   11loPI   C2B  174  17.781   0.228   8.979  0.1639 -0.2289 -0.1869
   11loPI   C3B  175  17.757   0.203   8.526 -0.0628 -0.3211  0.0406
   11loPI   C4B  176  17.702   0.203   8.073 -0.0184  0.0108  0.3917
   12loPI    C1  177   4.369   8.566  10.469 -0.0974 -0.0078  0.2934
   12loPI    C2  178   4.428   8.601  10.863 -0.1892  0.0440  0.3028
   12loPI    C3  179   4.741   8.586  10.615 -0.1276 -0.1353  0.3901
   12loPI   PO4  180   4.067   8.683  10.454  0.1997 -0.0827 -0.2347
   12loPI   GL1  181   3.953   8.859  10.108 -0.1342  0.1109 -0.1707
   12loPI   GL2  182   4.265   9.032  10.103 -0.0512 -0.0224  0.0343
   12loPI   C1A  183   3.861   8.946   9.755  0.0940 -0.1753 -0.2212
   12loPI   C2A  184   3.847   9.122   9.355  0.0142  0.0428 -0.0940
   12loPI   C3A  185   3.768   9.129   8.934 -0.0836  0.0954 -0.1465
   12loPI   C4A  186   3.726   9.080   8.437 -0.0117  0.0684  0.4718
   12loPI   C5A  187   4.062   8.815   8.162 -0.1851  0.1087  0.0257
   12loPI   C6A  188   4.455   9.051   7.844 -0.0837 -0.0637 -0.1042
   12loPI   C1B  189   4.330   9.044   9.607  0.1922 -0.1000 -0.0565
   12loPI   C2B  190   4.257   9.299   9.157  0.4646  0.1186  0.0459
   12loPI   C3B  191   4.269   9.217   8.778 -0.1307  0.0843  0.0438
   12loPI   C4B  192   4.247   9.248   8.368 -0.4282  0.2968  0.0479
   13loPI    C1  193  13.670  12.451  10.646 -0.2302  0.1639 -0.1596
   13loPI    C2  194  13.530  12.356  11.008 -0.1821  0.0883 -0.1606
   13loPI    C3  195  13.880  12.546  10.973 -0.1581  0.0424 -0.1701
   13loPI   PO4  196  13.656  12.115  10.583 -0.0333  0.0214 -0.0181
   13loPI   GL1  197  13.514  11.827  10.294  0.0179  0.0395  0.3096
   13loPI   GL2  198  13.655  11.902  10.061  0.1721  0.0122  0.1057
   13loPI   C1A  199  13.277  11.880   9.782  0.2145 -0.0793  0.1080
   13loPI   C2A  200  13.201  11.748   9.420  0.0031  0.3225 -0.0264
   13loPI   C3A  201  13.149  11.785   8.927 -0.0116 -0.1690  0.0200
   13loPI   C4A  202  13.304  11.808   8.478  0.0825  0.0839 -0.0254
   13loPI   C5A  203  13.265  11.852   8.154  0.3885  0.1931  0.1827
   13loPI   C6A  204  13.486  11.724   7.841 -0.0149  0.5445 -0.0478
   13loPI   C1B  205  13.746  11.832   9.654  0.0485  0.1270 -0.1233
   13loPI   C2B  206  13.625  11.812   9.180 -0.0256  0.1012  0.1494
   13loPI   C3B  207  13.696  11.891   8.792  0.1989 -0.1844  0.1887
   13loPI   C4B  208  13.797  11.951   8.305 -0.0064  0.2369 -0.0973
   14loPI    C1  209  15.258  12.022  10.740 -0.0254  0.1016 -0.2089
   14loPI    C2  210  15.645  11.998  10.645  0.0474 -0.2952  0.1551
   14loPI    C3  211  15.536  12.136  11.004 -0.1500 -0.1935  0.0575
   14loPI   PO4  212  15.125  12.155  10.495 -0.0470  0.0436 -0.0580
   14loPI   GL1  213  14.978  12.480  10.207  0.1355 -0.0382  0.2246
   14loPI   GL2  214  15.161  12.319   9.996  0.1215  0.1072  0.0117
   14loPI   C1A  215  14.718  12.581   9.948  0.1648 -0.1826  0.0959
   14loPI   C2A  216  14.716  12.799   9.584  0.0649 -0.3177 -0.2729
   14loPI   C3A  217  14.724  12.739   9.238 -0.2077  0.2076  0.1226
   14loPI   C4A  218  14.729  12.833   8.724 -0.1607  0.1573  0.0309
   14loPI   C5A  219  14.850  12.900   8.265  0.0087  0.0460 -0.0808
   14loPI   C6A  220  14.921  13.078   7.895 -0.1956  0.2652 -0.6104
   14loPI   C1B  221  14.941  12.302   9.642 -0.0098 -0.1012  0.1703
   14loPI   C2B  222  14.981  12.351   9.193 -0.2069 -0.0097 -0.2499
   14loPI   C3B  223  14.977  12.392   8.719 -0.2639 -0.0132 -0.2812
   14loPI   C4B  224  15.070  12.487   8.401 -0.0673  0.2285  0.2278
   15loPI    C1  225   8.323   0.164  10.383 -0.0809  0.0891  0.0436
   15loPI    C2  226   8.630   0.294  10.605  0.0480  0.0679 -0.1209
   15loPI    C3  227   8.255   0.366  10.722  0.1150  0.1111  0.0712
   15loPI   PO4  228   8.335   0.168  10.103 -0.3011 -0.1581 -0.2301
   15loPI   GL1  229   8.391   0.486   9.754  0.0274 -0.0803  0.2531
   15loPI   GL2  230   8.610   0.490   9.471 -0.1892 -0.0780  0.0688
   15loPI   C1A  231   8.050   0.265   9.425  0.1187 -0.0926 -0.0384
   15loPI   C2A  232   8.161   0.214   9.065 -0.0263  0.1178  0.0631
   15loPI   C3A  233   8.310   0.063   8.753 -0.1447  0.0916 -0.0767
   15loPI   C4A  234   8.357   0.098   8.287 -0.1255  0.0961 -0.0609
   15loPI   C5A  235   8.154   0.407   7.840  0.2076  0.0078  0.0332
   15loPI   C6A  236   7.884   0.811   7.688  0.0979  0.0680 -0.1979
   15loPI   C1B  237   8.586   0.708   9.086 -0.0344 -0.0056  0.1291
   15loPI   C2B  238   8.516   0.633   8.667  0.0522  0.0113  0.0970
   15loPI   C3B  239   8.271   0.576   8.314 -0.0723  0.1449 -0.1769
   15loPI   C4B  240   7.939   0.731   8.209 -0.1408  0.1740 -0.1849
   16loPI    C1  241  11.142  13.822  11.066 -0.2193 -0.2603 -0.1268
   16loPI    C2  242  11.082  13.550  11.353 -0.2062 -0.1502 -0.0194
   16loPI    C3  243  11.012  13.937  11.426  0.0929 -0.0844 -0.0667
   16loPI   PO4  244  11.134  13.666  10.799 -0.2444  0.0869 -0.2828
   16loPI   GL1  245  11.130  13.249  10.479  0.3863  0.0385 -0.2172
   16loPI   GL2  246  11.223  13.480  10.356  0.1321 -0.0760 -0.1402
   16loPI   C1A  247  11.296  13.023  10.147 -0.0805  0.2029  0.3744
   16loPI   C2A  248  11.312  13.018   9.797 -0.0201 -0.2647  0.0233
   16loPI   C3A  249  11.340  12.962   9.379 -0.3131 -0.0901 -0.1477
   16loPI   C4A  250  11.315  12.992   8.889 -0.1478  0.0177  0.0886
   16loPI   C5A  251  11.235  13.110   8.418  0.1329 -0.4251 -0.1291
   16loPI   C6A  252  11.060  13.403   8.232  0.1286  0.2202  0.2855
   16loPI   C1B  253  11.170  13.561   9.912 -0.0571  0.1769 -0.1952
   16loPI   C2B  254  11.113  13.478   9.493 -0.0194  0.4840  0.1255
   16loPI   C3B  255  11.015  13.367   9.194  0.2069  0.0285  0.2526
   16loPI   C4B  256  11.008  13.447   8.755 -0.2402  0.2314 -0.0089
   17loPI    C1  257  11.538   9.157  10.322 -0.1074 -0.0690 -0.2767
   17loPI    C2  258  11.828   9.073  10.060  0.0402 -0.1385 -0.0939
   17loPI    C3  259  11.863   9.389  10.303 -0.0225 -0.1663 -0.0487
   17loPI   PO4  260  11.322   9.090  10.141  0.0484  0.1107  0.0699
   17loPI   GL1  261  11.178   9.052   9.806  0.2855  0.0752  0.0474
   17loPI   GL2  262  11.366   8.843   9.678  0.1122 -0.1842 -0.1636
   17loPI   C1A  263  11.030   9.344   9.441  0.3921 -0.1816  0.1873
   17loPI   C2A  264  11.048   9.327   8.999 -0.0652  0.1186 -0.0172
   17loPI   C3A  265  11.052   9.378   8.500  0.0118 -0.0173 -0.4941
   17loPI   C4A  266  10.973   9.392   8.157 -0.0857  0.4443 -0.0912
   17loPI   C5A  267  10.963   9.424   7.753  0.0168  0.2343  0.1021
   17loPI   C6A  268  11.113   9.200   7.408 -0.1149  0.2060  0.0378
   17loPI   C1B  269  11.383   8.853   9.231 -0.0557  0.0409  0.1461
   17loPI   C2B  270  11.355   9.000   8.798  0.2042  0.0750 -0.0360
   17loPI   C3B  271  11.270   8.872   8.305 -0.0167  0.0070  0.1230
   17loPI   C4B  272  11.253   8.955   7.898  0.3000 -0.2124  0.1252
   18loPI    C1  273   0.954   9.332  10.720  0.3347 -0.0823  0.2781
   18loPI    C2  274   0.819   9.535  11.038  0.2792 -0.1622  0.3058
   18loPI    C3  275   1.205   9.430  11.016  0.3223  0.0037  0.2604
   18loPI   PO4  276   0.871   9.450  10.534 -0.1852 -0.2555 -0.0454
   18loPI   GL1  277   0.895   9.355  10.169 -0.3424 -0.0221 -0.1700
   18loPI   GL2  278   1.241   9.269  10.238  0.2371 -0.1159  0.2051
   18loPI   C1A  279   0.926   9.317   9.752  0.1298 -0.2858 -0.0258
   18loPI   C2A  280   0.683   9.614   9.374 -0.2925  0.0508 -0.1151
   18loPI   C3A  281   0.633   9.595   9.014  0.0307 -0.0989 -0.3054
   18loPI   C4A  282   0.527   9.637   8.548 -0.0896  0.1245  0.2086
   18loPI   C5A  283   0.323   9.929   8.226 -0.1187 -0.0131  0.0199
   18loPI   C6A  284   0.569  10.200   7.852  0.0604  0.3168  0.3318
   18loPI   C1B  285   1.471   9.284   9.894  0.2688  0.2960 -0.0814
   18loPI   C2B  286   1.480   9.350   9.464  0.2077  0.2715 -0.0323
   18loPI   C3B  287   1.431   9.251   8.975 -0.0391  0.0319  0.1242
   18loPI   C4B  288   1.409   9.231   8.619 -0.1686  0.0535  0.2191
   19loPI    C1  289  13.106  13.941  10.704  0.3706  0.1859  0.1626
   19loPI    C2  290  13.026  14.143  11.040 -0.0821  0.0051  0.1703
   19loPI    C3  291  13.004  13.743  11.036  0.0053  0.0009 -0.0527
   19loPI   PO4  292  13.211  14.165  10.507 -0.2050  0.1093  0.2418
   19loPI   GL1  293  13.182  14.427  10.099 -0.0556  0.2063  0.1816
   19loPI   GL2  294  13.101  14.149   9.936  0.0093  0.1928  0.0097
   19loPI   C1A  295  13.565  14.402   9.838  0.0000 -0.0860  0.1233
   19loPI   C2A  296  13.848  14.260   9.527 -0.0560  0.0160 -0.4518
   19loPI   C3A  297  13.850  14.073   9.136  0.0373 -0.1389 -0.2017
   19loPI   C4A  298  13.856  14.109   8.635 -0.0576  0.0440 -0.0480
   19loPI   C5A  299  13.905  14.041   8.230  0.0001 -0.0618  0.3346
   19loPI   C6A  300  13.785  14.187   7.870  0.2134  0.0072 -0.0896
   19loPI   C1B  301  12.828  13.980   9.572  0.2547 -0.2508 -0.0950
   19loPI   C2B  302  12.821  13.997   9.179  0.0822  0.1320  0.2307
   19loPI   C3B  303  12.826  13.972   8.700  0.3650 -0.0701  0.2701
   19loPI   C4B  304  12.809  14.080   8.247 -0.1893 -0.1342 -0.0781
   20loPI    C1  305  15.274  16.678  10.937 -0.0675 -0.0165 -0.1484
   20loPI    C2  306  15.066  16.894  11.202 -0.0508 -0.1161 -0.0534
   20loPI    C3  307  15.420  16.738  11.304 -0.1142 -0.2832 -0.0839
   20loPI   PO4  308  15.245  16.897  10.733  0.1095 -0.1595  0.1650
   20loPI   GL1  309  15.378  16.745  10.378 -0.1634  0.1151 -0.2287
   20loPI   GL2  310  15.715  16.831  10.271  0.1192 -0.3429  0.2523
   20loPI   C1A  311  15.283  16.889   9.907  0.3525 -0.2714  0.0220
   20loPI   C2A  312  15.271  16.791   9.512 -0.2122 -0.0387  0.0507
   20loPI   C3A  313  15.348  16.714   9.046 -0.1758 -0.0233 -0.0220
   20loPI   C4A  314  15.317  16.771   8.489  0.3651  0.1088  0.1861
   20loPI   C5A  315  15.302  16.494   8.126  0.5386 -0.1496 -0.1855
   20loPI   C6A  316  15.561  16.099   7.841  0.0211 -0.1005  0.1133
   20loPI   C1B  317  15.782  16.827   9.884 -0.1424 -0.0173 -0.1316
   20loPI   C2B  318  15.807  16.666   9.343 -0.0497  0.2763  0.0461
   20loPI   C3B  319  15.825  16.593   8.918 -0.1555 -0.0737 -0.1172
   20loPI   C4B  320  15.807  16.636   8.480 -0.2533 -0.1129  0.1484
   21loPI    C1  321   0.755   9.984  10.789 -0.2428  0.0975 -0.1161
   21loPI    C2  322   0.620   9.872  10.429 -0.0616  0.0789 -0.1794
   21loPI    C3  323   0.448  10.178  10.621 -0.2212  0.0272 -0.2385
   21loPI   PO4  324   1.023   9.975  10.703 -0.1053 -0.1077 -0.2094
   21loPI   GL1  325   1.101   9.847  10.312  0.1596 -0.3353 -0.0497
   21loPI   GL2  326   1.177   9.781  10.080  0.2368 -0.0495  0.1801
   21loPI   C1A  327   0.779  10.021   9.922  0.1916 -0.1063 -0.3517
   21loPI   C2A  328   0.843  10.120   9.525 -0.1957  0.3340  0.1200
   21loPI   C3A  329   0.816  10.040   9.140 -0.1989  0.0095 -0.0694
   21loPI   C4A  330   0.894  10.128   8.701 -0.1766 -0.1570 -0.1418
   21loPI   C5A  331   1.024  10.244   8.296  0.2093 -0.0259  0.2667
   21loPI   C6A  332   1.371  10.252   8.012 -0.0526 -0.1337 -0.1699
   21loPI   C1B  333   1.210   9.734   9.624  0.0875  0.1337  0.2357
   21loPI   C2B  334   1.162   9.647   9.189 -0.0028 -0.2060  0.1498
   21loPI   C3B  335   1.077   9.628   8.766 -0.2119 -0.4013 -0.0071
   21loPI   C4B  336   1.235   9.713   8.290  0.0414 -0.2558  0.0715
   22loPI    C1  337  10.770   9.204  10.283 -0.1905  0.0931  0.1190
   22loPI    C2  338  10.979   8.935  10.494 -0.1325  0.1419  0.1240
   22loPI    C3  339  10.644   9.094  10.646 -0.1587  0.0836  0.1272
   22loPI   PO4  340  10.712   9.150  10.047 -0.1821  0.0793 -0.0795
   22loPI   GL1  341  10.619   9.377   9.710  0.3243  0.3138 -0.0742
   22loPI   GL2  342  10.250   9.230   9.703 -0.1191  0.0792 -0.2387
   22loPI   C1A  343  10.588   9.350   9.212 -0.1001 -0.1211  0.1909
   22loPI   C2A  344  10.541   9.327   8.757 -0.0140 -0.1591 -0.0118
   22loPI   C3A  345  10.444   9.384   8.359  0.0483  0.6189 -0.0031
   22loPI   C4A  346  10.373   9.347   7.888 -0.2429 -0.1973 -0.3994
   22loPI   C5A  347  10.221   9.054   7.576 -0.2235  0.0625  0.1150
   22loPI   C6A  348  10.022   8.807   7.396  0.0972 -0.0291 -0.0868
   22loPI   C1B  349  10.120   9.344   9.384  0.0987 -0.3102  0.1451
   22loPI   C2B  350  10.058   9.347   8.966 -0.3569  0.2080 -0.0217
   22loPI   C3B  351  10.000   9.305   8.557  0.0761 -0.0073 -0.1827
   22loPI   C4B  352   9.903   9.343   8.070 -0.2095 -0.2416 -0.1361
   23loPI    C1  353   9.223   1.925   9.939 -0.0390 -0.0921  0.0596
   23loPI    C2  354   9.018   1.770  10.245 -0.0299 -0.2368 -0.0067
   23loPI    C3  355   8.857   2.063  10.025 -0.0073 -0.0819  0.1801
   23loPI   PO4  356   9.445   1.660   9.887 -0.0865 -0.1777 -0.0982
   23loPI   GL1  357   9.215   1.443   9.570 -0.1376  0.3085  0.0833
   23loPI   GL2  358   9.432   1.322   9.433  0.1462  0.1238 -0.1045
   23loPI   C1A  359   9.170   1.558   9.065 -0.3512  0.2217  0.0503
   23loPI   C2A  360   9.306   1.384   8.587  0.1031  0.0645 -0.1192
   23loPI   C3A  361   9.219   1.131   8.192 -0.0758 -0.2912 -0.2859
   23loPI   C4A  362   9.292   1.084   7.753  0.1549 -0.0225  0.0806
   23loPI   C5A  363   9.366   1.305   7.373  0.0876  0.3112 -0.1276
   23loPI   C6A  364   9.392   1.381   7.043  0.0852 -0.2467  0.0414
   23loPI   C1B  365   9.622   1.764   9.232 -0.2629 -0.1874 -0.0650
   23loPI   C2B  366   9.995   1.890   8.931  0.1227 -0.0996  0.3716
   23loPI   C3B  367  10.200   1.870   8.487  0.0525  0.0318 -0.1369
   23loPI   C4B  368   9.974   1.881   8.068 -0.3467  0.1955 -0.3070
   24loPI    C1  369   5.286  17.650  10.325 -0.0616  0.0351 -0.0935
   24loPI    C2  370   5.556  17.606  10.617  0.1207  0.0094 -0.2636
   24loPI    C3  371   5.567  17.929  10.382 -0.1287  0.1122 -0.1375
   24loPI   PO4  372   5.277  17.483  10.204 -0.1642 -0.2602 -0.0676
   24loPI   GL1  373   5.222  17.426   9.731 -0.0581  0.2749 -0.2717
   24loPI   GL2  374   5.024  17.151   9.885  0.0117 -0.2221  0.0828
   24loPI   C1A  375   5.028  17.232   9.404  0.3689 -0.1825 -0.1167
   24loPI   C2A  376   5.098  17.185   8.990  0.2179 -0.2578  0.0026
   24loPI   C3A  377   5.268  17.182   8.578 -0.2346 -0.2406  0.0724
   24loPI   C4A  378   5.317  17.093   8.117 -0.0307 -0.3544  0.0173
   24loPI   C5A  379   5.221  16.781   7.821  0.2600 -0.1104 -0.1694
   24loPI   C6A  380   5.287  16.456   7.448  0.1366 -0.1849  0.4002
   24loPI   C1B  381   4.921  16.803   9.661 -0.0521 -0.1891 -0.3241
   24loPI   C2B  382   4.838  16.810   9.201 -0.0082  0.1322  0.1549
   24loPI   C3B  383   4.899  16.608   8.890  0.0438  0.2136  0.0494
   24loPI   C4B  384   4.904  16.723   8.454 -0.0998  0.3505 -0.1411
   25loPI    C1  385   5.512  14.219  10.668  0.0894  0.0329  0.0381
   25loPI    C2  386   5.727  14.381  10.372  0.1217  0.0157  0.0521
   25loPI    C3  387   5.648  14.594  10.702  0.0879  0.0340  0.0322
   25loPI   PO4  388   5.614  13.942  10.624  0.2744  0.3382  0.3220
   25loPI   GL1  389   5.458  13.834  10.277  0.1936  0.3054  0.0074
   25loPI   GL2  390   5.736  13.644  10.177  0.1732 -0.2236  0.0845
   25loPI   C1A  391   5.283  13.869   9.823  0.0879 -0.1913 -0.0171
   25loPI   C2A  392   5.326  13.818   9.293  0.2928 -0.3438 -0.0730
   25loPI   C3A  393   5.306  13.863   8.848 -0.4037  0.2428  0.0525
   25loPI   C4A  394   5.235  14.000   8.354 -0.0045  0.2011 -0.2281
   25loPI   C5A  395   5.056  14.204   8.175 -0.1447  0.0252  0.1739
   25loPI   C6A  396   4.911  14.592   7.961 -0.2564 -0.0129 -0.2006
   25loPI   C1B  397   5.698  13.531   9.818 -0.0424  0.4669  0.2065
   25loPI   C2B  398   5.580  13.351   9.348  0.1462  0.2667  0.5588
   25loPI   C3B  399   5.592  13.498   8.957 -0.2952 -0.0380  0.3175
   25loPI   C4B  400   5.751  13.435   8.491 -0.1864 -0.3153 -0.1621
   26loPI    C1  401  12.011   1.345  10.384 -0.1578  0.0630 -0.0009
   26loPI    C2  402  11.916   1.441  10.760 -0.0952  0.0989  0.0059
   26loPI    C3  403  12.107   1.097  10.683 -0.3516 -0.0395 -0.0222
   26loPI   PO4  404  12.101   1.541  10.295  0.0725  0.0240 -0.5933
   26loPI   GL1  405  12.210   1.520   9.856  0.1485  0.1126 -0.1396
   26loPI   GL2  406  12.413   1.746   9.904 -0.0173  0.1377  0.1893
   26loPI   C1A  407  12.329   1.244   9.527  0.1935  0.1703  0.0161
   26loPI   C2A  408  12.400   1.278   9.125 -0.3016  0.0305 -0.1028
   26loPI   C3A  409  12.416   1.210   8.707 -0.1361 -0.1643  0.1813
   26loPI   C4A  410  12.487   1.275   8.319  0.0060 -0.1221 -0.1318
   26loPI   C5A  411  12.561   1.241   7.922 -0.1079  0.3562  0.1195
   26loPI   C6A  412  12.528   1.401   7.499 -0.2101 -0.0247  0.2454
   26loPI   C1B  413  12.620   1.706   9.449  0.0356 -0.1136  0.1278
   26loPI   C2B  414  12.729   1.656   9.068  0.2454  0.1732 -0.0569
   26loPI   C3B  415  12.768   1.660   8.685 -0.3243 -0.3425 -0.0221
   26loPI   C4B  416  12.842   1.623   8.248  0.2643 -0.0372 -0.0870
   27loPI    C1  417   4.270   6.714  10.207 -0.0352 -0.0519  0.0945
   27loPI    C2  418   4.341   6.731  10.601  0.0411 -0.0419  0.0806
   27loPI    C3  419   4.336   7.067  10.383  0.0614 -0.0535  0.0621
   27loPI   PO4  420   4.066   6.481  10.157  0.4956 -0.0484 -0.1616
   27loPI   GL1  421   4.009   6.255   9.839  0.0232  0.0158  0.1413
   27loPI   GL2  422   4.081   5.975   9.722  0.0648 -0.0485 -0.3844
   27loPI   C1A  423   4.331   6.352   9.287 -0.1207 -0.1506  0.0035
   27loPI   C2A  424   4.416   6.505   8.883  0.3254 -0.2731 -0.3143
   27loPI   C3A  425   4.321   6.865   8.531 -0.1753 -0.1967 -0.1923
   27loPI   C4A  426   4.297   7.135   8.124 -0.0756 -0.2522  0.0184
   27loPI   C5A  427   4.239   7.399   7.794  0.0516  0.0476  0.1508
   27loPI   C6A  428   4.103   7.333   7.350  0.0570 -0.2861 -0.1082
   27loPI   C1B  429   3.843   6.104   9.393 -0.1647 -0.1503 -0.0447
   27loPI   C2B  430   3.967   6.301   8.877  0.0816 -0.0000  0.1760
   27loPI   C3B  431   3.994   6.407   8.537 -0.4862 -0.0031  0.1917
   27loPI   C4B  432   3.808   6.576   8.110  0.0414 -0.2046 -0.0956
   28loPI    C1  433  17.469  15.005  10.456 -0.2132  0.0530  0.0977
   28loPI    C2  434  17.606  15.178  10.790 -0.2364  0.1728  0.0458
   28loPI    C3  435  17.420  14.825  10.809  0.0524  0.0220  0.1208
   28loPI   PO4  436  17.292  15.188  10.325  0.0745  0.2054 -0.0157
   28loPI   GL1  437  17.395  15.477  10.040 -0.0477 -0.2767  0.0736
   28loPI   GL2  438  17.515  15.275   9.850  0.0478  0.1518  0.0458
   28loPI   C1A  439  17.245  15.689   9.691  0.2496  0.1719 -0.0187
   28loPI   C2A  440  17.210  15.759   9.332 -0.1189 -0.1586 -0.0310
   28loPI   C3A  441  17.299  15.583   8.906  0.0525 -0.0685 -0.0937
   28loPI   C4A  442  17.292  15.518   8.419  0.2457  0.0509  0.2651
   28loPI   C5A  443  17.153  15.579   8.055  0.2861 -0.2254  0.0830
   28loPI   C6A  444  16.758  15.761   7.921  0.2837 -0.1408  0.0170
   28loPI   C1B  445  17.443  15.235   9.402  0.1777 -0.1177  0.0574
   28loPI   C2B  446  17.556  15.109   8.947 -0.1219 -0.0032 -0.3340
   28loPI   C3B  447  17.484  14.791   8.580  0.2418  0.1493  0.2911
   28loPI   C4B  448  17.559  14.604   8.170  0.3498  0.1211 -0.1023
   29loPI    C1  449   2.354   5.153  10.386 -0.0791  0.1192 -0.0966
   29loPI    C2  450   2.068   5.010  10.627 -0.0629 -0.1019 -0.2058
   29loPI    C3  451   2.410   5.148  10.782 -0.0028 -0.3549 -0.1071
   29loPI   PO4  452   2.225   5.253  10.222  0.1488 -0.0728 -0.1110
   29loPI   GL1  453   2.129   5.134   9.789  0.0743  0.0907  0.1341
   29loPI   GL2  454   2.128   4.752   9.660  0.0327  0.3323  0.1244
   29loPI   C1A  455   2.411   5.160   9.415 -0.1524  0.0249  0.1261
   29loPI   C2A  456   2.593   5.380   9.003 -0.0859  0.1089  0.0885
   29loPI   C3A  457   2.669   5.408   8.563  0.1966 -0.2718 -0.0422
   29loPI   C4A  458   2.908   5.361   8.167 -0.0936 -0.1208 -0.1732
   29loPI   C5A  459   3.202   5.501   7.894 -0.0561  0.1111 -0.0363
   29loPI   C6A  460   3.213   5.731   7.471 -0.0883 -0.0828 -0.0676
   29loPI   C1B  461   2.084   4.822   9.162 -0.1004  0.1546  0.5834
   29loPI   C2B  462   1.938   4.869   8.678  0.1927 -0.2388 -0.1223
   29loPI   C3B  463   1.988   4.867   8.260 -0.3154  0.0119 -0.3404
   29loPI   C4B  464   1.689   4.888   7.863 -0.3609 -0.4067 -0.2517
   30loPI    C1  465   5.132  14.368  10.992 -0.2804 -0.2939  0.0525
   30loPI    C2  466   5.141  14.646  11.279 -0.0459 -0.0689 -0.1677
   30loPI    C3  467   5.104  14.260  11.376  0.3067 -0.0212  0.1835
   30loPI   PO4  468   5.149  14.516  10.689  0.1128 -0.2675  0.0548
   30loPI   GL1  469   5.236  14.454  10.225 -0.0381  0.0405 -0.0507
   30loPI   GL2  470   5.440  14.789  10.203 -0.2395  0.1656 -0.0771
   30loPI   C1A  471   5.547  14.391   9.838  0.1194  0.0358 -0.0267
   30loPI   C2A  472   5.555  14.286   9.432  0.1317 -0.2855 -0.0612
   30loPI   C3A  473   5.670  14.172   8.997 -0.1363 -0.2033  0.0804
   30loPI   C4A  474   5.771  14.157   8.568 -0.0290 -0.1400 -0.0800
   30loPI   C5A  475   5.631  14.197   8.115  0.2383 -0.1468 -0.1635
   30loPI   C6A  476   5.947  14.027   7.865 -0.0252 -0.1460  0.0340
   30loPI   C1B  477   5.188  14.763   9.788 -0.1324  0.1662 -0.0093
   30loPI   C2B  478   5.273  14.781   9.313  0.1303  0.2978  0.1366
   30loPI   C3B  479   5.300  14.718   8.944  0.1219 -0.2343  0.0550
   30loPI   C4B  480   5.418  14.526   8.526 -0.3748  0.0261 -0.2015
   31loPI    C1  481   5.530   6.645  10.857 -0.2170  0.1346  0.1368
   31loPI    C2  482   5.825   6.909  10.912 -0.1377  0.0654  0.0478
   31loPI    C3  483   5.759   6.622  11.183 -0.0465  0.0086  0.0103
   31loPI   PO4  484   5.516   6.616  10.576  0.1029  0.0002  0.1529
   31loPI   GL1  485   5.655   6.679  10.118  0.2796 -0.0594  0.2489
   31loPI   GL2  486   5.833   6.550   9.934  0.1276  0.1198 -0.0771
   31loPI   C1A  487   5.660   7.049   9.902 -0.0439 -0.1842 -0.1199
   31loPI   C2A  488   5.692   7.125   9.465 -0.0498 -0.1248 -0.1468
   31loPI   C3A  489   5.622   7.163   9.051 -0.3068  0.0819 -0.0742
   31loPI   C4A  490   5.628   7.274   8.623  0.0020 -0.2961 -0.0656
   31loPI   C5A  491   5.768   7.545   8.251 -0.0854 -0.2202 -0.0799
   31loPI   C6A  492   5.977   7.810   8.026 -0.2000  0.1845 -0.1752
   31loPI   C1B  493   5.638   6.541   9.501  0.2967  0.0430 -0.1357
   31loPI   C2B  494   5.754   6.669   9.090  0.1625 -0.0037  0.1073
   31loPI   C3B  495   5.626   6.767   8.701  0.1659  0.2365  0.3003
   31loPI   C4B  496   5.732   6.803   8.345  0.1900  0.3002  0.2052
   32loPI    C1  497   6.541   0.749  10.508  0.0921  0.0790 -0.0690
   32loPI    C2  498   6.877   0.845  10.702  0.2283  0.0070 -0.2657
   32loPI    C3  499   6.744   0.467  10.707 -0.0274  0.0958  0.0789
   32loPI   PO4  500   6.580   0.898  10.292 -0.0777 -0.0087 -0.0314
   32loPI   GL1  501   6.716   0.863   9.855  0.4432 -0.3549  0.0258
   32loPI   GL2  502   6.377   0.926   9.869 -0.2536 -0.0134 -0.2242
   32loPI   C1A  503   6.660   0.854   9.363 -0.4410 -0.0271  0.0283
   32loPI   C2A  504   6.440   0.886   8.954 -0.0823 -0.0543 -0.1479
   32loPI   C3A  505   6.516   0.965   8.528  0.0596 -0.3856  0.0682
   32loPI   C4A  506   6.403   1.243   8.243  0.1744  0.0111 -0.0288
   32loPI   C5A  507   6.357   1.648   7.994 -0.2231  0.1570  0.2222
   32loPI   C6A  508   6.492   1.820   7.544 -0.1314 -0.1153 -0.1520
   32loPI   C1B  509   6.185   0.802   9.620 -0.0063  0.0465 -0.1106
   32loPI   C2B  510   6.041   0.730   9.159  0.1073 -0.1370  0.1857
   32loPI   C3B  511   6.054   0.670   8.711 -0.1152 -0.0912 -0.4799
   32loPI   C4B  512   5.928   0.710   8.260  0.2323  0.2319 -0.0593
   33loPI    C1  513  15.988   3.090  10.942 -0.2374 -0.2332  0.0513
   33loPI    C2  514  15.729   3.289  11.173  0.0173 -0.0840  0.2128
   33loPI    C3  515  16.074   3.157  11.327  0.2127  0.0597 -0.0918
   33loPI   PO4  516  15.844   2.918  10.740  0.1620  0.0315 -0.2011
   33loPI   GL1  517  15.886   3.025  10.267 -0.0320  0.3961  0.0342
   33loPI   GL2  518  15.548   2.916   9.986  0.3295 -0.2057 -0.0729
   33loPI   C1A  519  15.959   3.139   9.784 -0.1249 -0.4780 -0.1885
   33loPI   C2A  520  15.963   3.197   9.355 -0.2515 -0.1261 -0.0688
   33loPI   C3A  521  16.060   3.134   8.963  0.1666 -0.1298  0.1605
   33loPI   C4A  522  16.073   3.147   8.472  0.0460  0.1023 -0.1141
   33loPI   C5A  523  16.060   3.015   7.992 -0.3487  0.0575  0.1117
   33loPI   C6A  524  16.313   3.007   7.673 -0.0054  0.1989 -0.2526
   33loPI   C1B  525  15.801   2.698   9.600  0.0019 -0.1265 -0.2822
   33loPI   C2B  526  15.776   2.678   9.131 -0.1219 -0.0442  0.1322
   33loPI   C3B  527  15.868   2.762   8.717  0.0385  0.1708  0.3646
   33loPI   C4B  528  16.067   2.584   8.407  0.0530  0.0133 -0.0946
   34loPI    C1  529  17.490  16.708  11.107 -0.1986 -0.0392  0.0398
   34loPI    C2  530  17.630  16.581  10.754  0.1338  0.0169  0.1485
   34loPI    C3  531  17.433  16.328  10.993  0.0566 -0.0666 -0.0022
   34loPI   PO4  532  17.451  16.946  10.983 -0.2274  0.3100 -0.5916
   34loPI   GL1  533  17.303  17.111  10.692  0.0974 -0.1129  0.2883
   34loPI   GL2  534  17.079  17.353  10.607 -0.0005 -0.0942 -0.0115
   34loPI   C1A  535  17.374  16.799  10.352  0.0815  0.2710  0.0001
   34loPI   C2A  536  17.651  16.631   9.911  0.0438 -0.0711 -0.1865
   34loPI   C3A  537  17.831  16.606   9.480  0.2162  0.0514  0.2212
   34loPI   C4A  538  17.860  16.611   8.964 -0.5062  0.2586 -0.2719
   34loPI   C5A  539  17.960  16.553   8.539  0.1393  0.5204  0.1502
   34loPI   C6A  540  18.082  16.651   8.101 -0.2786 -0.2316  0.0312
   34loPI   C1B  541  17.028  17.191  10.158 -0.3139  0.0801  0.1181
   34loPI   C2B  542  17.169  17.047   9.773 -0.0628 -0.2436  0.4231
   34loPI   C3B  543  17.048  17.079   9.266 -0.0062  0.0635  0.3877
   34loPI   C4B  544  17.132  17.028   8.842  0.1270  0.2023  0.2829
   35loPI    C1  545  12.218  10.635  10.534 -0.2684 -0.4792  0.0381
   35loPI    C2  546  12.348  10.396  10.827  0.0498  0.0211  0.3205
   35loPI    C3  547  12.149  10.731  10.916 -0.3294 -0.0925 -0.0661
   35loPI   PO4  548  12.303  10.451  10.339 -0.3032  0.0713  0.2653
   35loPI   GL1  549  12.211  10.539   9.893 -0.2010 -0.0215 -0.1225
   35loPI   GL2  550  12.578  10.566   9.882  0.1136 -0.3037 -0.2724
   35loPI   C1A  551  12.247  10.842   9.650 -0.2457 -0.2388 -0.2279
   35loPI   C2A  552  12.347  10.723   9.219 -0.2531 -0.3989  0.2775
   35loPI   C3A  553  12.257  10.863   8.767 -0.2148 -0.0945 -0.3033
   35loPI   C4A  554  12.326  10.876   8.356  0.0180  0.2670  0.0831
   35loPI   C5A  555  12.629  11.042   8.157  0.0278  0.0337  0.0559
   35loPI   C6A  556  12.983  10.991   7.824 -0.0330 -0.1234  0.0614
   35loPI   C1B  557  12.772  10.802   9.545 -0.0839 -0.0840  0.1633
   35loPI   C2B  558  12.868  10.763   9.074 -0.0042  0.0285 -0.2246
   35loPI   C3B  559  12.763  10.875   8.636  0.0362  0.0419 -0.0906
   35loPI   C4B  560  13.059  10.698   8.262 -0.2617 -0.0162 -0.0725
   36loPI    C1  561  18.325   6.449  10.863 -0.0115 -0.2641 -0.1121
   36loPI    C2  562  18.456   6.159  11.104 -0.1824 -0.0617  0.2315
   36loPI    C3  563  18.328   6.505  11.259 -0.2041  0.1095 -0.1586
   36loPI   PO4  564  18.514   6.451  10.617 -0.1117  0.1636 -0.0520
   36loPI   GL1  565  18.397   6.451  10.184  0.1258  0.2024 -0.2909
   36loPI   GL2  566  18.161   6.299  10.038  0.0528  0.2478 -0.0148
   36loPI   C1A  567  18.411   6.713   9.879  0.3052 -0.0707  0.2544
   36loPI   C2A  568  18.339   6.822   9.413  0.0328  0.2062  0.1741
   36loPI   C3A  569  18.296   6.741   9.005 -0.0360  0.1404 -0.0058
   36loPI   C4A  570  18.387   6.862   8.529 -0.1262 -0.0540 -0.1165
   36loPI   C5A  571  18.504   6.966   8.021  0.1188 -0.3060 -0.0706
   36loPI   C6A  572  18.696   7.150   7.643 -0.3329 -0.1817 -0.0244
   36loPI   C1B  573  18.206   6.372   9.600 -0.2663 -0.2268  0.1126
   36loPI   C2B  574  18.121   6.284   9.160  0.0519 -0.0806 -0.1155
   36loPI   C3B  575  18.149   6.325   8.738 -0.2499  0.3228  0.1139
   36loPI   C4B  576  18.215   6.417   8.290  0.2747  0.1008  0.2145
   37loPI    C1  577  14.101   3.814  10.360 -0.1430  0.0651 -0.0074
   37loPI    C2  578  14.146   3.866  10.754 -0.1939  0.1231 -0.0091
   37loPI    C3  579  13.789   3.763  10.605 -0.1383 -0.0510 -0.0246
   37loPI   PO4  580  14.206   4.001  10.268 -0.1273 -0.1617 -0.2542
   37loPI   GL1  581  14.240   4.207   9.787  0.1543 -0.0625  0.2979
   37loPI   GL2  582  14.453   3.948   9.778 -0.0885 -0.3129 -0.0099
   37loPI   C1A  583  14.054   4.260   9.426 -0.0201  0.0976 -0.1005
   37loPI   C2A  584  13.988   4.279   8.996  0.1590  0.2605 -0.1471
   37loPI   C3A  585  14.043   4.306   8.613  0.1737 -0.2238  0.3118
   37loPI   C4A  586  14.197   4.151   8.115 -0.1201  0.2874 -0.0968
   37loPI   C5A  587  14.104   4.283   7.680  0.2131  0.3365  0.1405
   37loPI   C6A  588  13.803   4.346   7.478  0.0548  0.0420 -0.2251
   37loPI   C1B  589  14.240   3.831   9.454  0.0309  0.0027  0.0829
   37loPI   C2B  590  14.282   3.854   8.978 -0.2613 -0.3572  0.1608
   37loPI   C3B  591  14.376   3.892   8.596  0.1663  0.2017 -0.2378
   37loPI   C4B  592  14.416   3.708   8.236 -0.0459 -0.2570 -0.1638
   38loPI    C1  593   8.403   4.223  10.089 -0.0230 -0.1486  0.0208
   38loPI    C2  594   8.579   4.475  10.345 -0.1092 -0.0064 -0.0580
   38loPI    C3  595   8.289   4.231  10.473 -0.2732  0.1872 -0.0548
   38loPI   PO4  596   8.553   4.345   9.800  0.0201 -0.1345  0.0807
   38loPI   GL1  597   8.576   4.427   9.300 -0.2283  0.0031  0.0411
   38loPI   GL2  598   8.744   4.143   9.322  0.0534  0.1969  0.0318
   38loPI   C1A  599   8.544   4.206   8.892 -0.2627  0.1654 -0.3162
   38loPI   C2A  600   8.437   4.266   8.495  0.0267 -0.1175 -0.3536
   38loPI   C3A  601   8.440   4.272   8.032 -0.1424  0.2437  0.2400
   38loPI   C4A  602   8.674   3.967   7.772  0.0850  0.3639  0.1194
   38loPI   C5A  603   9.077   3.849   7.666 -0.0621  0.1118 -0.3858
   38loPI   C6A  604   9.434   3.906   7.412 -0.0364  0.1129  0.0485
   38loPI   C1B  605   8.981   4.372   8.974  0.2968  0.0489  0.4344
   38loPI   C2B  606   8.959   4.411   8.610  0.1306  0.3502 -0.2391
   38loPI   C3B  607   8.873   4.561   8.320 -0.0004 -0.0389  0.0622
   38loPI   C4B  608   8.721   4.889   7.965 -0.0376 -0.0948 -0.0704
   39loPI    C1  609  13.163  16.871  10.625  0.0199  0.0515 -0.0556
   39loPI    C2  610  12.994  16.914  10.984 -0.0383  0.2338 -0.1035
   39loPI    C3  611  13.314  16.678  10.941 -0.1711  0.0266  0.0217
   39loPI   PO4  612  12.975  16.850  10.421  0.1271  0.2007 -0.2108
   39loPI   GL1  613  12.980  16.650   9.976 -0.2030 -0.0185 -0.2948
   39loPI   GL2  614  13.299  16.501   9.965 -0.0497  0.1589 -0.2331
   39loPI   C1A  615  12.990  16.574   9.611  0.2025 -0.0070  0.3834
   39loPI   C2A  616  12.990  16.506   9.245 -0.4311 -0.2129 -0.0645
   39loPI   C3A  617  12.922  16.385   8.848  0.1382  0.1555  0.0264
   39loPI   C4A  618  12.625  16.359   8.555 -0.0347  0.0930 -0.0060
   39loPI   C5A  619  12.442  16.638   8.268  0.0402  0.3452 -0.0638
   39loPI   C6A  620  12.054  16.683   8.195 -0.1203  0.2351 -0.0221
   39loPI   C1B  621  13.454  16.495   9.584 -0.0066  0.2578  0.3008
   39loPI   C2B  622  13.379  16.283   9.078  0.1053  0.1330  0.0144
   39loPI   C3B  623  13.516  16.366   8.574 -0.3196 -0.0912  0.0669
   39loPI   C4B  624  13.885  16.282   8.195 -0.0121  0.2714 -0.1352
   40loPI    C1  625  17.313  11.149  10.615 -0.0690 -0.2009  0.2024
   40loPI    C2  626  17.397  11.510  10.767 -0.2711 -0.0799  0.0322
   40loPI    C3  627  17.333  11.200  11.011 -0.3658  0.0610  0.1882
   40loPI   PO4  628  17.434  11.133  10.441  0.0115 -0.1854 -0.0887
   40loPI   GL1  629  17.637  11.026  10.114 -0.0794  0.1338 -0.0132
   40loPI   GL2  630  17.497  11.205   9.775 -0.0760  0.0698  0.1426
   40loPI   C1A  631  17.682  10.776   9.704 -0.3211  0.0783 -0.0585
   40loPI   C2A  632  17.656  10.743   9.256 -0.0686  0.3464 -0.2881
   40loPI   C3A  633  17.778  10.781   8.885 -0.0603 -0.2285 -0.2398
   40loPI   C4A  634  17.728  10.809   8.466 -0.0924  0.0357  0.2499
   40loPI   C5A  635  17.751  10.726   8.086  0.0018  0.0357 -0.2875
   40loPI   C6A  636  17.591  10.721   7.728 -0.1808  0.1570  0.1653
   40loPI   C1B  637  17.396  11.108   9.395  0.0723 -0.1065 -0.0637
   40loPI   C2B  638  17.458  11.145   8.967 -0.0139  0.0954  0.0437
   40loPI   C3B  639  17.377  11.246   8.522  0.2149 -0.1121 -0.3135
   40loPI   C4B  640  17.389  11.342   8.130  0.2391 -0.0167 -0.0658
   41loPI    C1  641   4.311  17.284  10.241  0.0161  0.1541 -0.1511
   41loPI    C2  642   4.287  17.483  10.587  0.3331  0.2566 -0.1852
   41loPI    C3  643   4.438  17.113  10.579 -0.3747 -0.0508 -0.1013
   41loPI   PO4  644   4.075  17.276  10.071  0.0915  0.0491 -0.1015
   41loPI   GL1  645   3.876  17.311   9.615 -0.2068  0.2704 -0.1250
   41loPI   GL2  646   3.916  17.025   9.686 -0.0034  0.1548 -0.0817
   41loPI   C1A  647   4.088  17.264   9.227  0.0672 -0.1302 -0.0942
   41loPI   C2A  648   4.181  17.185   8.814 -0.0128  0.2627  0.0148
   41loPI   C3A  649   4.267  17.304   8.328  0.0769  0.1263 -0.0790
   41loPI   C4A  650   4.064  17.652   8.033 -0.1118  0.4173  0.0202
   41loPI   C5A  651   4.346  18.011   7.864  0.2980 -0.1902 -0.2307
   41loPI   C6A  652   4.383  18.421   7.703 -0.0039  0.4426  0.2284
   41loPI   C1B  653   3.763  16.823   9.252  0.2231  0.1263 -0.2032
   41loPI   C2B  654   3.808  16.709   8.861  0.2566 -0.0809 -0.0986
   41loPI   C3B  655   3.689  16.718   8.535  0.0349  0.2162  0.0403
   41loPI   C4B  656   3.279  16.575   8.376 -0.1696 -0.0881 -0.0313
   42loPI    C1  657  11.392   2.039  10.145  0.0199 -0.0912  0.0854
   42loPI    C2  658  11.082   2.228  10.314  0.2335  0.1630  0.2012
   42loPI    C3  659  11.450   2.383  10.341  0.3666 -0.1137  0.0294
   42loPI   PO4  660  11.359   1.999   9.935  0.4183 -0.4281  0.3095
   42loPI   GL1  661  11.496   2.169   9.509  0.2473  0.1187 -0.0599
   42loPI   GL2  662  11.151   2.134   9.513  0.1641  0.1797  0.0598
   42loPI   C1A  663  11.494   2.226   9.095  0.0079 -0.0126  0.3076
   42loPI   C2A  664  11.512   2.199   8.641  0.3703  0.0604 -0.3341
   42loPI   C3A  665  11.528   2.224   8.256 -0.2067  0.1887  0.2422
   42loPI   C4A  666  11.412   2.165   7.775  0.0568 -0.0975  0.0198
   42loPI   C5A  667  11.315   2.059   7.347  0.0489  0.1177  0.2041
   42loPI   C6A  668  11.023   1.877   7.169  0.0251  0.2236 -0.2059
   42loPI   C1B  669  11.145   1.801   9.110 -0.0372  0.1002  0.1105
   42loPI   C2B  670  11.218   1.835   8.708  0.1154 -0.0237  0.0149
   42loPI   C3B  671  11.111   1.791   8.254 -0.1398  0.0406 -0.1064
   42loPI   C4B  672  11.185   1.592   7.883 -0.1955  0.4781  0.3320
   43loPI    C1  673  12.118   3.689  10.554 -0.0649 -0.0803  0.0638
   43loPI    C2  674  11.780   3.590  10.742 -0.0344 -0.0433  0.1387
   43loPI    C3  675  12.007   3.887  10.883  0.0739 -0.1257  0.1387
   43loPI   PO4  676  12.069   3.612  10.324  0.1267  0.1282  0.0935
   43loPI   GL1  677  12.343   3.612   9.879  0.0857 -0.0345 -0.0294
   43loPI   GL2  678  12.489   3.684   9.661  0.2111 -0.0485  0.1435
   43loPI   C1A  679  12.112   3.845   9.474  0.2937 -0.1651  0.2119
   43loPI   C2A  680  12.292   3.879   9.036  0.0173 -0.2170 -0.1230
   43loPI   C3A  681  12.305   3.949   8.617 -0.0256  0.2117 -0.2073
   43loPI   C4A  682  12.214   3.973   8.196  0.2489 -0.0670 -0.0801
   43loPI   C5A  683  12.157   3.892   7.824  0.1257  0.0845  0.1444
   43loPI   C6A  684  12.538   3.815   7.499 -0.0900 -0.2546 -0.2484
   43loPI   C1B  685  12.487   3.471   9.255 -0.1935  0.0291 -0.2753
   43loPI   C2B  686  12.428   3.459   8.736 -0.1285  0.0424 -0.2606
   43loPI   C3B  687  12.430   3.477   8.363  0.0793 -0.1971  0.1167
   43loPI   C4B  688  12.407   3.469   7.900 -0.1299  0.1370  0.2090
   44loPI    C1  689   6.571   2.317  10.534  0.0689  0.1853 -0.1029
   44loPI    C2  690   6.250   2.114  10.659  0.0765  0.1064 -0.2102
   44loPI    C3  691   6.593   2.090  10.863  0.0222  0.1688 -0.1110
   44loPI   PO4  692   6.457   2.453  10.329  0.1556  0.3373  0.4716
   44loPI   GL1  693   6.354   2.421   9.952  0.0289  0.0827  0.3182
   44loPI   GL2  694   6.651   2.327   9.860 -0.2282 -0.2555 -0.1588
   44loPI   C1A  695   6.519   2.734   9.486  0.3366 -0.2447 -0.2407
   44loPI   C2A  696   6.511   2.787   9.010  0.0094  0.4386  0.3381
   44loPI   C3A  697   6.679   2.666   8.557  0.0910 -0.1644  0.0173
   44loPI   C4A  698   6.576   2.495   8.185  0.1609  0.0078  0.3519
   44loPI   C5A  699   6.581   2.313   7.701  0.0405  0.1940 -0.0470
   44loPI   C6A  700   6.741   2.293   7.361 -0.1436  0.1985  0.3239
   44loPI   C1B  701   6.513   2.226   9.491 -0.1208 -0.0681  0.1693
   44loPI   C2B  702   6.674   2.261   9.076  0.3660  0.0734 -0.3393
   44loPI   C3B  703   6.967   2.370   8.744  0.0273  0.0251  0.0183
   44loPI   C4B  704   7.143   2.428   8.356  0.1371  0.0751 -0.1347
   45loPI    C1  705   2.802  12.668  11.155  0.1960  0.3034  0.1226
   45loPI    C2  706   2.404  12.674  11.191  0.1713 -0.0854 -0.0387
   45loPI    C3  707   2.634  12.718  11.515 -0.0031 -0.0158  0.0774
   45loPI   PO4  708   2.883  12.376  10.976  0.1649 -0.0603 -0.1125
   45loPI   GL1  709   2.950  12.258  10.596 -0.0483  0.0026 -0.0460
   45loPI   GL2  710   2.776  12.515  10.510  0.1989  0.0861  0.1102
   45loPI   C1A  711   3.169  12.297  10.089  0.2102  0.0434 -0.3270
   45loPI   C2A  712   3.166  12.328   9.663  0.2542  0.0536 -0.0718
   45loPI   C3A  713   3.092  12.243   9.277 -0.1986  0.1304 -0.3113
   45loPI   C4A  714   3.199  12.205   8.828  0.1100 -0.0324 -0.2281
   45loPI   C5A  715   3.204  12.370   8.443  0.1767 -0.3867 -0.1982
   45loPI   C6A  716   2.910  12.710   8.260 -0.0286  0.0350  0.1859
   45loPI   C1B  717   2.882  12.805  10.147  0.1450 -0.0975 -0.0359
   45loPI   C2B  718   2.833  12.692   9.697  0.0387  0.0676 -0.0885
   45loPI   C3B  719   2.863  12.678   9.264  0.2166  0.1954 -0.0320
   45loPI   C4B  720   2.840  12.635   8.803  0.1089 -0.0744  0.1305
   46loPI    C1  721   9.454  13.791  10.902 -0.0613  0.0454 -0.0182
   46loPI    C2  722   9.572  14.125  11.087  0.1869 -0.0362 -0.0257
   46loPI    C3  723   9.629  13.769  11.260 -0.0445 -0.0790 -0.0337
   46loPI   PO4  724   9.459  13.876  10.631 -0.0634 -0.1427  0.1191
   46loPI   GL1  725   9.350  13.783  10.147  0.1321  0.1007 -0.0206
   46loPI   GL2  726   9.677  13.709  10.210  0.0769 -0.1509 -0.0703
   46loPI   C1A  727   9.248  13.776   9.725  0.1146  0.0836  0.0951
   46loPI   C2A  728   9.172  13.760   9.334 -0.0454  0.0499  0.2175
   46loPI   C3A  729   9.174  13.645   8.898 -0.1467 -0.1326 -0.1055
   46loPI   C4A  730   9.099  13.641   8.448 -0.0368  0.0900  0.3005
   46loPI   C5A  731   9.062  13.420   8.054  0.0633 -0.0609 -0.0194
   46loPI   C6A  732   9.180  13.478   7.825 -0.1195  0.0145  0.1167
   46loPI   C1B  733   9.767  13.876   9.808  0.1320  0.1154 -0.0645
   46loPI   C2B  734   9.659  13.742   9.462 -0.3038  0.0070  0.2455
   46loPI   C3B  735   9.641  13.680   9.062 -0.0633  0.4217 -0.1845
   46loPI   C4B  736   9.720  13.708   8.615  0.2263 -0.0220 -0.0759
   47loPI    C1  737  12.868  11.322  10.341  0.1959  0.2121  0.2645
   47loPI    C2  738  12.882  11.214  10.726  0.1119 -0.3420  0.1209
   47loPI    C3  739  12.553  11.143  10.510  0.1153  0.0710 -0.0286
   47loPI   PO4  740  13.227  11.356  10.262  0.0013 -0.0146  0.0973
   47loPI   GL1  741  13.436  11.449   9.947 -0.2359 -0.3902 -0.1701
   47loPI   GL2  742  13.812  11.425  10.032 -0.1125  0.0090  0.4426
   47loPI   C1A  743  13.476  11.293   9.508 -0.1620  0.2091  0.3394
   47loPI   C2A  744  13.508  11.336   9.068  0.1824  0.0306 -0.0929
   47loPI   C3A  745  13.607  11.431   8.645  0.2630 -0.1082 -0.1772
   47loPI   C4A  746  13.632  11.424   8.261 -0.1568 -0.1071 -0.2620
   47loPI   C5A  747  13.505  11.231   7.916  0.0868 -0.2728 -0.1202
   47loPI   C6A  748  13.537  10.894   7.748 -0.2205  0.1493  0.0424
   47loPI   C1B  749  14.003  11.281   9.665  0.1681  0.0923 -0.3697
   47loPI   C2B  750  13.949  11.376   9.338 -0.2884 -0.0864 -0.1998
   47loPI   C3B  751  14.023  11.453   8.969 -0.1500  0.0976 -0.0417
   47loPI   C4B  752  14.058  11.567   8.505 -0.1721  0.0807 -0.0126
   48loPI    C1  753   0.195   5.683  10.606 -0.3268 -0.0328  0.1556
   48loPI    C2  754   0.233   5.665  11.003  0.0094  0.1839  0.1375
   48loPI    C3  755   0.279   6.014  10.814  0.4408 -0.0166 -0.1451
   48loPI   PO4  756   0.352   5.537  10.420  0.1682  0.1258 -0.1510
   48loPI   GL1  757   0.412   5.678  10.003  0.1557  0.1371 -0.0127
   48loPI   GL2  758   0.513   5.912   9.995  0.2682  0.0916 -0.3097
   48loPI   C1A  759   0.209   5.507   9.576 -0.0485 -0.0016  0.0103
   48loPI   C2A  760   0.268   5.361   9.181  0.1247 -0.0426 -0.0825
   48loPI   C3A  761   0.303   5.516   8.784  0.1159 -0.2404 -0.3076
   48loPI   C4A  762   0.256   5.525   8.390  0.0229 -0.0089  0.2276
   48loPI   C5A  763   0.387   5.738   7.984  0.2186 -0.3180  0.0578
   48loPI   C6A  764   0.530   6.046   7.636 -0.1221 -0.0318  0.1245
   48loPI   C1B  765   0.490   5.898   9.466 -0.1060 -0.0814 -0.2904
   48loPI   C2B  766   0.469   5.842   9.100 -0.0694 -0.1174  0.3367
   48loPI   C3B  767   0.435   6.004   8.688  0.1158  0.1637  0.4569
   48loPI   C4B  768   0.422   6.166   8.264  0.1455  0.1159 -0.0537
   49loPI    C1  769  13.979  11.673  10.735  0.2082 -0.1491  0.2880
   49loPI    C2  770  13.844  11.347  10.924 -0.1509 -0.0360  0.2340
   49loPI    C3  771  13.705  11.439  10.560  0.0725  0.0882  0.1784
   49loPI   PO4  772  14.283  11.695  10.737  0.0302  0.1671  0.0300
   49loPI   GL1  773  14.165  11.680  10.312 -0.2691 -0.0517 -0.0167
   49loPI   GL2  774  14.101  11.959  10.289 -0.1408  0.0941  0.1771
   49loPI   C1A  775  14.197  11.691   9.862  0.0913 -0.1426 -0.0168
   49loPI   C2A  776  14.159  11.840   9.468  0.0438  0.0846  0.1577
   49loPI   C3A  777  14.240  11.886   9.031  0.0431 -0.0378 -0.2158
   49loPI   C4A  778  14.216  12.021   8.569 -0.2566 -0.0683  0.0898
   49loPI   C5A  779  14.279  11.927   8.128  0.1851  0.1208  0.0416
   49loPI   C6A  780  14.475  11.761   7.726  0.3375  0.0121  0.0814
   49loPI   C1B  781  13.973  12.229   9.898  0.1401  0.0953 -0.1862
   49loPI   C2B  782  13.958  12.357   9.538 -0.1061  0.1377  0.2760
   49loPI   C3B  783  13.879  12.264   9.119  0.0613  0.0818  0.0071
   49loPI   C4B  784  13.999  12.414   8.779 -0.1305 -0.0800 -0.0546
   50loPI    C1  785   2.137  17.434  10.481 -0.1347 -0.0388 -0.0138
   50loPI    C2  786   2.072  17.061  10.350 -0.0054 -0.0520 -0.0410
   50loPI    C3  787   2.357  17.131  10.622 -0.1853 -0.0056  0.1384
   50loPI   PO4  788   2.075  17.557  10.257  0.3989  0.0582 -0.1393
   50loPI   GL1  789   2.262  17.796   9.907  0.2876 -0.1579 -0.0611
   50loPI   GL2  790   2.585  17.906  10.014  0.0479  0.1237 -0.1287
   50loPI   C1A  791   2.082  17.644   9.604 -0.1360  0.0913 -0.1605
   50loPI   C2A  792   2.309  17.594   9.220 -0.3575  0.0376  0.2704
   50loPI   C3A  793   2.611  17.649   8.878 -0.3440 -0.1706  0.0504
   50loPI   C4A  794   2.850  17.458   8.738  0.0979  0.2133  0.2378
   50loPI   C5A  795   2.997  17.116   8.474  0.0153  0.0301 -0.2583
   50loPI   C6A  796   2.783  16.988   8.122 -0.2667 -0.1834  0.0612
   50loPI   C1B  797   2.667  17.695   9.614 -0.2709 -0.0362 -0.1967
   50loPI   C2B  798   2.849  17.417   9.227 -0.0857  0.1023 -0.5280
   50loPI   C3B  799   3.156  17.160   9.049 -0.0983  0.1751 -0.0750
   50loPI   C4B  800   3.319  16.823   8.869  0.0402 -0.3067 -0.1813
   51loPI    C1  801   3.418  14.151  10.989 -0.0467 -0.0063  0.1216
   51loPI    C2  802   3.737  14.101  11.225 -0.0598 -0.0951  0.1207
   51loPI    C3  803   3.373  14.136  11.386 -0.0720 -0.1834  0.1130
   51loPI   PO4  804   3.459  14.018  10.818  0.0448 -0.2331 -0.0556
   51loPI   GL1  805   3.530  13.986  10.462  0.2898  0.1212  0.2385
   51loPI   GL2  806   3.513  13.660  10.284 -0.0666  0.0030  0.2254
   51loPI   C1A  807   3.119  13.951  10.224 -0.0493 -0.0570  0.0080
   51loPI   C2A  808   2.972  14.098   9.871 -0.2370  0.0002 -0.0065
   51loPI   C3A  809   2.953  14.025   9.447  0.5969  0.0172 -0.2355
   51loPI   C4A  810   2.945  14.106   9.012 -0.1791 -0.0088  0.1354
   51loPI   C5A  811   3.000  14.055   8.531 -0.4816 -0.0833  0.0086
   51loPI   C6A  812   3.117  14.395   8.167  0.2283 -0.0167  0.0005
   51loPI   C1B  813   3.346  13.643   9.796 -0.1744 -0.2744  0.0602
   51loPI   C2B  814   3.318  13.592   9.488  0.3490 -0.1583 -0.0831
   51loPI   C3B  815   3.279  13.733   8.995 -0.0817  0.1589 -0.2870
   51loPI   C4B  816   3.274  13.602   8.527 -0.1395  0.0518  0.0439
   52loPI    C1  817  12.356   0.623   9.931 -0.1198 -0.1066  0.0013
   52loPI    C2  818  12.210   0.813  10.251  0.0563  0.0184  0.0084
   52loPI    C3  819  12.381   1.021   9.955  0.1316 -0.1180 -0.0450
   52loPI   PO4  820  12.621   0.419   9.955  0.0164 -0.0261  0.0972
   52loPI   GL1  821  13.029   0.350   9.853  0.1809  0.1637  0.3378
   52loPI   GL2  822  13.291   0.340   9.847 -0.1223  0.0430 -0.2128
   52loPI   C1A  823  12.826   0.252   9.336 -0.0567  0.2629 -0.0967
   52loPI   C2A  824  12.743   0.359   8.936 -0.2208 -0.1025  0.0859
   52loPI   C3A  825  12.869   0.274   8.555  0.2018  0.2238  0.2834
   52loPI   C4A  826  12.900   0.227   8.085  0.0051 -0.0622 -0.0782
   52loPI   C5A  827  13.208   0.055   7.755 -0.0066 -0.2233 -0.0945
   52loPI   C6A  828  13.647  -0.008   7.723 -0.4253 -0.0879 -0.1775
   52loPI   C1B  829  13.302   0.229   9.461 -0.1741  0.0238  0.0161
   52loPI   C2B  830  13.388   0.234   9.136 -0.1406  0.1009  0.1215
   52loPI   C3B  831  13.433   0.234   8.731  0.1540  0.1611  0.3355
   52loPI   C4B  832  13.390   0.136   8.326 -0.0588 -0.1786 -0.1168
   53loPI    C1  833  11.795   5.391  10.186  0.1160 -0.0834  0.1171
   53loPI    C2  834  11.596   5.626  10.441  0.0870  0.0989 -0.0704
   53loPI    C3  835  11.480   5.247  10.386 -0.0405  0.1236  0.0232
   53loPI   PO4  836  11.809   5.569   9.929 -0.0163  0.0706 -0.4347
   53loPI   GL1  837  11.769   5.444   9.584  0.3356  0.0519 -0.1584
   53loPI   GL2  838  11.868   5.224   9.520 -0.0333 -0.3675  0.0521
   53loPI   C1A  839  11.675   5.700   9.114  0.0871 -0.0614 -0.1952
   53loPI   C2A  840  11.893   5.801   8.802  0.3173  0.2536  0.2364
   53loPI   C3A  841  12.225   5.883   8.408  0.2046 -0.1453  0.1514
   53loPI   C4A  842  12.498   5.855   8.107  0.0877 -0.0139  0.1464
   53loPI   C5A  843  12.456   6.001   7.643 -0.1419 -0.0424 -0.3697
   53loPI   C6A  844  12.396   6.171   7.287  0.0810  0.1566 -0.2407
   53loPI   C1B  845  12.054   5.382   9.125 -0.1564 -0.1426 -0.1191
   53loPI   C2B  846  12.095   5.423   8.656 -0.0168 -0.1698 -0.1664
   53loPI   C3B  847  12.172   5.384   8.276 -0.1270  0.1485 -0.0935
   53loPI   C4B  848  12.248   5.450   7.909 -0.1891  0.2073 -0.0217
   54loPI    C1  849   7.843   4.458  10.469 -0.2268 -0.0914 -0.1294
   54loPI    C2  850   7.504   4.356  10.656 -0.1236 -0.0759  0.0694
   54loPI    C3  851   7.837   4.141  10.713 -0.0160  0.1073  0.1405
   54loPI   PO4  852   7.836   4.410  10.212  0.0811  0.1095 -0.1909
   54loPI   GL1  853   7.899   4.321   9.776 -0.1327 -0.2767  0.0988
   54loPI   GL2  854   7.570   4.405   9.755 -0.4499  0.0309 -0.0379
   54loPI   C1A  855   7.978   4.453   9.363  0.0868 -0.3302 -0.0008
   54loPI   C2A  856   8.083   4.459   8.902  0.0384 -0.0191  0.0821
   54loPI   C3A  857   7.997   4.501   8.445 -0.0892 -0.1079 -0.0993
   54loPI   C4A  858   7.665   4.640   8.091 -0.3488 -0.1359 -0.0167
   54loPI   C5A  859   7.521   4.784   7.732 -0.0577 -0.1241 -0.2167
   54loPI   C6A  860   7.254   4.833   7.361  0.2416  0.1492  0.0831
   54loPI   C1B  861   7.448   4.478   9.338 -0.0569 -0.1978  0.0401
   54loPI   C2B  862   7.227   4.398   9.113 -0.0824 -0.0603 -0.1677
   54loPI   C3B  863   7.049   4.413   8.766  0.0811  0.1875  0.2928
   54loPI   C4B  864   6.924   4.222   8.324  0.0339  0.0050 -0.2873
   55loPI    C1  865  18.148  14.529  10.565  0.1840 -0.0110 -0.0740
   55loPI    C2  866  17.918  14.852  10.616 -0.0023 -0.1659  0.0850
   55loPI    C3  867  18.284  14.840  10.776 -0.0011 -0.0412  0.0926
   55loPI   PO4  868  18.055  14.410  10.309  0.2729 -0.1393 -0.1946
   55loPI   GL1  869  18.194  14.301   9.944  0.0902 -0.2584  0.1032
   55loPI   GL2  870  17.884  14.451   9.847  0.1113  0.3277  0.0525
   55loPI   C1A  871  18.366  14.155   9.664 -0.3347  0.0586 -0.0250
   55loPI   C2A  872  18.567  14.109   9.257  0.0059  0.0217  0.0946
   55loPI   C3A  873  18.619  14.195   8.746  0.3166  0.0608  0.0716
   55loPI   C4A  874  18.157  14.115   8.727 -0.3328 -0.0679  0.1215
   55loPI   C5A  875  17.731  14.071   8.775 -0.0216  0.0426  0.1448
   55loPI   C6A  876  17.434  13.680   8.648 -0.2152  0.2138 -0.1440
   55loPI   C1B  877  17.766  14.577   9.440 -0.2375 -0.1869  0.2189
   55loPI   C2B  878  17.685  14.605   9.016  0.1910  0.0249  0.4058
   55loPI   C3B  879  17.872  14.539   8.647  0.1261  0.0582  0.0668
   55loPI   C4B  880  17.954  14.278   8.231  0.2400 -0.0843  0.0967
   56loPI    C1  881   1.041   3.535  10.281  0.2321  0.0486 -0.0162
   56loPI    C2  882   0.940   3.561  10.667  0.0443 -0.0611 -0.0568
   56loPI    C3  883   0.947   3.890  10.439  0.4339  0.0490  0.1061
   56loPI   PO4  884   1.253   3.367  10.258 -0.1904  0.0469  0.1049
   56loPI   GL1  885   1.535   3.279   9.927 -0.1580 -0.0413 -0.0758
   56loPI   GL2  886   1.534   2.932   9.910  0.0357  0.0572 -0.2373
   56loPI   C1A  887   1.499   3.180   9.420 -0.0615 -0.0692 -0.3904
   56loPI   C2A  888   1.383   3.248   9.005  0.0008 -0.0105 -0.0400
   56loPI   C3A  889   1.086   3.577   8.923 -0.0953 -0.0024 -0.2382
   56loPI   C4A  890   1.062   4.019   8.937  0.0633 -0.1276 -0.1298
   56loPI   C5A  891   1.074   4.310   8.585 -0.2486 -0.4213 -0.3697
   56loPI   C6A  892   1.060   4.159   8.151  0.0239 -0.1261 -0.3776
   56loPI   C1B  893   1.757   2.620   9.572 -0.0188  0.1674  0.0279
   56loPI   C2B  894   2.108   2.682   9.263  0.1035  0.0182  0.1510
   56loPI   C3B  895   2.131   2.622   8.915 -0.2303 -0.0278 -0.0201
   56loPI   C4B  896   1.991   2.688   8.612  0.0551 -0.1882 -0.1095
   57loPI    C1  897   2.218  10.294  10.820  0.0159  0.0168  0.4428
   57loPI    C2  898   2.541  10.267  11.054  0.2087  0.2686  0.2112
   57loPI    C3  899   2.451  10.613  10.876 -0.1371  0.1749  0.1968
   57loPI   PO4  900   2.360   9.923  10.623  0.0072 -0.0257  0.1192
   57loPI   GL1  901   2.559  10.070  10.177  0.2358  0.0631  0.0099
   57loPI   GL2  902   2.422  10.306  10.275  0.0429  0.1502  0.0768
   57loPI   C1A  903   2.871  10.241   9.805 -0.0555  0.0080 -0.2503
   57loPI   C2A  904   2.901  10.294   9.463 -0.2886  0.0761  0.2163
   57loPI   C3A  905   2.851  10.429   9.178  0.0264  0.1257  0.2171
   57loPI   C4A  906   2.768  10.521   8.765  0.1840  0.1037  0.3208
   57loPI   C5A  907   2.778  10.474   8.445  0.2690  0.1257 -0.1044
   57loPI   C6A  908   2.763  10.729   8.068  0.0196  0.1735 -0.2350
   57loPI   C1B  909   2.341  10.197   9.750  0.1649 -0.1413 -0.1177
   57loPI   C2B  910   2.242  10.297   9.355  0.0178  0.0593 -0.2556
   57loPI   C3B  911   2.299  10.299   8.908  0.3356 -0.0494  0.0566
   57loPI   C4B  912   2.135  10.389   8.431  0.1916 -0.3631 -0.2573
   58loPI    C1  913   9.631  10.992  10.505 -0.2246 -0.0192 -0.0388
   58loPI    C2  914   9.416  11.221  10.258 -0.0044  0.3096  0.0669
   58loPI    C3  915   9.250  11.076  10.591 -0.2740 -0.0561 -0.2188
   58loPI   PO4  916   9.916  11.095  10.537 -0.2901 -0.1002  0.2507
   58loPI   GL1  917  10.228  11.129  10.180 -0.1773 -0.0882 -0.0895
   58loPI   GL2  918   9.899  11.182  10.022 -0.2337 -0.2210 -0.1327
   58loPI   C1A  919  10.449  11.195   9.773  0.0475 -0.0409 -0.0343
   58loPI   C2A  920  10.485  11.087   9.314 -0.1274 -0.1916 -0.3463
   58loPI   C3A  921  10.424  11.098   8.901  0.3393 -0.1727  0.0252
   58loPI   C4A  922  10.562  11.141   8.502  0.0010  0.0025  0.0714
   58loPI   C5A  923  10.342  11.193   8.110  0.0207  0.2340 -0.1891
   58loPI   C6A  924   9.993  11.260   7.845  0.0121 -0.1041 -0.1051
   58loPI   C1B  925  10.047  11.078   9.528 -0.2459 -0.2182 -0.0938
   58loPI   C2B  926   9.897  11.133   9.096  0.2192  0.1119 -0.0563
   58loPI   C3B  927   9.998  11.177   8.616  0.0418 -0.0048  0.2651
   58loPI   C4B  928   9.735  11.157   8.288  0.1726 -0.1884 -0.3198
   59loPI    C1  929  15.447  12.506  10.534  0.0574 -0.0572  0.0528
   59loPI    C2  930  15.185  12.801  10.597  0.2451  0.1026  0.0934
   59loPI    C3  931  15.263  12.537  10.887  0.1756  0.0916  0.1022
   59loPI   PO4  932  15.495  12.438  10.302  0.1582 -0.0325  0.0108
   59loPI   GL1  933  15.685  12.672   9.893  0.2084  0.0140  0.0371
   59loPI   GL2  934  15.934  12.358   9.904 -0.3140 -0.1309  0.4403
   59loPI   C1A  935  15.513  12.406   9.621  0.0054  0.0473  0.0309
   59loPI   C2A  936  15.553  12.434   9.098  0.1057  0.3809 -0.0013
   59loPI   C3A  937  15.645  12.412   8.689  0.3645  0.0942 -0.1163
   59loPI   C4A  938  15.546  12.461   8.214 -0.1266 -0.2200 -0.2824
   59loPI   C5A  939  15.346  12.476   7.856  0.1349 -0.4349  0.2193
   59loPI   C6A  940  15.281  12.747   7.551 -0.2241  0.1057 -0.2347
   59loPI   C1B  941  15.974  12.361   9.400  0.0435  0.0672  0.3032
   59loPI   C2B  942  16.036  12.448   8.981  0.0440 -0.1865 -0.0380
   59loPI   C3B  943  16.103  12.442   8.490  0.4667 -0.0519 -0.2658
   59loPI   C4B  944  16.074  12.666   8.058  0.1310 -0.0586  0.1414
   60loPI    C1  945  18.480  16.085  10.416  0.2018 -0.1015 -0.2080
   60loPI    C2  946  18.189  15.810  10.426 -0.1373  0.2538  0.0448
   60loPI    C3  947  18.400  15.889  10.756  0.2743 -0.0197 -0.1434
   60loPI   PO4  948  18.534  16.087  10.223 -0.2846 -0.0846  0.1022
   60loPI   GL1  949  18.645  16.009   9.897  0.0002  0.0785  0.1662
   60loPI   GL2  950  18.919  15.992   9.747 -0.0711 -0.0365  0.0779
   60loPI   C1A  951  18.479  16.049   9.472  0.0259 -0.0522 -0.1451
   60loPI   C2A  952  18.620  16.017   9.021 -0.1191 -0.0457 -0.0539
   60loPI   C3A  953  18.673  16.065   8.610  0.1915 -0.1837 -0.1537
   60loPI   C4A  954  18.568  16.013   8.294 -0.1023 -0.0136  0.1557
   60loPI   C5A  955  18.360  16.249   7.900  0.2328  0.0310 -0.0879
   60loPI   C6A  956  17.995  16.376   7.735 -0.0057 -0.3576 -0.0716
   60loPI   C1B  957  19.006  16.026   9.336 -0.1157 -0.0418  0.0601
   60loPI   C2B  958  19.141  16.003   8.864  0.0334  0.3060  0.3594
   60loPI   C3B  959  19.137  15.975   8.467 -0.0382 -0.0163  0.0433
   60loPI   C4B  960  19.070  15.972   8.016 -0.2636 -0.4285 -0.1702
   61loPI    C1  961   3.277   8.786  10.879 -0.1736 -0.0344 -0.2009
   61loPI    C2  962   3.670   8.716  10.885 -0.1218  0.2507 -0.0880
   61loPI    C3  963   3.431   8.536  11.150 -0.0055  0.4189  0.1348
   61loPI   PO4  964   3.117   8.721  10.525 -0.2132  0.0556  0.2119
   61loPI   GL1  965   3.145   8.882  10.157  0.0491  0.4379 -0.1775
   61loPI   GL2  966   3.447   8.764  10.033 -0.0004  0.2232  0.2774
   61loPI   C1A  967   2.961   8.506   9.821 -0.2081  0.2049 -0.0850
   61loPI   C2A  968   3.070   8.506   9.389  0.3043  0.2424 -0.0160
   61loPI   C3A  969   3.078   8.624   8.973  0.0201  0.3574 -0.4393
   61loPI   C4A  970   3.035   8.613   8.490  0.0630  0.1560  0.1464
   61loPI   C5A  971   3.107   8.411   8.065 -0.1014  0.1163 -0.1495
   61loPI   C6A  972   2.779   8.144   7.924 -0.0502 -0.2941  0.1543
   61loPI   C1B  973   3.266   8.898   9.667 -0.1830 -0.1944  0.0194
   61loPI   C2B  974   3.374   9.015   9.192 -0.1501  0.0253  0.1074
   61loPI   C3B  975   3.266   9.061   8.760 -0.2942 -0.3527  0.0627
   61loPI   C4B  976   3.210   9.170   8.315 -0.1516 -0.2530 -0.3905
   62loPI    C1  977   9.387  12.139  10.612 -0.0025 -0.0660  0.1110
   62loPI    C2  978   9.344  12.304  10.974  0.0520  0.2364 -0.0176
   62loPI    C3  979   9.677  12.101  10.885  0.0086  0.1011  0.1231
   62loPI   PO4  980   9.400  12.322  10.439 -0.1814  0.0714  0.1480
   62loPI   GL1  981   9.236  12.340  10.070 -0.2359 -0.2514  0.0509
   62loPI   GL2  982   9.001  12.465  10.179 -0.0984 -0.3308 -0.0608
   62loPI   C1A  983   9.498  12.493   9.765  0.1423 -0.0330 -0.1287
   62loPI   C2A  984   9.553  12.402   9.374  0.1232 -0.1450  0.0040
   62loPI   C3A  985   9.534  12.335   8.973 -0.0104  0.0974 -0.0820
   62loPI   C4A  986   9.589  12.372   8.649  0.2222 -0.0768 -0.1715
   62loPI   C5A  987   9.611  12.422   8.205  0.2805 -0.2359  0.2350
   62loPI   C6A  988   9.555  12.517   7.783  0.0427 -0.2151 -0.1159
   62loPI   C1B  989   8.935  12.426   9.606 -0.1712  0.0058 -0.2674
   62loPI   C2B  990   9.096  12.372   9.179  0.3592 -0.1106  0.0284
   62loPI   C3B  991   9.071  12.320   8.720 -0.0210 -0.2026  0.0243
   62loPI   C4B  992   9.114  12.420   8.324  0.0267  0.0952 -0.1855
   63loPI    C1  993  12.830   4.426  10.082 -0.0303 -0.2017  0.0234
   63loPI    C2  994  13.152   4.235   9.941 -0.0862 -0.2526 -0.0363
   63loPI    C3  995  13.036   4.179  10.320 -0.0087 -0.2124 -0.0063
   63loPI   PO4  996  12.856   4.639   9.992  0.2588 -0.0580  0.3158
   63loPI   GL1  997  12.726   4.649   9.623  0.1349 -0.0921  0.0227
   63loPI   GL2  998  13.082   4.620   9.573  0.4413  0.0647 -0.1951
   63loPI   C1A  999  12.561   4.505   9.170  0.1773 -0.2266 -0.5232
   63loPI   C2A 1000  12.503   4.499   8.772 -0.1887  0.0654 -0.0282
   63loPI   C3A 1001  12.639   4.383   8.369  0.1292 -0.2863  0.0418
   63loPI   C4A 1002  12.790   4.530   8.008 -0.1544  0.2299 -0.1020
   63loPI   C5A 1003  12.911   4.687   7.699 -0.3212  0.0525  0.0371
   63loPI   C6A 1004  13.065   5.092   7.557  0.0167 -0.0501  0.1120
   63loPI   C1B 1005  13.052   4.390   9.331 -0.1224 -0.0392  0.4382
   63loPI   C2B 1006  12.959   4.463   8.916  0.1651 -0.2551  0.1416
   63loPI   C3B 1007  13.067   4.296   8.596 -0.1224  0.1191 -0.1790
   63loPI   C4B 1008  13.115   4.237   8.201 -0.0552  0.3427 -0.3258
   64loPI    C1 1009   1.592  10.781  11.240  0.1050 -0.0895  0.1843
   64loPI    C2 1010   1.659  11.119  11.444  0.0968 -0.0988  0.2023
   64loPI    C3 1011   1.500  10.801  11.628  0.0646 -0.0984  0.1753
   64loPI   PO4 1012   1.538  10.834  11.050  0.1727  0.0130  0.4053
   64loPI   GL1 1013   1.443  10.703  10.618 -0.0822 -0.0251 -0.0871
   64loPI   GL2 1014   1.171  10.662  10.516 -0.2285  0.2432 -0.0798
   64loPI   C1A 1015   1.586  10.719  10.239 -0.1395  0.0283 -0.0026
   64loPI   C2A 1016   1.527  10.666   9.892 -0.0737  0.0956  0.3278
   64loPI   C3A 1017   1.507  10.606   9.464  0.1758  0.2018  0.0598
   64loPI   C4A 1018   1.485  10.619   9.041 -0.3039  0.0926 -0.0099
   64loPI   C5A 1019   1.640  10.747   8.582  0.2526 -0.0537  0.2597
   64loPI   C6A 1020   1.625  11.048   8.112 -0.0901 -0.0590 -0.1026
   64loPI   C1B 1021   1.092  10.659  10.066  0.0949  0.4441  0.1978
   64loPI   C2B 1022   1.035  10.567   9.672  0.0885 -0.2959  0.1102
   64loPI   C3B 1023   1.042  10.560   9.213  0.1142  0.0689 -0.1936
   64loPI   C4B 1024   1.101  10.575   8.703 -0.0756 -0.1460 -0.1100
   65loPI    C1 1025  17.864   4.606  10.566 -0.0651  0.1487  0.1970
   65loPI    C2 1026  17.652   4.399  10.296  0.2338 -0.0622  0.1183
   65loPI    C3 1027  17.467   4.652  10.546 -0.0972 -0.1817 -0.0010
   65loPI   PO4 1028  18.057   4.682  10.381 -0.1093  0.0020 -0.2119
   65loPI   GL1 1029  18.177   4.519   9.842 -0.0189 -0.2849  0.0472
   65loPI   GL2 1030  17.915   4.519   9.904  0.0671 -0.1169  0.0477
   65loPI   C1A 1031  18.402   4.470   9.433  0.0136  0.0077 -0.0400
   65loPI   C2A 1032  18.412   4.350   8.979 -0.1744  0.0677  0.1762
   65loPI   C3A 1033  18.477   4.039   8.737 -0.2320 -0.6327 -0.0218
   65loPI   C4A 1034  18.775   3.943   8.411  0.0684  0.0154  0.2260
   65loPI   C5A 1035  19.079   3.923   8.036  0.1347  0.2954  0.0894
   65loPI   C6A 1036  19.347   3.917   7.733 -0.2099 -0.1124 -0.1290
   65loPI   C1B 1037  17.809   4.469   9.541  0.3290 -0.0606 -0.0553
   65loPI   C2B 1038  17.839   4.548   9.161  0.0988  0.0117  0.1211
   65loPI   C3B 1039  18.024   4.505   8.703 -0.2487  0.4056 -0.1098
   65loPI   C4B 1040  17.880   4.634   8.377 -0.0824  0.3487  0.2219
   66loPI    C1 1041  16.844  13.463  10.835 -0.0246  0.0418  0.0724
   66loPI    C2 1042  16.474  13.350  10.937  0.0384  0.0364  0.2991
   66loPI    C3 1043  16.783  13.265  11.177  0.1438  0.3224  0.2692
   66loPI   PO4 1044  16.744  13.731  10.721  0.1690  0.1099  0.2076
   66loPI   GL1 1045  16.678  13.890  10.269 -0.0499 -0.2126  0.0012
   66loPI   GL2 1046  17.030  13.672   9.973 -0.1717 -0.3061 -0.1464
   66loPI   C1A 1047  16.596  13.977   9.767 -0.0400  0.0015 -0.3626
   66loPI   C2A 1048  16.496  14.194   9.475  0.3257 -0.0239  0.1264
   66loPI   C3A 1049  16.223  14.255   9.154 -0.1660  0.1503 -0.1442
   66loPI   C4A 1050  15.962  14.209   8.826  0.0216 -0.4567  0.3282
   66loPI   C5A 1051  15.765  14.135   8.383 -0.0570 -0.1723 -0.0999
   66loPI   C6A 1052  15.728  14.227   7.983  0.4217 -0.4039  0.4004
   66loPI   C1B 1053  17.021  13.334   9.661 -0.3273 -0.0627  0.0079
   66loPI   C2B 1054  16.894  13.319   9.257  0.0971 -0.1211  0.0003
   66loPI   C3B 1055  16.924  13.504   8.883 -0.3899 -0.2178 -0.3293
   66loPI   C4B 1056  16.850  13.891   8.461 -0.4930  0.1575  0.1519
   67loPI    C1 1057   7.943  14.136  11.010  0.0270 -0.0400  0.2097
   67loPI    C2 1058   8.194  14.029  11.303  0.1397  0.0588  0.1504
   67loPI    C3 1059   7.815  14.125  11.389  0.0931 -0.1885  0.2284
   67loPI   PO4 1060   7.908  13.987  10.843 -0.1838  0.1699  0.1442
   67loPI   GL1 1061   8.000  13.601  10.547 -0.1730 -0.0807 -0.3254
   67loPI   GL2 1062   7.768  13.829  10.342  0.3734 -0.0588 -0.1405
   67loPI   C1A 1063   8.173  13.593  10.104 -0.0433  0.0177 -0.0710
   67loPI   C2A 1064   8.243  13.700   9.710 -0.0350  0.2305 -0.0407
   67loPI   C3A 1065   8.136  13.548   9.273  0.0264 -0.2461  0.3422
   67loPI   C4A 1066   8.187  13.602   8.850  0.1471  0.0912  0.0606
   67loPI   C5A 1067   8.198  13.532   8.419  0.1734 -0.2938 -0.1173
   67loPI   C6A 1068   8.256  13.760   8.085  0.0408  0.0014 -0.1204
   67loPI   C1B 1069   7.780  13.743   9.903 -0.1957  0.2191 -0.0229
   67loPI   C2B 1070   7.637  13.621   9.490 -0.5128 -0.0119 -0.1053
   67loPI   C3B 1071   7.671  13.575   9.083  0.0379 -0.2881  0.3065
   67loPI   C4B 1072   7.708  13.527   8.682  0.0029 -0.3875  0.0048
   68loPI    C1 1073   4.691  11.711  10.979  0.2627  0.0037  0.2748
   68loPI    C2 1074   4.453  11.397  10.913  0.2035  0.0814  0.1130
   68loPI    C3 1075   4.619  11.450  11.273  0.0228 -0.0052  0.2100
   68loPI   PO4 1076   4.685  11.812  10.687 -0.2416  0.2741 -0.1177
   68loPI   GL1 1077   4.425  11.595  10.370 -0.0623  0.2415 -0.0353
   68loPI   GL2 1078   4.218  11.457  10.403 -0.0931  0.1737 -0.2898
   68loPI   C1A 1079   4.323  11.545   9.929 -0.0076  0.0879 -0.3235
   68loPI   C2A 1080   4.278  11.481   9.514  0.0600  0.0339 -0.0164
   68loPI   C3A 1081   4.201  11.390   9.095  0.1015  0.0605  0.0373
   68loPI   C4A 1082   4.322  11.476   8.781  0.3152  0.3173 -0.1996
   68loPI   C5A 1083   4.182  11.532   8.438 -0.2221 -0.3021 -0.1704
   68loPI   C6A 1084   3.954  11.921   8.331  0.0867  0.1684 -0.0950
   68loPI   C1B 1085   4.077  11.894  10.144 -0.1517  0.0856  0.1834
   68loPI   C2B 1086   3.980  11.963   9.697  0.1032 -0.2144 -0.0576
   68loPI   C3B 1087   3.947  11.902   9.225 -0.1959 -0.0134  0.0824
   68loPI   C4B 1088   4.032  11.893   8.784 -0.2051  0.2417  0.0646
   69loPI    C1 1089   8.900  17.480  10.585 -0.2776 -0.1515  0.0287
   69loPI    C2 1090   8.609  17.743  10.662 -0.1480 -0.0074  0.0308
   69loPI    C3 1091   8.532  17.351  10.676 -0.3555  0.0299 -0.0237
   69loPI   PO4 1092   8.987  17.583  10.314 -0.0897  0.0854 -0.2060
   69loPI   GL1 1093   8.861  17.428   9.908 -0.0009 -0.1076  0.1822
   69loPI   GL2 1094   8.893  17.737   9.757 -0.0078 -0.0417  0.0537
   69loPI   C1A 1095   8.742  17.348   9.425  0.2057  0.3405  0.2217
   69loPI   C2A 1096   8.746  17.359   8.977  0.0088  0.2950  0.1304
   69loPI   C3A 1097   8.756  17.231   8.589 -0.2813 -0.1778 -0.2036
   69loPI   C4A 1098   8.739  17.398   8.266  0.1396  0.2160  0.0587
   69loPI   C5A 1099   8.837  17.639   7.905  0.1248  0.1565 -0.0077
   69loPI   C6A 1100   9.096  17.903   7.772 -0.0581 -0.0349  0.0151
   69loPI   C1B 1101   9.228  17.932   9.570 -0.1658 -0.1511  0.1261
   69loPI   C2B 1102   9.310  18.051   9.126 -0.1288  0.5299 -0.3509
   69loPI   C3B 1103   9.414  18.036   8.669 -0.0895 -0.1165 -0.0381
   69loPI   C4B 1104   9.559  17.732   8.390  0.2087 -0.2108  0.1853
   70loPI    C1 1105  15.835  14.812  11.009  0.1517  0.0998 -0.0406
   70loPI    C2 1106  15.663  14.670  10.677  0.1560  0.1655 -0.0709
   70loPI    C3 1107  15.439  14.755  10.997  0.1820 -0.1363  0.0307
   70loPI   PO4 1108  15.996  15.023  10.889  0.1104  0.0400 -0.2368
   70loPI   GL1 1109  15.985  15.041  10.381 -0.0494  0.0023 -0.1094
   70loPI   GL2 1110  15.671  15.064  10.390  0.2137 -0.0152 -0.0177
   70loPI   C1A 1111  16.088  14.851   9.924  0.1299 -0.3922 -0.2040
   70loPI   C2A 1112  16.093  14.737   9.439  0.0201  0.1476  0.0349
   70loPI   C3A 1113  16.041  14.736   9.076  0.0546 -0.0545 -0.1646
   70loPI   C4A 1114  16.220  14.669   8.647 -0.3541  0.2132  0.1590
   70loPI   C5A 1115  16.044  14.551   8.315 -0.1184 -0.2072 -0.3196
   70loPI   C6A 1116  16.163  14.518   7.858 -0.1665  0.0769  0.0388
   70loPI   C1B 1117  15.631  14.979  10.023 -0.0148 -0.0540 -0.0305
   70loPI   C2B 1118  15.541  15.006   9.531 -0.0216  0.1391 -0.1038
   70loPI   C3B 1119  15.555  14.892   9.137  0.0365 -0.0067 -0.1484
   70loPI   C4B 1120  15.698  14.862   8.735 -0.0079  0.1958  0.0088
   71loPI    C1 1121  15.783   5.263  10.604 -0.0164  0.1964 -0.0677
   71loPI    C2 1122  15.801   5.536  10.896 -0.2387 -0.0042  0.1382
   71loPI    C3 1123  15.446   5.414  10.758 -0.1406 -0.1656  0.0249
   71loPI   PO4 1124  15.972   5.298  10.454  0.2104  0.0240  0.1778
   71loPI   GL1 1125  16.051   5.220  10.003  0.2181 -0.1021  0.2863
   71loPI   GL2 1126  16.267   5.525   9.982  0.1864 -0.0518  0.0199
   71loPI   C1A 1127  16.076   5.242   9.558  0.2259  0.0460 -0.0344
   71loPI   C2A 1128  16.176   5.237   9.082  0.1120  0.2438 -0.3816
   71loPI   C3A 1129  16.094   5.336   8.712  0.0444 -0.3273  0.1701
   71loPI   C4A 1130  16.132   5.195   8.198 -0.1399 -0.2963 -0.0270
   71loPI   C5A 1131  15.939   5.166   7.843 -0.0579 -0.1195 -0.1580
   71loPI   C6A 1132  15.725   5.371   7.495  0.1690  0.0724  0.0362
   71loPI   C1B 1133  16.493   5.630   9.674  0.2142 -0.0948  0.1955
   71loPI   C2B 1134  16.429   5.718   9.259  0.1526  0.0272  0.1942
   71loPI   C3B 1135  16.354   5.713   8.756 -0.1489 -0.0147  0.1125
   71loPI   C4B 1136  16.479   5.875   8.347  0.2284  0.0637 -0.0924
   72loPI    C1 1137   0.185   6.916  10.692 -0.0457  0.1952 -0.1881
   72loPI    C2 1138   0.172   7.305  10.785 -0.1549  0.1541 -0.0278
   72loPI    C3 1139   0.041   7.032  11.046  0.0828 -0.0026 -0.0692
   72loPI   PO4 1140   0.196   6.906  10.462  0.0003 -0.0234  0.0389
   72loPI   GL1 1141   0.368   6.978  10.037  0.1020  0.0914 -0.1276
   72loPI   GL2 1142   0.342   7.333  10.096  0.0997  0.1816 -0.2163
   72loPI   C1A 1143   0.334   6.786   9.631  0.2431 -0.3400 -0.1328
   72loPI   C2A 1144   0.280   6.915   9.267 -0.0093  0.1141 -0.0535
   72loPI   C3A 1145   0.298   6.880   8.803  0.2475  0.2582  0.1273
   72loPI   C4A 1146   0.372   6.932   8.390 -0.0232  0.3740 -0.0526
   72loPI   C5A 1147   0.494   7.073   7.932 -0.1563  0.0128 -0.1203
   72loPI   C6A 1148   0.721   6.930   7.602 -0.0004  0.1036  0.2102
   72loPI   C1B 1149   0.494   7.349   9.645 -0.0397 -0.0922 -0.1283
   72loPI   C2B 1150   0.496   7.397   9.286 -0.2256  0.1158 -0.0111
   72loPI   C3B 1151   0.523   7.373   8.804 -0.0363  0.2004 -0.1845
   72loPI   C4B 1152   0.613   7.451   8.357 -0.3877  0.0770 -0.0804
   73loPI    C1 1153   9.051  14.185  11.206 -0.1597 -0.0342  0.1393
   73loPI    C2 1154   9.176  13.838  11.360  0.0584 -0.0833 -0.1405
   73loPI    C3 1155   9.307  14.183  11.514 -0.2411 -0.1184  0.2072
   73loPI   PO4 1156   8.979  14.064  10.908  0.0524 -0.0856  0.1192
   73loPI   GL1 1157   8.995  13.956  10.401  0.1724 -0.2049  0.1129
   73loPI   GL2 1158   9.015  14.258  10.360 -0.0223  0.2616  0.2161
   73loPI   C1A 1159   8.728  13.825  10.006 -0.0297  0.1023  0.2203
   73loPI   C2A 1160   8.752  13.741   9.642 -0.1991 -0.1104  0.1085
   73loPI   C3A 1161   8.628  13.687   9.265  0.2314 -0.2747  0.1672
   73loPI   C4A 1162   8.675  13.607   8.801 -0.0309  0.2095 -0.2573
   73loPI   C5A 1163   8.675  13.649   8.254  0.1708 -0.0851  0.2207
   73loPI   C6A 1164   8.721  13.906   7.832 -0.1218 -0.0480 -0.2237
   73loPI   C1B 1165   9.075  14.170   9.956 -0.0270  0.0950  0.0741
   73loPI   C2B 1166   8.968  14.228   9.468  0.1300 -0.0441 -0.2267
   73loPI   C3B 1167   8.908  14.069   9.075  0.1405 -0.1857  0.1361
   73loPI   C4B 1168   8.859  13.981   8.642 -0.1852  0.0422  0.0067
   74loPI    C1 1169  11.454   4.797  10.089 -0.1737  0.0676 -0.0443
   74loPI    C2 1170  11.817   4.906   9.964 -0.1892 -0.2028 -0.3381
   74loPI    C3 1171  11.497   5.124   9.863 -0.1187  0.0020 -0.1292
   74loPI   PO4 1172  11.455   4.569  10.019  0.2064  0.1832 -0.2410
   74loPI   GL1 1173  11.365   4.534   9.578  0.1207  0.0919 -0.0760
   74loPI   GL2 1174  11.500   4.749   9.515 -0.3621 -0.2347 -0.3043
   74loPI   C1A 1175  11.118   4.498   9.226 -0.0068 -0.1771 -0.0591
   74loPI   C2A 1176  10.989   4.481   8.741 -0.0344 -0.3289  0.1895
   74loPI   C3A 1177  11.091   4.534   8.267  0.2096  0.2268 -0.0347
   74loPI   C4A 1178  11.184   4.623   7.833  0.0017  0.0271  0.0225
   74loPI   C5A 1179  11.316   4.619   7.401 -0.0784 -0.2407  0.0944
   74loPI   C6A 1180  11.579   4.618   6.971  0.1986 -0.4592  0.2274
   74loPI   C1B 1181  11.580   4.449   9.174  0.1600 -0.0628  0.1612
   74loPI   C2B 1182  11.511   4.443   8.724 -0.0713  0.1653  0.1596
   74loPI   C3B 1183  11.684   4.579   8.180  0.2853 -0.2050  0.0706
   74loPI   C4B 1184  11.672   4.477   7.691 -0.0422  0.0141  0.0729
   75loPI    C1 1185   9.284  18.537  10.408 -0.1437 -0.0866  0.0763
   75loPI    C2 1186   9.107  18.891  10.466 -0.2848 -0.1329 -0.0634
   75loPI    C3 1187   9.013  18.579  10.698 -0.0882 -0.0557  0.1238
   75loPI   PO4 1188   9.324  18.518  10.126 -0.0956 -0.1809  0.0944
   75loPI   GL1 1189   9.155  18.666   9.759  0.0769 -0.0512  0.1135
   75loPI   GL2 1190   8.860  18.704   9.736  0.4116 -0.3105 -0.1361
   75loPI   C1A 1191   9.093  18.498   9.338  0.0593  0.0839  0.2335
   75loPI   C2A 1192   9.093  18.459   8.868  0.1560  0.0246  0.0707
   75loPI   C3A 1193   9.244  18.504   8.508  0.0867 -0.5839 -0.2302
   75loPI   C4A 1194   9.528  18.613   8.167 -0.1216 -0.0457  0.0025
   75loPI   C5A 1195   9.915  18.619   7.867 -0.2314 -0.4009 -0.0017
   75loPI   C6A 1196  10.331  18.492   7.698  0.1695  0.0188 -0.1590
   75loPI   C1B 1197   8.845  18.226   9.634 -0.0837 -0.3037 -0.4898
   75loPI   C2B 1198   8.812  18.091   9.155 -0.0920 -0.2042 -0.1977
   75loPI   C3B 1199   8.937  17.822   8.763 -0.2253 -0.2350  0.0876
   75loPI   C4B 1200   9.031  17.819   8.387  0.1628 -0.2504  0.0065
   76loPI    C1 1201  13.591   4.146  10.183  0.0567 -0.1015 -0.0038
   76loPI    C2 1202  13.692   4.303   9.829  0.0147  0.2537  0.1376
   76loPI    C3 1203  13.919   4.372  10.151 -0.0033  0.0178  0.2028
   76loPI   PO4 1204  13.473   3.924  10.169  0.1496 -0.1385  0.0266
   76loPI   GL1 1205  13.470   3.750   9.878 -0.0368 -0.2553  0.0944
   76loPI   GL2 1206  13.878   3.780   9.874 -0.0286  0.3000 -0.0111
   76loPI   C1A 1207  13.420   3.426   9.575  0.0089  0.0386  0.1783
   76loPI   C2A 1208  13.454   3.388   9.082  0.0430  0.1395  0.3107
   76loPI   C3A 1209  13.499   3.361   8.637 -0.1902 -0.2118 -0.0775
   76loPI   C4A 1210  13.395   3.281   8.199 -0.1272  0.0025 -0.0316
   76loPI   C5A 1211  13.568   3.443   7.916 -0.0455  0.0205 -0.3650
   76loPI   C6A 1212  13.734   3.863   7.782 -0.2346  0.0041  0.0823
   76loPI   C1B 1213  13.729   3.886   9.455  0.0546  0.1297 -0.0106
   76loPI   C2B 1214  13.783   3.846   9.092  0.0944 -0.0112 -0.0703
   76loPI   C3B 1215  13.762   3.793   8.762 -0.1656 -0.1090  0.2216
   76loPI   C4B 1216  13.828   3.756   8.239 -0.0793 -0.2106  0.0374
   77loPI    C1 1217   1.875  11.174  10.930 -0.2031  0.1103  0.0259
   77loPI    C2 1218   1.908  10.821  10.746 -0.1969  0.1036  0.0400
   77loPI    C3 1219   2.076  10.876  11.104 -0.0430  0.1769 -0.0426
   77loPI   PO4 1220   1.699  11.286  10.774 -0.1612 -0.1851 -0.0929
   77loPI   GL1 1221   1.338  11.272  10.492 -0.0120  0.1167 -0.1838
   77loPI   GL2 1222   1.336  11.627  10.400  0.1863 -0.2868 -0.1490
   77loPI   C1A 1223   1.293  11.169  10.106 -0.0197 -0.1353  0.2320
   77loPI   C2A 1224   1.279  11.074   9.664  0.2053  0.0111  0.3279
   77loPI   C3A 1225   1.374  11.087   9.262  0.0809  0.1992 -0.1669
   77loPI   C4A 1226   1.214  11.042   8.899 -0.1404  0.2862 -0.0168
   77loPI   C5A 1227   1.208  11.147   8.423 -0.0622  0.3036 -0.3891
   77loPI   C6A 1228   1.275  11.461   8.005  0.3021 -0.0570 -0.1178
   77loPI   C1B 1229   1.515  11.604   9.981  0.0267 -0.0142 -0.0640
   77loPI   C2B 1230   1.463  11.566   9.516  0.2293  0.1395 -0.0401
   77loPI   C3B 1231   1.446  11.556   9.027  0.1823  0.0685 -0.0211
   77loPI   C4B 1232   1.333  11.622   8.560  0.0229 -0.4170  0.5443
   78loPI    C1 1233   1.438   0.978  10.351 -0.1500  0.0200 -0.0635
   78loPI    C2 1234   1.595   0.619  10.434  0.0054  0.0814 -0.0895
   78loPI    C3 1235   1.612   0.913  10.705 -0.2243  0.0361 -0.0237
   78loPI   PO4 1236   1.643   1.098  10.183 -0.1214  0.1831 -0.1009
   78loPI   GL1 1237   2.043   1.033   9.937 -0.0609 -0.0919 -0.1854
   78loPI   GL2 1238   1.871   0.736   9.952  0.1494 -0.0230  0.2812
   78loPI   C1A 1239   2.035   1.181   9.535 -0.0952  0.3481  0.4677
   78loPI   C2A 1240   1.895   0.950   9.197  0.0262 -0.1417 -0.1629
   78loPI   C3A 1241   1.947   0.757   8.764 -0.0503 -0.1477  0.0048
   78loPI   C4A 1242   1.735   0.940   8.519 -0.0325 -0.1762  0.4154
   78loPI   C5A 1243   1.635   1.263   8.327 -0.0040  0.0739  0.1591
   78loPI   C6A 1244   1.392   1.594   8.198  0.2754 -0.2561  0.1788
   78loPI   C1B 1245   1.834   0.556   9.537 -0.0275  0.1126 -0.1151
   78loPI   C2B 1246   1.566   0.515   9.166  0.1867 -0.0861  0.1276
   78loPI   C3B 1247   1.169   0.509   9.130  0.1640  0.0266 -0.1123
   78loPI   C4B 1248   1.019   0.508   8.740 -0.1979  0.0876 -0.1651
   79loPI    C1 1249  13.899   2.061  10.037 -0.0709 -0.0951 -0.0378
   79loPI    C2 1250  13.785   2.439  10.100  0.1834 -0.0419  0.1191
   79loPI    C3 1251  13.608   2.141  10.300 -0.0312 -0.0100 -0.0196
   79loPI   PO4 1252  14.268   2.054  10.046 -0.2389 -0.0590 -0.2943
   79loPI   GL1 1253  14.409   2.025   9.625 -0.2067  0.3881  0.0169
   79loPI   GL2 1254  14.632   1.806   9.523  0.1160 -0.1645  0.2505
   79loPI   C1A 1255  14.201   2.109   9.263 -0.1953  0.1173 -0.0364
   79loPI   C2A 1256  14.060   1.950   8.926 -0.1420 -0.0580 -0.0192
   79loPI   C3A 1257  14.153   1.970   8.494  0.0944 -0.4510 -0.0513
   79loPI   C4A 1258  14.098   2.131   8.058  0.2690  0.0713  0.2347
   79loPI   C5A 1259  14.193   1.808   7.753 -0.0006  0.0395  0.2715
   79loPI   C6A 1260  14.440   1.664   7.389 -0.2305  0.0106 -0.1148
   79loPI   C1B 1261  14.652   1.917   9.116 -0.1642  0.2302  0.1664
   79loPI   C2B 1262  14.583   2.006   8.669 -0.2515 -0.1065 -0.0533
   79loPI   C3B 1263  14.673   1.963   8.237  0.2138  0.0156  0.2379
   79loPI   C4B 1264  14.665   1.830   7.828  0.3037  0.2131  0.0271
   80loPI    C1 1265  16.302   5.631  10.629  0.1517  0.3093 -0.0219
   80loPI    C2 1266  16.611   5.759  10.848  0.2232  0.0088  0.0571
   80loPI    C3 1267  16.286   5.610  11.028  0.1698  0.0136 -0.0348
   80loPI   PO4 1268  16.285   5.784  10.444  0.0110  0.0349 -0.2334
   80loPI   GL1 1269  16.500   5.976  10.041  0.1283 -0.1562 -0.2863
   80loPI   GL2 1270  16.854   5.879   9.983 -0.2265 -0.1478 -0.4649
   80loPI   C1A 1271  16.187   6.115   9.766 -0.3860  0.2926 -0.3900
   80loPI   C2A 1272  16.145   6.199   9.329  0.0493  0.0484  0.0214
   80loPI   C3A 1273  16.096   6.156   8.934 -0.0539  0.0485  0.0725
   80loPI   C4A 1274  16.112   6.113   8.577 -0.2101 -0.2099  0.3486
   80loPI   C5A 1275  16.003   6.016   8.183  0.0501  0.1056  0.1910
   80loPI   C6A 1276  16.126   5.649   7.995 -0.0064 -0.0197 -0.2345
   80loPI   C1B 1277  17.016   5.846   9.558 -0.2197  0.0409  0.1297
   80loPI   C2B 1278  16.923   5.745   9.258  0.2365  0.2678 -0.2116
   80loPI   C3B 1279  16.805   5.782   8.895 -0.0824  0.2225  0.2147
   80loPI   C4B 1280  16.925   5.836   8.525 -0.1300  0.2550  0.2821
   81loPI    C1 1281   1.698  12.848  10.931 -0.0459 -0.0211  0.1858
   81loPI    C2 1282   1.898  12.548  10.757 -0.1592 -0.0443  0.0944
   81loPI    C3 1283   2.095  12.871  10.888 -0.0480 -0.1188  0.1118
   81loPI   PO4 1284   1.432  12.923  10.716  0.0383  0.0520 -0.0619
   81loPI   GL1 1285   1.341  12.825  10.458  0.1341  0.3396  0.1473
   81loPI   GL2 1286   1.091  12.702  10.285  0.2307  0.0555  0.3919
   81loPI   C1A 1287   1.540  12.873   9.998 -0.1877  0.0404 -0.1108
   81loPI   C2A 1288   1.441  12.910   9.625  0.0852  0.0236  0.2031
   81loPI   C3A 1289   1.549  12.999   9.195 -0.0307 -0.1786 -0.0260
   81loPI   C4A 1290   1.469  12.909   8.739 -0.0748  0.0694 -0.1633
   81loPI   C5A 1291   1.437  12.829   8.343 -0.4158 -0.0118 -0.0272
   81loPI   C6A 1292   1.259  12.406   8.200 -0.1364 -0.2916 -0.0958
   81loPI   C1B 1293   1.343  12.420   9.905 -0.1009  0.0681 -0.0582
   81loPI   C2B 1294   1.340  12.447   9.463  0.1597  0.0594 -0.1473
   81loPI   C3B 1295   1.319  12.533   9.102 -0.2895  0.2108  0.3906
   81loPI   C4B 1296   1.295  12.435   8.663  0.0824  0.0795 -0.1963
   82loPI    C1 1297   8.440   3.707  10.304  0.1274  0.1057 -0.2180
   82loPI    C2 1298   8.706   3.919  10.514 -0.0263  0.1204 -0.0365
   82loPI    C3 1299   8.640   3.535  10.604  0.0234  0.0822 -0.1618
   82loPI   PO4 1300   8.468   3.721  10.075  0.2460  0.1010 -0.1409
   82loPI   GL1 1301   8.167   3.823   9.819 -0.0445 -0.0789 -0.3672
   82loPI   GL2 1302   8.285   3.993   9.613  0.1042 -0.1805  0.2432
   82loPI   C1A 1303   8.015   3.557   9.529 -0.0481  0.2554  0.1120
   82loPI   C2A 1304   7.805   3.573   9.054 -0.1084  0.0916  0.0079
   82loPI   C3A 1305   7.669   3.564   8.628 -0.1781 -0.1343 -0.1813
   82loPI   C4A 1306   7.561   3.761   8.305  0.0301  0.2027  0.1400
   82loPI   C5A 1307   7.561   3.573   7.935  0.0069  0.0419  0.3417
   82loPI   C6A 1308   7.670   3.395   7.571 -0.3499 -0.0098  0.1143
   82loPI   C1B 1309   8.203   3.956   9.155  0.0162 -0.2510  0.0038
   82loPI   C2B 1310   8.101   3.923   8.647  0.1415  0.3569 -0.1806
   82loPI   C3B 1311   7.956   4.019   8.251 -0.0901  0.0882  0.2285
   82loPI   C4B 1312   7.792   4.110   7.874 -0.2346  0.1075 -0.0790
   83loPI    C1 1313  12.740  12.184  10.963 -0.0670 -0.2313  0.1864
   83loPI    C2 1314  13.100  12.014  10.998 -0.0764 -0.2867  0.0254
   83loPI    C3 1315  12.895  12.118  11.325  0.1509 -0.1154  0.1168
   83loPI   PO4 1316  12.755  12.203  10.694  0.2499 -0.0314 -0.3244
   83loPI   GL1 1317  12.720  12.460  10.358  0.0181  0.2981 -0.0549
   83loPI   GL2 1318  12.522  12.754  10.252  0.1227  0.1394 -0.2309
   83loPI   C1A 1319  12.970  12.288   9.862 -0.0143 -0.1969  0.1094
   83loPI   C2A 1320  12.960  12.177   9.394 -0.2870 -0.0986  0.3386
   83loPI   C3A 1321  12.955  12.264   8.906  0.0538  0.1954 -0.2093
   83loPI   C4A 1322  12.937  12.227   8.471  0.1869 -0.1261  0.0561
   83loPI   C5A 1323  12.905  12.358   8.047 -0.0364  0.0875  0.3240
   83loPI   C6A 1324  13.066  12.589   7.752  0.0201  0.1506 -0.0799
   83loPI   C1B 1325  12.681  12.712   9.744  0.2687 -0.0606  0.2268
   83loPI   C2B 1326  12.661  12.712   9.276 -0.1117  0.0584 -0.0360
   83loPI   C3B 1327  12.671  12.647   8.858 -0.0882  0.1599  0.0324
   83loPI   C4B 1328  12.612  12.692   8.444 -0.0399  0.2052 -0.0832
   84loPI    C1 1329   8.201  11.716  10.576  0.0307  0.0089 -0.2283
   84loPI    C2 1330   8.585  11.631  10.649 -0.0444 -0.1061  0.0475
   84loPI    C3 1331   8.464  12.012  10.631  0.0547 -0.0715  0.1084
   84loPI   PO4 1332   8.126  11.579  10.442  0.3250  0.1285  0.1760
   84loPI   GL1 1333   7.975  11.563  10.032  0.1235 -0.2771 -0.1272
   84loPI   GL2 1334   8.112  11.282   9.937 -0.1972  0.2579  0.2875
   84loPI   C1A 1335   7.864  11.758   9.676 -0.2180 -0.1471  0.0293
   84loPI   C2A 1336   7.827  11.782   9.247  0.1766  0.1979  0.3138
   84loPI   C3A 1337   7.769  11.784   8.847  0.1878 -0.3586 -0.0588
   84loPI   C4A 1338   7.750  11.810   8.404 -0.0886 -0.1512 -0.0821
   84loPI   C5A 1339   7.685  11.972   8.026  0.0890  0.1954 -0.0184
   84loPI   C6A 1340   7.862  12.030   7.694 -0.1549  0.3517  0.0062
   84loPI   C1B 1341   8.111  11.372   9.454 -0.1060 -0.3133  0.0008
   84loPI   C2B 1342   8.134  11.365   8.967 -0.0823  0.0177 -0.0567
   84loPI   C3B 1343   8.012  11.389   8.502 -0.2353 -0.3158  0.3667
   84loPI   C4B 1344   8.083  11.626   8.076  0.0609 -0.1198  0.1470
   85loPI    C1 1345   2.764  13.650  10.832 -0.0509  0.0671  0.0595
   85loPI    C2 1346   2.925  13.995  10.708  0.0783  0.0020  0.0437
   85loPI    C3 1347   3.046  13.830  11.051 -0.0572  0.0244  0.1030
   85loPI   PO4 1348   2.677  13.548  10.662  0.0854 -0.0726 -0.0915
   85loPI   GL1 1349   2.694  13.724  10.258  0.1275  0.0519 -0.2943
   85loPI   GL2 1350   2.380  13.680  10.238  0.6460  0.1092 -0.0082
   85loPI   C1A 1351   2.705  13.629   9.797  0.0927 -0.0432 -0.2867
   85loPI   C2A 1352   2.707  13.583   9.357 -0.2486  0.1278  0.0484
   85loPI   C3A 1353   2.779  13.624   8.956 -0.1203  0.0921  0.0088
   85loPI   C4A 1354   2.801  13.532   8.586  0.3643 -0.2640 -0.1450
   85loPI   C5A 1355   2.936  13.679   8.177  0.0748 -0.0064 -0.0140
   85loPI   C6A 1356   3.020  13.576   7.693 -0.2262  0.1263 -0.0200
   85loPI   C1B 1357   2.233  13.578   9.844  0.0289 -0.1464 -0.1726
   85loPI   C2B 1358   2.147  13.544   9.494 -0.1812  0.4003  0.0863
   85loPI   C3B 1359   2.279  13.456   9.037 -0.0751  0.0658  0.2096
   85loPI   C4B 1360   2.187  13.501   8.655 -0.3138 -0.0064 -0.1465
   86loPI    C1 1361  18.331  15.342  10.747 -0.0053 -0.1829 -0.0879
   86loPI    C2 1362  18.053  15.213  11.005  0.0462  0.1002  0.1145
   86loPI    C3 1363  18.441  15.172  11.092  0.0638  0.2158  0.0912
   86loPI   PO4 1364  18.178  15.259  10.498 -0.2086  0.0001  0.3208
   86loPI   GL1 1365  18.136  15.447  10.009 -0.2467 -0.3313  0.0134
   86loPI   GL2 1366  18.271  15.682   9.917 -0.0325  0.2616  0.1012
   86loPI   C1A 1367  17.980  15.114   9.660  0.0516  0.1037  0.0109
   86loPI   C2A 1368  18.008  14.970   9.226 -0.0327  0.1737  0.0042
   86loPI   C3A 1369  18.043  15.090   8.815 -0.0755 -0.1837  0.1209
   86loPI   C4A 1370  17.984  14.940   8.356  0.1634 -0.1917  0.1773
   86loPI   C5A 1371  18.296  14.873   8.070  0.1738  0.1929 -0.3198
   86loPI   C6A 1372  18.568  14.734   7.684  0.0392 -0.0388  0.0397
   86loPI   C1B 1373  18.234  15.612   9.404 -0.1898 -0.1223 -0.0565
   86loPI   C2B 1374  18.261  15.674   9.005 -0.0486  0.0349  0.1411
   86loPI   C3B 1375  18.367  15.560   8.609 -0.2447  0.2649 -0.2433
   86loPI   C4B 1376  18.101  15.623   8.239 -0.2141 -0.3562 -0.0327
   87loPI    C1 1377  10.484   1.653  10.194  0.2019  0.0339  0.0462
   87loPI    C2 1378  10.655   1.954  10.394 -0.0478  0.1931  0.0231
   87loPI    C3 1379  10.330   1.773  10.543 -0.1923  0.2647 -0.1998
   87loPI   PO4 1380  10.461   1.706   9.961 -0.2638  0.1386  0.0999
   87loPI   GL1 1381  10.221   1.721   9.645  0.1089  0.0170 -0.2037
   87loPI   GL2 1382   9.911   1.577   9.562 -0.0892 -0.3443 -0.0049
   87loPI   C1A 1383  10.348   1.794   9.329  0.0707  0.0595  0.0944
   87loPI   C2A 1384  10.572   1.828   8.956 -0.1400 -0.0627  0.1592
   87loPI   C3A 1385  10.701   1.854   8.566 -0.0565 -0.1355  0.0727
   87loPI   C4A 1386  10.616   1.716   8.177 -0.0677 -0.1736 -0.1694
   87loPI   C5A 1387  10.440   2.080   7.922  0.0540 -0.0600  0.1606
   87loPI   C6A 1388  10.443   2.253   7.575  0.1927 -0.4071 -0.1267
   87loPI   C1B 1389   9.883   1.260   9.228  0.1835  0.1981  0.4003
   87loPI   C2B 1390   9.830   1.331   8.791 -0.0548 -0.1178 -0.1274
   87loPI   C3B 1391   9.899   1.410   8.382  0.2677  0.0179 -0.2124
   87loPI   C4B 1392   9.583   1.475   8.075  0.1042  0.1540 -0.0948
   88loPI    C1 1393   5.018   6.029  10.193 -0.0368  0.1862 -0.2117
   88loPI    C2 1394   5.098   6.413  10.114 -0.1382  0.2646  0.0575
   88loPI    C3 1395   5.135   6.274  10.487  0.1175 -0.0435 -0.0786
   88loPI   PO4 1396   4.814   5.890  10.140  0.0725 -0.0019 -0.0816
   88loPI   GL1 1397   4.852   5.665   9.834 -0.0383 -0.0009 -0.1342
   88loPI   GL2 1398   5.071   5.839   9.731  0.2148 -0.1002 -0.1480
   88loPI   C1A 1399   4.849   5.523   9.446 -0.0214 -0.0692 -0.2943
   88loPI   C2A 1400   4.793   5.665   9.036 -0.1762  0.0984  0.0338
   88loPI   C3A 1401   4.777   5.735   8.593  0.0727  0.0820  0.1367
   88loPI   C4A 1402   4.922   5.734   8.120 -0.0540  0.1088  0.1869
   88loPI   C5A 1403   4.803   5.944   7.793  0.1665  0.1617  0.2205
   88loPI   C6A 1404   4.654   5.795   7.397  0.1608 -0.0574 -0.0856
   88loPI   C1B 1405   5.256   5.791   9.368 -0.0250 -0.1975  0.1026
   88loPI   C2B 1406   5.272   5.867   8.880 -0.0614 -0.0878 -0.2022
   88loPI   C3B 1407   5.208   6.040   8.478 -0.1228  0.0088  0.0569
   88loPI   C4B 1408   5.079   6.243   8.078 -0.0784  0.0773 -0.1345
   89loPI    C1 1409   6.984  14.151  10.851  0.1058 -0.2314  0.0058
   89loPI    C2 1410   7.060  14.042  11.228 -0.1152  0.1369  0.1620
   89loPI    C3 1411   6.782  13.847  11.016  0.0519 -0.1097  0.1657
   89loPI   PO4 1412   7.112  14.233  10.700 -0.0701 -0.0196 -0.1166
   89loPI   GL1 1413   7.081  14.114  10.178  0.0959  0.1138 -0.1897
   89loPI   GL2 1414   7.435  14.136  10.129 -0.0351 -0.3456  0.1468
   89loPI   C1A 1415   6.908  14.081   9.847 -0.0921  0.0551 -0.2774
   89loPI   C2A 1416   6.862  13.984   9.386  0.0745  0.1571 -0.0917
   89loPI   C3A 1417   6.882  13.945   8.974  0.1892 -0.3729 -0.0182
   89loPI   C4A 1418   6.930  13.896   8.559 -0.0394  0.2555  0.0731
   89loPI   C5A 1419   7.052  14.006   8.134  0.0970 -0.3881  0.0561
   89loPI   C6A 1420   6.934  13.952   7.748 -0.1230 -0.0333 -0.1414
   89loPI   C1B 1421   7.399  14.121   9.638 -0.2967  0.1917 -0.3359
   89loPI   C2B 1422   7.394  13.997   9.201 -0.1705  0.0053  0.3834
   89loPI   C3B 1423   7.404  14.004   8.797 -0.2514 -0.1293 -0.2022
   89loPI   C4B 1424   7.409  14.145   8.427 -0.2125  0.2647  0.2161
   90loPI    C1 1425   3.629   0.153  10.329 -0.3158  0.2296 -0.0084
   90loPI    C2 1426   3.690   0.485  10.543  0.2341  0.0673  0.1026
   90loPI    C3 1427   3.897   0.153  10.627  0.0552 -0.1605 -0.3285
   90loPI   PO4 1428   3.572   0.169  10.122 -0.0208  0.2893 -0.1223
   90loPI   GL1 1429   3.531   0.340   9.771 -0.0805 -0.1039 -0.0035
   90loPI   GL2 1430   3.691   0.661   9.649  0.3384  0.3276  0.0767
   90loPI   C1A 1431   3.321   0.427   9.373  0.1913 -0.0710 -0.1642
   90loPI   C2A 1432   3.294   0.535   9.041 -0.1032 -0.0095  0.0002
   90loPI   C3A 1433   2.997   0.459   8.701  0.1296  0.3983  0.1743
   90loPI   C4A 1434   2.817   0.616   8.222 -0.1170 -0.1959 -0.0688
   90loPI   C5A 1435   2.922   1.048   7.914 -0.0005  0.0352 -0.2831
   90loPI   C6A 1436   3.237   1.118   7.542  0.0946 -0.0491 -0.0236
   90loPI   C1B 1437   3.844   0.672   9.285  0.0299  0.1272  0.2212
   90loPI   C2B 1438   3.742   0.437   8.873  0.0483  0.1402 -0.0979
   90loPI   C3B 1439   3.471   0.384   8.590  0.3553  0.3298 -0.0220
   90loPI   C4B 1440   3.273   0.387   8.183 -0.1798 -0.1157 -0.1274
   91loPI    C1 1441  11.728   6.583  10.154 -0.0623  0.0018 -0.0235
   91loPI    C2 1442  11.950   6.615  10.485  0.0276 -0.1527 -0.0680
   91loPI    C3 1443  11.703   6.912  10.380  0.0983 -0.0459  0.0649
   91loPI   PO4 1444  11.941   6.478   9.969  0.1347 -0.3711 -0.2813
   91loPI   GL1 1445  11.917   6.236   9.713  0.4179 -0.0677 -0.0769
   91loPI   GL2 1446  11.888   5.883   9.559  0.2240 -0.1365  0.4495
   91loPI   C1A 1447  11.797   6.367   9.327  0.1192 -0.2283  0.1080
   91loPI   C2A 1448  11.608   6.229   8.943  0.2130 -0.0321 -0.1968
   91loPI   C3A 1449  11.380   6.357   8.612  0.1510 -0.0018  0.1377
   91loPI   C4A 1450  11.455   6.328   8.221 -0.0747 -0.2253  0.0311
   91loPI   C5A 1451  11.611   6.336   7.841 -0.0790 -0.1605 -0.0954
   91loPI   C6A 1452  11.452   6.519   7.561  0.3313  0.0750 -0.0251
   91loPI   C1B 1453  12.081   5.982   9.190 -0.2621 -0.1716  0.0948
   91loPI   C2B 1454  12.402   5.904   8.879 -0.0823  0.2465 -0.0901
   91loPI   C3B 1455  12.739   5.840   8.564 -0.3086 -0.1028 -0.1296
   91loPI   C4B 1456  13.032   5.861   8.197 -0.0486  0.0050  0.0063
   92loPI    C1 1457   1.837   1.733  10.517  0.0678 -0.1926 -0.0109
   92loPI    C2 1458   1.753   1.355  10.613  0.2465 -0.1969  0.1343
   92loPI    C3 1459   1.647   1.652  10.859 -0.2612 -0.1131 -0.1712
   92loPI   PO4 1460   1.865   1.724  10.173 -0.2113 -0.2007  0.1090
   92loPI   GL1 1461   1.674   1.435   9.850 -0.3203 -0.3112  0.0629
   92loPI   GL2 1462   1.577   1.128   9.728 -0.2021 -0.3171  0.0462
   92loPI   C1A 1463   1.727   1.524   9.306 -0.2000  0.1421  0.0684
   92loPI   C2A 1464   1.686   1.394   8.923  0.0450  0.3731  0.2184
   92loPI   C3A 1465   1.881   1.608   8.646  0.0021 -0.1339  0.0906
   92loPI   C4A 1466   2.043   1.490   8.284  0.0369 -0.0949  0.2259
   92loPI   C5A 1467   2.203   1.664   7.876  0.1108 -0.0881  0.2407
   92loPI   C6A 1468   2.579   1.934   7.872  0.0337  0.2266 -0.2186
   92loPI   C1B 1469   1.386   1.063   9.334  0.0971  0.1140  0.0134
   92loPI   C2B 1470   1.450   0.942   8.895 -0.0615  0.2222  0.0676
   92loPI   C3B 1471   1.211   0.874   8.467  0.0517  0.1844  0.0694
   92loPI   C4B 1472   1.111   0.872   8.026  0.0118 -0.0028  0.0902
   93loPI    C1 1473  10.274  14.240  10.800  0.0535 -0.1301 -0.0896
   93loPI    C2 1474   9.951  14.028  10.696 -0.0001 -0.0461 -0.0952
   93loPI    C3 1475  10.082  14.020  11.074 -0.0444 -0.0332 -0.0795
   93loPI   PO4 1476  10.404  14.179  10.547  0.1031  0.0615  0.2308
   93loPI   GL1 1477  10.513  14.105  10.198  0.1795 -0.1171  0.2596
   93loPI   GL2 1478  10.591  14.408  10.057 -0.2840 -0.3437 -0.1286
   93loPI   C1A 1479  10.312  13.884   9.810  0.0032  0.0020 -0.3901
   93loPI   C2A 1480  10.200  13.802   9.335  0.1405  0.2643  0.0809
   93loPI   C3A 1481  10.138  13.757   8.897 -0.3723  0.4332 -0.1928
   93loPI   C4A 1482  10.294  13.709   8.549 -0.0425  0.0678  0.0951
   93loPI   C5A 1483  10.364  13.688   8.242  0.1099  0.1212  0.0077
   93loPI   C6A 1484  10.288  13.867   7.890  0.3840  0.2119  0.1963
   93loPI   C1B 1485  10.540  14.326   9.700 -0.1393 -0.1211 -0.0315
   93loPI   C2B 1486  10.454  14.262   9.295 -0.0990  0.3323 -0.0668
   93loPI   C3B 1487  10.497  14.265   8.803  0.0191 -0.1762 -0.0134
   93loPI   C4B 1488  10.435  14.201   8.481 -0.1042 -0.0147 -0.1812
   94loPI    C1 1489  11.145  16.538  10.108  0.2035 -0.0454  0.1894
   94loPI    C2 1490  11.179  16.220  10.348  0.0401  0.0760  0.3775
   94loPI    C3 1491  10.827  16.407  10.313  0.0939  0.1358  0.1379
   94loPI   PO4 1492  11.290  16.540   9.872  0.1002  0.0696  0.0952
   94loPI   GL1 1493  11.521  16.542   9.429 -0.1380  0.0872  0.1511
   94loPI   GL2 1494  11.275  16.370   9.401  0.0453 -0.0198 -0.1691
   94loPI   C1A 1495  11.454  16.618   9.015  0.1070 -0.4906 -0.1255
   94loPI   C2A 1496  11.259  16.937   8.702 -0.0463  0.1680  0.0906
   94loPI   C3A 1497  10.806  17.018   8.530 -0.2483 -0.1052  0.2167
   94loPI   C4A 1498  10.347  17.120   8.754  0.1631 -0.0261  0.0125
   94loPI   C5A 1499  10.005  17.020   8.966 -0.1153 -0.1671  0.2225
   94loPI   C6A 1500   9.594  17.039   9.110  0.0648  0.2121  0.0926
   94loPI   C1B 1501  11.212  16.042   9.138  0.2409  0.2313  0.0497
   94loPI   C2B 1502  10.874  16.051   8.741 -0.0650 -0.0057 -0.3201
   94loPI   C3B 1503  10.812  16.088   8.373 -0.1946 -0.4007 -0.1198
   94loPI   C4B 1504  10.656  15.984   7.918 -0.2044 -0.1096 -0.0009
   95loPI    C1 1505   8.578   0.855  10.005  0.0007 -0.1002  0.2513
   95loPI    C2 1506   8.887   0.843  10.259  0.2999 -0.1874 -0.1077
   95loPI    C3 1507   8.691   0.507  10.167  0.0221 -0.1156  0.2035
   95loPI   PO4 1508   8.688   1.089   9.783  0.0156  0.1414 -0.1881
   95loPI   GL1 1509   8.500   1.300   9.529  0.0836  0.0752 -0.0163
   95loPI   GL2 1510   8.688   1.545   9.442 -0.2173  0.1363  0.0842
   95loPI   C1A 1511   8.561   1.240   9.031  0.0305 -0.0366 -0.2441
   95loPI   C2A 1512   8.584   1.106   8.611 -0.1613 -0.0341 -0.1461
   95loPI   C3A 1513   8.386   1.047   8.149  0.3163 -0.0050 -0.2034
   95loPI   C4A 1514   8.482   1.376   7.835  0.1177 -0.0001  0.2273
   95loPI   C5A 1515   8.331   1.719   7.607  0.1195  0.1590 -0.4536
   95loPI   C6A 1516   8.312   2.189   7.568 -0.2885  0.2456  0.1015
   95loPI   C1B 1517   8.738   1.734   9.119 -0.1721  0.1307  0.0524
   95loPI   C2B 1518   8.857   1.856   8.686  0.1027 -0.0614  0.2705
   95loPI   C3B 1519   9.059   1.906   8.292  0.0167  0.0775  0.1386
   95loPI   C4B 1520   9.062   2.051   7.781 -0.2751  0.0262  0.2424
   96loPI    C1 1521  10.502  15.360  10.461  0.1227 -0.0702 -0.1116
   96loPI    C2 1522  10.615  15.217  10.817  0.0947  0.1658 -0.0061
   96loPI    C3 1523  10.236  15.330  10.758  0.0662 -0.0016 -0.1548
   96loPI   PO4 1524  10.845  15.382  10.356  0.2845 -0.1391 -0.0355
   96loPI   GL1 1525  10.963  15.383   9.930 -0.0284 -0.2269 -0.2406
   96loPI   GL2 1526  10.630  15.597   9.898  0.1426  0.3584 -0.3012
   96loPI   C1A 1527  10.898  15.231   9.521  0.2350  0.2420  0.0822
   96loPI   C2A 1528  10.890  15.244   9.064  0.0049  0.0477 -0.1014
   96loPI   C3A 1529  11.182  15.603   8.854 -0.1848 -0.1053  0.0879
   96loPI   C4A 1530  11.342  15.957   8.688  0.2584  0.0341  0.2434
   96loPI   C5A 1531  11.328  16.216   8.264 -0.3883 -0.1823  0.2245
   96loPI   C6A 1532  11.072  16.234   7.879 -0.0447 -0.2237 -0.2130
   96loPI   C1B 1533  10.667  15.694   9.513  0.2002 -0.2398  0.1647
   96loPI   C2B 1534  10.720  15.722   9.115 -0.3530  0.4810 -0.0362
   96loPI   C3B 1535  10.677  15.564   8.712 -0.4184  0.0628  0.0941
   96loPI   C4B 1536  10.654  15.577   8.254  0.0229 -0.2396 -0.1285
   97loPI    C1 1537  12.942   6.240   9.681 -0.1164  0.0498  0.0075
   97loPI    C2 1538  12.874   6.205  10.073  0.1080  0.0343  0.0463
   97loPI    C3 1539  12.785   5.903   9.828 -0.1063  0.0737  0.0737
   97loPI   PO4 1540  12.901   6.479   9.595 -0.3192 -0.2024  0.1417
   97loPI   GL1 1541  12.913   6.600   9.209 -0.0452 -0.1711 -0.2193
   97loPI   GL2 1542  12.629   6.719   9.220  0.1964  0.0864 -0.1490
   97loPI   C1A 1543  12.850   6.383   8.775  0.0247 -0.0728  0.1277
   97loPI   C2A 1544  13.081   6.305   8.364  0.3205 -0.0949  0.0410
   97loPI   C3A 1545  13.379   6.149   8.010 -0.1818  0.0295 -0.2093
   97loPI   C4A 1546  13.820   6.205   7.904 -0.1436  0.0870 -0.2891
   97loPI   C5A 1547  14.192   6.423   7.988 -0.0712 -0.0544  0.0443
   97loPI   C6A 1548  13.899   6.809   7.993 -0.2398 -0.2480  0.1002
   97loPI   C1B 1549  12.377   6.369   9.046 -0.2571 -0.2851  0.1398
   97loPI   C2B 1550  12.043   6.362   8.681 -0.0819  0.0441  0.2244
   97loPI   C3B 1551  12.027   6.289   8.284  0.1998 -0.3569 -0.1221
   97loPI   C4B 1552  12.145   6.297   7.911  0.0477  0.3856  0.1953
   98loPI    C1 1553  13.222   7.170   9.374  0.0162 -0.0742 -0.2666
   98loPI    C2 1554  13.189   6.869   9.636 -0.1881  0.2988  0.1491
   98loPI    C3 1555  13.532   7.073   9.607 -0.0161 -0.0268 -0.2038
   98loPI   PO4 1556  12.914   7.209   9.338  0.1641 -0.0203 -0.0212
   98loPI   GL1 1557  12.865   7.207   8.964  0.0170  0.2515 -0.0608
   98loPI   GL2 1558  12.851   7.650   8.969  0.2273  0.0218  0.0819
   98loPI   C1A 1559  13.122   6.856   8.852  0.0036 -0.0902  0.2758
   98loPI   C2A 1560  13.331   6.400   8.792 -0.3134 -0.0668  0.4929
   98loPI   C3A 1561  13.585   6.134   8.619 -0.0660  0.2409  0.0185
   98loPI   C4A 1562  13.958   6.202   8.378 -0.3477  0.3706 -0.2833
   98loPI   C5A 1563  14.293   5.970   8.128  0.3266  0.2954 -0.1309
   98loPI   C6A 1564  14.377   5.618   7.766  0.5930  0.0140  0.0121
   98loPI   C1B 1565  12.799   7.476   8.545  0.1173 -0.0929 -0.1289
   98loPI   C2B 1566  13.117   7.265   8.521  0.1104  0.1638  0.1059
   98loPI   C3B 1567  13.427   7.246   8.793  0.1159  0.0140  0.0904
   98loPI   C4B 1568  13.761   7.234   9.115  0.1016  0.0352  0.3629
   99loPI    C1 1569  11.961  16.499  10.504 -0.1461  0.0636  0.0307
   99loPI    C2 1570  12.029  16.795  10.765  0.3085 -0.1205  0.1304
   99loPI    C3 1571  12.030  16.415  10.889  0.0783 -0.1855 -0.0608
   99loPI   PO4 1572  12.160  16.567  10.305 -0.1657  0.0063 -0.1173
   99loPI   GL1 1573  12.473  16.703  10.095 -0.1488  0.2191  0.0808
   99loPI   GL2 1574  12.499  16.522   9.760 -0.2483  0.2145 -0.2233
   99loPI   C1A 1575  12.666  16.975   9.830  0.0116  0.1373  0.5862
   99loPI   C2A 1576  12.773  17.055   9.411 -0.0290  0.0046 -0.0617
   99loPI   C3A 1577  12.748  16.921   9.016 -0.0104 -0.0529 -0.0819
   99loPI   C4A 1578  12.848  16.840   8.615  0.1142  0.0250  0.0024
   99loPI   C5A 1579  12.908  16.906   8.230 -0.0464 -0.0659  0.0561
   99loPI   C6A 1580  13.051  16.619   7.861 -0.3490 -0.0779 -0.0470
   99loPI   C1B 1581  12.511  16.602   9.359 -0.2682  0.0803 -0.1447
   99loPI   C2B 1582  12.387  16.628   8.861  0.0050  0.1499 -0.2225
   99loPI   C3B 1583  12.024  16.558   8.678 -0.0274  0.3022 -0.0051
   99loPI   C4B 1584  11.595  16.587   8.523  0.1780 -0.2695 -0.2013
  100loPI    C1 1585   2.509  11.189  10.831  0.0088 -0.1644  0.0415
  100loPI    C2 1586   2.581  11.084  11.210  0.2315 -0.2539 -0.0240
  100loPI    C3 1587   2.573  11.470  11.107  0.1379 -0.2283  0.0773
  100loPI   PO4 1588   2.330  11.081  10.742 -0.0773  0.1169 -0.0214
  100loPI   GL1 1589   2.140  11.260  10.449 -0.1571  0.3091  0.0681
  100loPI   GL2 1590   1.864  11.103  10.303 -0.0176  0.1583  0.1521
  100loPI   C1A 1591   2.305  11.147  10.048  0.0138  0.0177  0.0896
  100loPI   C2A 1592   2.350  11.200   9.677 -0.1841 -0.1746  0.1439
  100loPI   C3A 1593   2.215  11.247   9.206 -0.2897  0.1468 -0.1107
  100loPI   C4A 1594   2.242  11.265   8.766 -0.2041  0.3010 -0.0227
  100loPI   C5A 1595   2.081  11.361   8.378 -0.2322  0.4673 -0.3720
  100loPI   C6A 1596   1.705  11.606   8.220 -0.0513  0.3472 -0.0576
  100loPI   C1B 1597   1.755  11.144   9.918  0.4459  0.0219 -0.0932
  100loPI   C2B 1598   1.819  11.163   9.467 -0.0811 -0.0768  0.4125
  100loPI   C3B 1599   1.748  11.153   8.964  0.0050  0.4428 -0.0551
  100loPI   C4B 1600   1.676  11.236   8.569  0.1160 -0.0651  0.2414
  101loPI    C1 1601   2.191  12.225  11.172  0.1553  0.0567 -0.3699
  101loPI    C2 1602   2.329  11.864  11.276  0.0124  0.0743 -0.1103
  101loPI    C3 1603   2.553  12.190  11.337  0.0538  0.0520 -0.1441
  101loPI   PO4 1604   1.948  12.078  10.944 -0.2678 -0.0312  0.0482
  101loPI   GL1 1605   1.967  12.005  10.457  0.0242  0.0343 -0.0702
  101loPI   GL2 1606   1.823  11.674  10.453  0.2480 -0.3059 -0.4164
  101loPI   C1A 1607   2.141  12.046  10.037  0.3565 -0.0298  0.1529
  101loPI   C2A 1608   2.162  12.117   9.532  0.2838 -0.4564  0.1582
  101loPI   C3A 1609   2.106  12.129   9.031 -0.0523 -0.0093  0.0022
  101loPI   C4A 1610   2.066  12.123   8.605 -0.1634  0.0270  0.0998
  101loPI   C5A 1611   2.032  12.007   8.214  0.3661 -0.2753 -0.1550
  101loPI   C6A 1612   1.873  11.798   7.831  0.0922  0.3465  0.1341
  101loPI   C1B 1613   2.022  11.564  10.097  0.0391  0.1106  0.3848
  101loPI   C2B 1614   2.032  11.609   9.685  0.2143 -0.0464  0.0752
  101loPI   C3B 1615   1.922  11.630   9.271  0.1297 -0.3022 -0.0392
  101loPI   C4B 1616   1.988  11.645   8.803  0.1655  0.2811 -0.0820
  102loPI    C1 1617   3.599  16.664  10.544 -0.2627  0.2589  0.0639
  102loPI    C2 1618   3.933  16.607  10.756 -0.0768  0.2784 -0.2199
  102loPI    C3 1619   3.608  16.757  10.933 -0.0141  0.0284  0.1160
  102loPI   PO4 1620   3.572  16.597  10.292 -0.4688 -0.2675  0.0558
  102loPI   GL1 1621   3.722  16.536   9.892  0.2016  0.0495  0.1570
  102loPI   GL2 1622   3.720  16.209   9.993 -0.2313  0.0789 -0.0987
  102loPI   C1A 1623   3.617  16.387   9.470  0.1843 -0.0480  0.3389
  102loPI   C2A 1624   3.511  16.332   9.038  0.2142 -0.2045  0.0254
  102loPI   C3A 1625   3.534  16.178   8.595 -0.1030 -0.1508 -0.0960
  102loPI   C4A 1626   3.646  16.192   8.137  0.0723  0.0968 -0.0158
  102loPI   C5A 1627   3.936  15.856   7.778 -0.2149 -0.0541  0.2986
  102loPI   C6A 1628   4.068  16.015   7.364  0.1231  0.0821  0.1770
  102loPI   C1B 1629   3.931  16.016   9.664  0.2052 -0.2078  0.2180
  102loPI   C2B 1630   3.822  15.935   9.229  0.0217  0.3497  0.2581
  102loPI   C3B 1631   3.854  15.809   8.759  0.3250  0.4609 -0.0510
  102loPI   C4B 1632   3.908  15.747   8.322 -0.2257  0.1921 -0.0568
  103loPI    C1 1633   3.907  14.696  10.926  0.2746 -0.1283 -0.1654
  103loPI    C2 1634   4.075  14.469  11.209 -0.1096 -0.3214 -0.0845
  103loPI    C3 1635   3.917  14.824  11.305  0.2459 -0.1372 -0.1616
  103loPI   PO4 1636   3.694  14.513  10.779 -0.1704  0.1322 -0.2675
  103loPI   GL1 1637   3.727  14.465  10.396  0.3115 -0.1794  0.0310
  103loPI   GL2 1638   3.739  14.863  10.446  0.1121 -0.0382 -0.1299
  103loPI   C1A 1639   3.487  14.242  10.025  0.0933 -0.0925 -0.1879
  103loPI   C2A 1640   3.389  14.179   9.664 -0.1911 -0.1939 -0.3958
  103loPI   C3A 1641   3.471  14.107   9.261  0.0455 -0.0976 -0.1640
  103loPI   C4A 1642   3.465  14.160   8.824 -0.1475 -0.2723  0.0255
  103loPI   C5A 1643   3.477  14.027   8.355 -0.1863  0.1160  0.0188
  103loPI   C6A 1644   3.450  13.759   7.993 -0.1153 -0.0665 -0.0662
  103loPI   C1B 1645   3.744  14.771  10.002  0.1987  0.0061 -0.3469
  103loPI   C2B 1646   3.685  14.552   9.552  0.0370 -0.0816 -0.0552
  103loPI   C3B 1647   3.677  14.534   9.024  0.1620  0.2040  0.1965
  103loPI   C4B 1648   3.668  14.475   8.499  0.0122  0.2816 -0.0791
  104loPI    C1 1649  13.898  16.247  11.127  0.2528 -0.1498  0.1907
  104loPI    C2 1650  13.738  16.604  11.210  0.2261 -0.0459 -0.2778
  104loPI    C3 1651  13.757  16.322  11.493 -0.0856  0.2006 -0.0034
  104loPI   PO4 1652  14.052  16.331  10.985 -0.1078 -0.0540  0.1042
  104loPI   GL1 1653  14.128  16.216  10.504 -0.0793 -0.0674 -0.0738
  104loPI   GL2 1654  14.384  16.391  10.251  0.0759 -0.0258 -0.1974
  104loPI   C1A 1655  14.187  16.041  10.026  0.1516  0.0288 -0.0350
  104loPI   C2A 1656  14.185  16.013   9.546  0.2129 -0.0511 -0.0193
  104loPI   C3A 1657  14.119  15.991   9.148  0.1071  0.0787 -0.3680
  104loPI   C4A 1658  14.196  15.956   8.665  0.0191 -0.0931 -0.0258
  104loPI   C5A 1659  14.291  15.803   8.260 -0.1461  0.1095 -0.2032
  104loPI   C6A 1660  14.114  15.469   8.026  0.0736  0.1719  0.0011
  104loPI   C1B 1661  14.382  16.478   9.805 -0.0092 -0.3557  0.2817
  104loPI   C2B 1662  14.453  16.445   9.322 -0.1307  0.3259 -0.1081
  104loPI   C3B 1663  14.468  16.304   8.933  0.4612 -0.2514  0.0139
  104loPI   C4B 1664  14.548  16.200   8.458 -0.0489 -0.1101  0.0292
  105loPI    C1 1665  16.765  17.759  10.814  0.0365  0.4190 -0.2097
  105loPI    C2 1666  16.687  17.996  11.126 -0.1309  0.0075  0.0706
  105loPI    C3 1667  17.018  17.772  11.123 -0.1560 -0.0291 -0.0249
  105loPI   PO4 1668  16.743  17.896  10.609  0.0646 -0.1285 -0.1501
  105loPI   GL1 1669  16.927  17.740  10.233  0.1608  0.3165 -0.2935
  105loPI   GL2 1670  16.724  18.067  10.117 -0.0188 -0.1787 -0.0333
  105loPI   C1A 1671  16.807  17.585   9.878  0.1256  0.0030  0.0238
  105loPI   C2A 1672  16.937  17.569   9.498 -0.1297  0.1923 -0.0246
  105loPI   C3A 1673  16.914  17.538   9.080  0.1427 -0.0098 -0.1343
  105loPI   C4A 1674  16.921  17.466   8.687  0.1252  0.0790  0.1937
  105loPI   C5A 1675  16.819  17.445   8.290  0.3727 -0.1952 -0.0560
  105loPI   C6A 1676  16.410  17.534   8.113  0.2428  0.0906 -0.0271
  105loPI   C1B 1677  16.691  18.084   9.745 -0.1320 -0.3507  0.1693
  105loPI   C2B 1678  16.676  18.083   9.228 -0.1592 -0.2385 -0.4278
  105loPI   C3B 1679  16.699  17.972   8.896 -0.0867  0.0516  0.1157
  105loPI   C4B 1680  16.595  17.881   8.436  0.2533 -0.3294  0.2266
  106loPI    C1 1681  16.497  11.232  10.718  0.0393  0.2160  0.0766
  106loPI    C2 1682  16.873  11.368  10.722  0.1441 -0.0698  0.1848
  106loPI    C3 1683  16.592  11.551  10.940  0.2266  0.1239  0.1308
  106loPI   PO4 1684  16.406  11.176  10.476 -0.3467  0.1862  0.1511
  106loPI   GL1 1685  16.264  11.408  10.173 -0.2592  0.1120  0.2465
  106loPI   GL2 1686  16.135  11.063  10.028  0.0728  0.0083  0.0828
  106loPI   C1A 1687  16.165  11.446   9.666  0.0198  0.0755  0.0331
  106loPI   C2A 1688  16.022  11.528   9.218  0.2050 -0.1296  0.0035
  106loPI   C3A 1689  16.051  11.495   8.770  0.0725  0.0212  0.0505
  106loPI   C4A 1690  16.262  11.659   8.381  0.0609  0.0632  0.0933
  106loPI   C5A 1691  16.332  11.399   7.939  0.0181  0.1722 -0.0194
  106loPI   C6A 1692  16.301  11.365   7.540  0.1287  0.0844 -0.0897
  106loPI   C1B 1693  15.983  10.964   9.628  0.2673  0.2961 -0.2215
  106loPI   C2B 1694  15.844  11.079   9.280 -0.0545  0.0381 -0.1286
  106loPI   C3B 1695  15.756  11.032   8.973 -0.1267  0.3435  0.2329
  106loPI   C4B 1696  15.795  11.100   8.568 -0.1969  0.2961  0.1795
  107loPI    C1 1697  14.436   9.193  10.717 -0.1223  0.0427  0.2828
  107loPI    C2 1698  14.618   8.839  10.751  0.0826  0.1111 -0.0520
  107loPI    C3 1699  14.436   9.001  11.068  0.0093 -0.2780  0.1115
  107loPI   PO4 1700  14.346   9.151  10.434  0.1631 -0.0075  0.1347
  107loPI   GL1 1701  14.470   9.464   9.982  0.1851 -0.0477 -0.2005
  107loPI   GL2 1702  14.264   9.173   9.773 -0.2966 -0.0327 -0.3589
  107loPI   C1A 1703  14.671   9.570   9.678  0.3531 -0.2517  0.0195
  107loPI   C2A 1704  14.688   9.597   9.288 -0.2816  0.2578 -0.0146
  107loPI   C3A 1705  14.700   9.564   8.840 -0.2194 -0.2074  0.0618
  107loPI   C4A 1706  14.605   9.754   8.520  0.1756 -0.0320  0.1268
  107loPI   C5A 1707  14.476   9.835   8.126  0.1823  0.0437  0.2232
  107loPI   C6A 1708  14.337   9.665   7.651 -0.1302  0.0548  0.0279
  107loPI   C1B 1709  14.518   9.105   9.503 -0.3624 -0.1718  0.1232
  107loPI   C2B 1710  14.406   9.199   9.072  0.1671 -0.1629  0.3492
  107loPI   C3B 1711  14.415   9.207   8.707  0.2335  0.0374  0.2195
  107loPI   C4B 1712  14.459   9.300   8.278 -0.2381  0.3542 -0.0309
  108loPI    C1 1713   6.266  11.490  10.523  0.1765  0.1332 -0.1286
  108loPI    C2 1714   6.146  11.680  10.192 -0.0168  0.2026 -0.0206
  108loPI    C3 1715   6.244  11.890  10.519 -0.0534  0.1242  0.0408
  108loPI   PO4 1716   6.442  11.232  10.456 -0.0231 -0.1921 -0.0837
  108loPI   GL1 1717   6.657  11.041  10.157 -0.1203  0.1743 -0.0142
  108loPI   GL2 1718   6.310  11.135   9.989  0.0167 -0.1740  0.1420
  108loPI   C1A 1719   6.686  11.150   9.691 -0.0662 -0.0619  0.0870
  108loPI   C2A 1720   6.621  11.296   9.352  0.2136 -0.1746 -0.1679
  108loPI   C3A 1721   6.599  11.243   8.925  0.1002 -0.0330 -0.1427
  108loPI   C4A 1722   6.470  11.227   8.450  0.0159  0.1030  0.2042
  108loPI   C5A 1723   6.392  11.362   8.059 -0.2342  0.3040 -0.2068
  108loPI   C6A 1724   6.362  11.800   7.930  0.0260 -0.0749 -0.2210
  108loPI   C1B 1725   6.095  11.189   9.572 -0.0095  0.3205  0.0799
  108loPI   C2B 1726   6.130  11.194   9.142  0.1147  0.1366 -0.0139
  108loPI   C3B 1727   6.013  11.114   8.706 -0.1525  0.0572  0.0193
  108loPI   C4B 1728   5.875  11.192   8.269 -0.1567  0.1470  0.3233
  109loPI    C1 1729   7.098   6.776  10.158  0.2254 -0.0003 -0.1698
  109loPI    C2 1730   7.264   6.520  10.418 -0.2042 -0.1229 -0.0075
  109loPI    C3 1731   7.017   6.806  10.549 -0.2481 -0.0424 -0.2594
  109loPI   PO4 1732   7.024   6.609   9.999 -0.3621  0.0376 -0.4575
  109loPI   GL1 1733   7.007   6.415   9.613 -0.0236 -0.3694  0.3084
  109loPI   GL2 1734   6.709   6.285   9.777 -0.1679  0.1581  0.0495
  109loPI   C1A 1735   7.044   6.425   9.240  0.1050  0.1859 -0.0683
  109loPI   C2A 1736   7.057   6.447   8.762 -0.0393  0.0136  0.1880
  109loPI   C3A 1737   7.018   6.633   8.420 -0.2646 -0.1660  0.1865
  109loPI   C4A 1738   7.293   6.882   8.206  0.0679  0.1739 -0.1661
  109loPI   C5A 1739   7.315   7.184   7.877  0.1660  0.0269  0.3273
  109loPI   C6A 1740   7.506   7.482   7.590 -0.0721 -0.3192  0.3499
  109loPI   C1B 1741   6.641   6.101   9.329 -0.0257 -0.0095 -0.0532
  109loPI   C2B 1742   6.569   6.238   8.906 -0.2505  0.2135  0.0456
  109loPI   C3B 1743   6.601   6.348   8.534 -0.2148 -0.0990  0.0009
  109loPI   C4B 1744   6.560   6.437   8.109 -0.1919  0.0275 -0.0975
  110loPI    C1 1745   7.029  14.659  11.015  0.1713  0.1206 -0.2331
  110loPI    C2 1746   6.864  14.845  11.328  0.0836  0.0065 -0.2110
  110loPI    C3 1747   7.082  14.515  11.384  0.2129  0.0842 -0.2532
  110loPI   PO4 1748   6.905  14.679  10.806  0.2225 -0.3611  0.2180
  110loPI   GL1 1749   7.191  14.625  10.364  0.0846  0.0107  0.1076
  110loPI   GL2 1750   6.968  14.621  10.248  0.1741  0.2756 -0.0481
  110loPI   C1A 1751   7.340  14.918  10.035  0.1368 -0.2260  0.0439
  110loPI   C2A 1752   7.385  15.308   9.699  0.1680  0.0943  0.1197
  110loPI   C3A 1753   7.576  15.311   9.300 -0.0985  0.0360 -0.1188
  110loPI   C4A 1754   7.709  15.368   8.879  0.1697  0.0811 -0.1678
  110loPI   C5A 1755   7.900  15.216   8.411  0.0347 -0.2247  0.1995
  110loPI   C6A 1756   8.075  14.957   8.045  0.1081  0.0450 -0.3390
  110loPI   C1B 1757   7.088  14.583   9.786  0.0291  0.0116 -0.0445
  110loPI   C2B 1758   7.200  14.463   9.391  0.2245  0.0642  0.0530
  110loPI   C3B 1759   7.187  14.460   8.961 -0.1543  0.1863  0.0217
  110loPI   C4B 1760   6.953  14.355   8.715 -0.1339  0.2026  0.1233
  111loPI    C1 1761   5.838  10.230  10.863  0.2030 -0.0217  0.2664
  111loPI    C2 1762   5.562  10.428  11.074  0.0620  0.1163 -0.0410
  111loPI    C3 1763   5.896  10.299  11.253 -0.0083  0.3168  0.2420
  111loPI   PO4 1764   5.929  10.415  10.625 -0.1842  0.1558  0.0531
  111loPI   GL1 1765   6.042  10.792  10.305 -0.1409  0.0398  0.1760
  111loPI   GL2 1766   5.895  11.092  10.258  0.0243 -0.0450 -0.1955
  111loPI   C1A 1767   5.918  10.680   9.907 -0.0003  0.3209 -0.3007
  111loPI   C2A 1768   5.947  10.682   9.485  0.1845 -0.0690 -0.0377
  111loPI   C3A 1769   5.956  10.722   9.075  0.0094 -0.0381  0.4225
  111loPI   C4A 1770   5.829  10.646   8.697  0.2621 -0.1437 -0.1005
  111loPI   C5A 1771   5.788  10.659   8.213  0.4384  0.0134  0.2379
  111loPI   C6A 1772   5.981  10.468   7.906  0.4413  0.1918 -0.1064
  111loPI   C1B 1773   5.665  11.135   9.830 -0.0666 -0.2024  0.0398
  111loPI   C2B 1774   5.530  11.084   9.405 -0.1187 -0.1743 -0.1933
  111loPI   C3B 1775   5.568  11.236   8.991 -0.0244  0.2167  0.0083
  111loPI   C4B 1776   5.529  11.025   8.589  0.2253  0.0276  0.0440
  112loPI    C1 1777   4.746   2.750  10.593 -0.0512 -0.1906 -0.0280
  112loPI    C2 1778   4.660   2.543  10.925  0.2401  0.1837  0.2903
  112loPI    C3 1779   4.424   2.845  10.810  0.0833 -0.0098  0.0952
  112loPI   PO4 1780   4.826   2.590  10.358  0.0637  0.1545  0.0089
  112loPI   GL1 1781   5.000   2.485  10.007  0.0469  0.0442  0.1331
  112loPI   GL2 1782   5.147   2.174   9.852 -0.2050 -0.0619  0.1839
  112loPI   C1A 1783   5.179   2.700   9.741 -0.2583  0.1318 -0.1268
  112loPI   C2A 1784   5.158   2.711   9.390 -0.1227 -0.1209 -0.0239
  112loPI   C3A 1785   4.978   2.713   8.870  0.0070 -0.0485 -0.0982
  112loPI   C4A 1786   4.564   2.624   8.702 -0.0035 -0.1222 -0.0164
  112loPI   C5A 1787   4.406   2.301   8.313  0.0282  0.1434  0.1152
  112loPI   C6A 1788   4.223   2.112   7.880  0.0008  0.2133  0.2619
  112loPI   C1B 1789   4.999   2.240   9.485  0.0038  0.1031  0.1027
  112loPI   C2B 1790   4.998   2.071   9.232  0.1925 -0.2603 -0.1757
  112loPI   C3B 1791   4.959   2.073   8.893  0.1105 -0.0735  0.4245
  112loPI   C4B 1792   5.014   1.601   8.729  0.0069  0.0768 -0.2521
  113loPI    C1 1793   0.859  13.586  10.707  0.0629  0.0912 -0.1902
  113loPI    C2 1794   0.618  13.789  10.953  0.1452  0.2497 -0.2384
  113loPI    C3 1795   0.856  13.502  11.098  0.1297  0.2824 -0.1473
  113loPI   PO4 1796   0.688  13.802  10.448  0.0316 -0.0012  0.1715
  113loPI   GL1 1797   0.549  13.691  10.061  0.2182  0.3264 -0.5115
  113loPI   GL2 1798   0.604  13.404  10.023 -0.0883  0.2234  0.1240
  113loPI   C1A 1799   0.792  13.817   9.716  0.2113  0.1306  0.0616
  113loPI   C2A 1800   0.812  13.797   9.311  0.0611  0.0083  0.1749
  113loPI   C3A 1801   0.852  13.733   8.888  0.0153  0.1118  0.1362
  113loPI   C4A 1802   0.836  13.724   8.511 -0.0530  0.0634  0.1037
  113loPI   C5A 1803   0.936  13.680   8.124  0.4842 -0.1599 -0.1121
  113loPI   C6A 1804   0.880  13.915   7.710 -0.3747  0.1388 -0.1459
  113loPI   C1B 1805   0.677  13.301   9.606 -0.1195 -0.2968 -0.1670
  113loPI   C2B 1806   0.687  13.358   9.160  0.2491  0.0887 -0.2196
  113loPI   C3B 1807   0.718  13.252   8.752  0.0780  0.1757  0.0610
  113loPI   C4B 1808   0.716  13.279   8.230 -0.0239 -0.0624 -0.2246
  114loPI    C1 1809   4.581   1.439  10.382  0.0433  0.0795  0.2023
  114loPI    C2 1810   4.499   1.478  10.772  0.0569  0.2040  0.1933
  114loPI    C3 1811   4.201   1.430  10.509  0.0651 -0.2077  0.2526
  114loPI   PO4 1812   4.671   1.287  10.311 -0.0161  0.2231  0.1501
  114loPI   GL1 1813   4.801   1.404   9.878 -0.0190  0.0558  0.2643
  114loPI   GL2 1814   4.534   1.258   9.760  0.3587 -0.0251  0.1140
  114loPI   C1A 1815   4.914   1.543   9.362  0.0478  0.1146  0.0285
  114loPI   C2A 1816   4.641   1.739   9.007 -0.0362 -0.5658  0.0658
  114loPI   C3A 1817   4.764   1.981   8.466 -0.0734  0.2165 -0.1762
  114loPI   C4A 1818   4.940   2.426   8.455  0.0099  0.1792  0.2227
  114loPI   C5A 1819   5.025   2.859   8.379  0.1701 -0.4163  0.0145
  114loPI   C6A 1820   4.786   3.182   8.526  0.0162 -0.0582  0.0832
  114loPI   C1B 1821   4.504   1.259   9.298  0.0571  0.0712  0.0493
  114loPI   C2B 1822   4.491   1.262   8.971 -0.1203 -0.0406 -0.3755
  114loPI   C3B 1823   4.584   1.102   8.567  0.2884  0.0526 -0.2287
  114loPI   C4B 1824   4.701   0.932   8.198  0.2528 -0.0029  0.1531
  115loPI    C1 1825   6.136  14.694  10.748  0.1027 -0.0259 -0.0032
  115loPI    C2 1826   6.450  14.799  10.971 -0.0148  0.2394  0.0411
  115loPI    C3 1827   6.116  14.666  11.146  0.0024  0.1493  0.0054
  115loPI   PO4 1828   6.225  14.587  10.580  0.1634  0.2470 -0.0982
  115loPI   GL1 1829   6.271  14.587  10.147 -0.0889 -0.0789  0.1808
  115loPI   GL2 1830   6.550  14.541  10.009 -0.3608  0.1072 -0.1309
  115loPI   C1A 1831   6.098  14.449   9.843  0.0777  0.0594  0.0567
  115loPI   C2A 1832   6.119  14.401   9.402 -0.0380 -0.2422  0.1150
  115loPI   C3A 1833   6.137  14.345   8.927  0.1441  0.0746 -0.0069
  115loPI   C4A 1834   6.185  14.320   8.382  0.0575  0.1881  0.1519
  115loPI   C5A 1835   6.342  14.468   8.073 -0.4433  0.4144 -0.2459
  115loPI   C6A 1836   6.752  14.453   7.883  0.0559  0.0685  0.1851
  115loPI   C1B 1837   6.656  14.433   9.558  0.2674 -0.0651 -0.0466
  115loPI   C2B 1838   6.573  14.360   9.124  0.2242  0.0417  0.0986
  115loPI   C3B 1839   6.478  14.592   8.657  0.1658 -0.3296  0.3125
  115loPI   C4B 1840   6.316  14.902   8.366  0.0822 -0.0188  0.1572
  116loPI    C1 1841   4.937  17.981  10.413 -0.1264 -0.0744  0.0663
  116loPI    C2 1842   5.123  18.302  10.562  0.0298 -0.0874 -0.0962
  116loPI    C3 1843   5.188  17.941  10.722  0.1678 -0.0960 -0.1705
  116loPI   PO4 1844   4.969  18.066  10.066 -0.0352 -0.1599 -0.0902
  116loPI   GL1 1845   5.421  17.918   9.789  0.0767 -0.0323 -0.0516
  116loPI   GL2 1846   5.687  17.842   9.572 -0.0033 -0.2939 -0.0673
  116loPI   C1A 1847   5.072  17.788   9.454  0.0329  0.0028  0.1266
  116loPI   C2A 1848   4.914  17.753   8.998  0.0900 -0.0069  0.0823
  116loPI   C3A 1849   4.954  17.618   8.645 -0.0119  0.2458 -0.1551
  116loPI   C4A 1850   5.026  17.506   8.231  0.4091 -0.1925  0.1192
  116loPI   C5A 1851   5.314  17.598   7.864  0.1607  0.0854  0.0739
  116loPI   C6A 1852   5.703  17.638   7.574  0.0138 -0.0401 -0.2541
  116loPI   C1B 1853   5.438  17.648   9.200 -0.0411  0.1557  0.1375
  116loPI   C2B 1854   5.418  17.684   8.666 -0.3796  0.1848 -0.0445
  116loPI   C3B 1855   5.635  17.613   8.322 -0.2163  0.2143 -0.5955
  116loPI   C4B 1856   6.056  17.585   8.213  0.0278 -0.0120  0.1603
  117loPI    C1 1857  17.971   9.577  11.096 -0.1023  0.2551  0.3113
  117loPI    C2 1858  17.838   9.250  11.284  0.0886 -0.0436 -0.0589
  117loPI    C3 1859  18.223   9.354  11.312  0.0588  0.0677 -0.0600
  117loPI   PO4 1860  17.821   9.498  10.822 -0.1551 -0.2125 -0.0482
  117loPI   GL1 1861  17.966   9.488  10.462 -0.0265 -0.0461 -0.0640
  117loPI   GL2 1862  17.802   9.758  10.356  0.2925 -0.4250  0.2537
  117loPI   C1A 1863  18.006   9.327  10.036 -0.0149  0.2129 -0.3419
  117loPI   C2A 1864  18.000   9.155   9.599 -0.0491  0.2815  0.1615
  117loPI   C3A 1865  17.914   8.983   9.281  0.1744  0.1039  0.3364
  117loPI   C4A 1866  17.941   9.039   8.834  0.0302 -0.1997  0.0550
  117loPI   C5A 1867  18.004   9.202   8.433  0.0034  0.1666 -0.1069
  117loPI   C6A 1868  17.827   9.257   8.101 -0.0679  0.0940 -0.0617
  117loPI   C1B 1869  17.889   9.832   9.902 -0.0939 -0.3915  0.1736
  117loPI   C2B 1870  17.864   9.842   9.554 -0.1937 -0.0689  0.0921
  117loPI   C3B 1871  17.809   9.876   9.159  0.3992 -0.1032 -0.0203
  117loPI   C4B 1872  17.774   9.942   8.865 -0.0088  0.3577 -0.1442
  118loPI    C1 1873   9.122   7.736  10.051  0.1539  0.3052  0.1820
  118loPI    C2 1874   9.068   7.641  10.435 -0.0266 -0.0922  0.0633
  118loPI    C3 1875   9.321   7.428  10.210 -0.1619 -0.0644 -0.1173
  118loPI   PO4 1876   8.867   7.656   9.929  0.6095  0.0710  0.1426
  118loPI   GL1 1877   8.731   7.286   9.619 -0.0523  0.0555  0.0277
  118loPI   GL2 1878   8.428   7.448   9.685  0.2617  0.0449  0.2737
  118loPI   C1A 1879   8.823   7.487   9.255 -0.1619  0.1991 -0.0404
  118loPI   C2A 1880   9.167   7.497   8.932 -0.2155 -0.1038 -0.0361
  118loPI   C3A 1881   9.307   7.263   8.698 -0.0531 -0.2416 -0.0436
  118loPI   C4A 1882   9.583   7.125   8.411  0.0460 -0.1414  0.2223
  118loPI   C5A 1883   9.912   7.154   8.064  0.2526  0.1184  0.0398
  118loPI   C6A 1884  10.166   6.862   7.838 -0.2201 -0.1337 -0.1990
  118loPI   C1B 1885   8.281   7.754   9.369  0.1867  0.0983 -0.2024
  118loPI   C2B 1886   7.953   7.744   9.037 -0.1494  0.1800  0.0409
  118loPI   C3B 1887   7.603   7.942   8.761 -0.0707  0.0035  0.1317
  118loPI   C4B 1888   7.460   7.698   8.396 -0.2570 -0.2118  0.0737
  119loPI    C1 1889  15.554  10.278  10.791 -0.0098  0.3008 -0.0862
  119loPI    C2 1890  15.568  10.382  11.177  0.0393 -0.0077 -0.0020
  119loPI    C3 1891  15.278  10.140  11.047  0.0641  0.0387 -0.1454
  119loPI   PO4 1892  15.808  10.224  10.655  0.3434  0.0934 -0.1409
  119loPI   GL1 1893  16.002  10.365  10.218  0.0978 -0.0360 -0.1365
  119loPI   GL2 1894  15.918  10.087  10.006 -0.0447 -0.1305 -0.0984
  119loPI   C1A 1895  16.165  10.548   9.812  0.1772  0.1027  0.2051
  119loPI   C2A 1896  16.197  10.641   9.415  0.3286 -0.3067  0.2142
  119loPI   C3A 1897  16.107  10.680   8.982  0.1614 -0.1720 -0.0579
  119loPI   C4A 1898  16.124  10.677   8.567  0.1111  0.3324 -0.0060
  119loPI   C5A 1899  16.184  10.612   8.137 -0.1696 -0.2291 -0.1968
  119loPI   C6A 1900  16.378  10.248   7.892 -0.1677  0.2214 -0.0261
  119loPI   C1B 1901  15.993  10.176   9.556 -0.1611 -0.1259  0.1559
  119loPI   C2B 1902  15.929  10.227   9.131  0.2991 -0.0166 -0.2535
  119loPI   C3B 1903  15.914  10.245   8.652  0.2587  0.3356  0.1930
  119loPI   C4B 1904  16.023  10.135   8.264 -0.0218  0.2467 -0.0627
  120loPI    C1 1905  17.084  14.647  10.401  0.4034 -0.0174  0.1503
  120loPI    C2 1906  16.875  14.320  10.500 -0.0607  0.1257 -0.3132
  120loPI    C3 1907  16.923  14.614  10.766 -0.0067 -0.1305 -0.0346
  120loPI   PO4 1908  16.986  14.708  10.231  0.3144  0.2064 -0.1784
  120loPI   GL1 1909  17.122  14.952   9.905  0.0834 -0.0312 -0.0827
  120loPI   GL2 1910  17.374  14.668   9.841 -0.0269  0.0551  0.2030
  120loPI   C1A 1911  16.933  15.027   9.547 -0.0953 -0.1630  0.1274
  120loPI   C2A 1912  16.902  15.221   9.153 -0.2459  0.0200 -0.1078
  120loPI   C3A 1913  17.026  15.187   8.729 -0.0816  0.0659  0.1290
  120loPI   C4A 1914  17.081  15.079   8.422 -0.0203  0.1249  0.0746
  120loPI   C5A 1915  17.490  15.096   8.181 -0.0113  0.1153 -0.0211
  120loPI   C6A 1916  17.816  15.344   7.969  0.0180 -0.0444 -0.2631
  120loPI   C1B 1917  17.281  14.726   9.418  0.0567  0.1057  0.0786
  120loPI   C2B 1918  17.130  14.748   8.976  0.0110 -0.0673  0.0111
  120loPI   C3B 1919  16.909  14.655   8.622  0.0562 -0.0459  0.0207
  120loPI   C4B 1920  16.588  14.505   8.372  0.0062 -0.2963 -0.1658
  121loPI    C1 1921  17.945  12.878  10.105  0.0776 -0.1456 -0.0558
  121loPI    C2 1922  17.909  12.981  10.490 -0.0368  0.2465 -0.1668
  121loPI    C3 1923  18.268  12.884  10.341  0.0079  0.0941  0.0368
  121loPI   PO4 1924  17.760  12.728  10.056 -0.0229 -0.2016 -0.0773
  121loPI   GL1 1925  17.481  12.556   9.842  0.2108  0.0518  0.0947
  121loPI   GL2 1926  17.317  12.828   9.865  0.0721  0.2133  0.0125
  121loPI   C1A 1927  17.561  12.519   9.378  0.0265  0.2751  0.0453
  121loPI   C2A 1928  17.530  12.498   8.900  0.1181  0.2915  0.3551
  121loPI   C3A 1929  17.484  12.716   8.528  0.1295 -0.2723 -0.2575
  121loPI   C4A 1930  17.624  12.775   8.180  0.0273  0.3210  0.2583
  121loPI   C5A 1931  17.807  13.040   7.844 -0.1487 -0.0069  0.0530
  121loPI   C6A 1932  17.815  13.235   7.463 -0.1109 -0.1228 -0.0437
  121loPI   C1B 1933  17.238  12.897   9.458  0.2582 -0.0353  0.0428
  121loPI   C2B 1934  17.252  12.953   9.108  0.0353  0.1984  0.1601
  121loPI   C3B 1935  17.225  13.121   8.701  0.1752  0.1672  0.1055
  121loPI   C4B 1936  17.019  13.433   8.377  0.0250 -0.1670 -0.1484
  122loPI    C1 1937  12.750   7.544  10.038  0.2585 -0.1645  0.0751
  122loPI    C2 1938  12.441   7.296   9.982  0.1190  0.0555 -0.1479
  122loPI    C3 1939  12.793   7.152  10.106 -0.0896 -0.1888  0.1769
  122loPI   PO4 1940  12.593   7.758   9.953  0.2515  0.0191  0.1830
  122loPI   GL1 1941  12.437   7.963   9.566  0.0119 -0.0947  0.2061
  122loPI   GL2 1942  12.570   8.181   9.535  0.0266  0.0979 -0.2862
  122loPI   C1A 1943  12.454   7.994   9.097 -0.2695  0.0764  0.0897
  122loPI   C2A 1944  12.415   7.968   8.665  0.4147  0.0276  0.3034
  122loPI   C3A 1945  12.418   8.072   8.266 -0.3010 -0.3172 -0.0253
  122loPI   C4A 1946  12.685   7.898   7.864  0.0302 -0.1620 -0.1348
  122loPI   C5A 1947  12.872   8.067   7.499  0.0287  0.1774  0.0118
  122loPI   C6A 1948  12.972   8.023   7.171 -0.0008  0.0705  0.0282
  122loPI   C1B 1949  12.655   8.501   9.309  0.3313 -0.0820  0.2218
  122loPI   C2B 1950  12.659   8.628   8.918 -0.1546  0.0280 -0.1629
  122loPI   C3B 1951  12.605   8.482   8.470 -0.1139  0.0217  0.0507
  122loPI   C4B 1952  12.673   8.627   8.125 -0.1153  0.1163  0.2014
  123loPI    C1 1953   4.335  14.387  10.824 -0.2000 -0.2070  0.2191
  123loPI    C2 1954   4.696  14.216  10.841 -0.0181  0.1620  0.1534
  123loPI    C3 1955   4.562  14.434  11.149 -0.0123  0.3605  0.0175
  123loPI   PO4 1956   4.331  14.463  10.506 -0.2511  0.0336  0.0567
  123loPI   GL1 1957   4.202  14.572  10.092 -0.2855  0.0996  0.0882
  123loPI   GL2 1958   4.372  14.313  10.004  0.1333  0.0551 -0.0597
  123loPI   C1A 1959   4.152  14.613   9.662 -0.1129  0.0804 -0.0995
  123loPI   C2A 1960   4.243  14.606   9.298 -0.1691 -0.2734  0.0534
  123loPI   C3A 1961   4.227  14.602   8.883 -0.0018 -0.0212  0.2149
  123loPI   C4A 1962   4.157  14.569   8.453  0.0089 -0.1922 -0.1954
  123loPI   C5A 1963   4.070  14.428   8.071 -0.0866  0.5050 -0.2337
  123loPI   C6A 1964   4.203  14.160   7.620  0.1943 -0.0390 -0.0445
  123loPI   C1B 1965   4.524  14.234   9.594 -0.2210  0.0975 -0.4408
  123loPI   C2B 1966   4.522  14.199   9.185  0.0875  0.1056 -0.1741
  123loPI   C3B 1967   4.533  14.214   8.737 -0.2050  0.0363 -0.2061
  123loPI   C4B 1968   4.568  14.326   8.322 -0.0091  0.0510  0.2399
  124loPI    C1 1969   9.063   8.547  10.454 -0.0628 -0.0118 -0.0155
  124loPI    C2 1970   8.716   8.369  10.542 -0.1335  0.0277 -0.2081
  124loPI    C3 1971   9.040   8.148  10.465 -0.1243 -0.0099 -0.0651
  124loPI   PO4 1972   8.971   8.688  10.258  0.0886  0.0965 -0.3062
  124loPI   GL1 1973   8.837   8.774   9.837  0.0344  0.3407  0.0789
  124loPI   GL2 1974   9.039   8.535   9.762 -0.0244  0.3564  0.1127
  124loPI   C1A 1975   8.954   9.162   9.637  0.2157 -0.0165 -0.1160
  124loPI   C2A 1976   9.077   9.280   9.228 -0.1153  0.0790 -0.0564
  124loPI   C3A 1977   9.013   9.284   8.796  0.1515  0.0604  0.1487
  124loPI   C4A 1978   8.968   9.362   8.386 -0.0569  0.0310  0.1724
  124loPI   C5A 1979   8.952   9.166   8.019 -0.0639  0.1708  0.1510
  124loPI   C6A 1980   8.694   9.146   7.719  0.0784 -0.0269  0.1625
  124loPI   C1B 1981   8.785   8.725   9.348  0.3430 -0.3532  0.0407
  124loPI   C2B 1982   8.810   8.855   9.017  0.2380  0.1546  0.0066
  124loPI   C3B 1983   8.819   8.705   8.525 -0.0619 -0.0905 -0.1281
  124loPI   C4B 1984   8.639   8.753   8.089 -0.0464 -0.1726  0.0676
  125loPI    C1 1985   6.462   9.612  10.906 -0.0864  0.1830  0.2674
  125loPI    C2 1986   6.795   9.414  11.005 -0.0037  0.2280  0.0825
  125loPI    C3 1987   6.481   9.412  11.252  0.0133 -0.0935  0.1056
  125loPI   PO4 1988   6.457   9.547  10.636  0.2770 -0.0204  0.3203
  125loPI   GL1 1989   6.403   9.708  10.153  0.2201  0.2482  0.0787
  125loPI   GL2 1990   6.730   9.598  10.243 -0.1027 -0.1800  0.2327
  125loPI   C1A 1991   6.450   9.768   9.646  0.0358  0.1736 -0.0066
  125loPI   C2A 1992   6.506   9.726   9.209  0.1648  0.1839  0.0675
  125loPI   C3A 1993   6.593   9.873   8.797 -0.4189  0.1995  0.0019
  125loPI   C4A 1994   6.582   9.936   8.385  0.1077  0.0705  0.4673
  125loPI   C5A 1995   6.681   9.930   8.063  0.1122 -0.6389  0.2118
  125loPI   C6A 1996   7.016   9.833   7.781  0.1176  0.1878 -0.0545
  125loPI   C1B 1997   6.937   9.652   9.885  0.1336 -0.2333 -0.0699
  125loPI   C2B 1998   6.976   9.698   9.453  0.1538  0.1591  0.0053
  125loPI   C3B 1999   7.011   9.993   9.135 -0.5120  0.0666 -0.0541
  125loPI   C4B 2000   7.032  10.077   8.724 -0.4456  0.1279  0.3455
  126loPI    C1 2001   5.025   9.787  10.565 -0.0654  0.1174  0.1291
  126loPI    C2 2002   4.753   9.721  10.850  0.0540  0.0232  0.2224
  126loPI    C3 2003   5.136   9.627  10.915  0.0726 -0.0533  0.0094
  126loPI   PO4 2004   4.938   9.637  10.335 -0.1156  0.0578 -0.0301
  126loPI   GL1 2005   4.737   9.834   9.940 -0.1677 -0.0806 -0.0032
  126loPI   GL2 2006   4.611  10.110   9.807  0.1687  0.2180  0.2332
  126loPI   C1A 2007   4.927   9.726   9.538  0.1574  0.0696  0.0424
  126loPI   C2A 2008   4.920   9.697   9.180  0.0358 -0.3632  0.0601
  126loPI   C3A 2009   4.980   9.688   8.784  0.0207 -0.2947  0.2239
  126loPI   C4A 2010   4.843   9.742   8.411 -0.3599  0.2059 -0.0989
  126loPI   C5A 2011   4.652   9.544   8.075  0.3246 -0.0712 -0.0451
  126loPI   C6A 2012   4.264   9.537   7.842 -0.1566 -0.1959  0.0962
  126loPI   C1B 2013   4.715  10.173   9.285 -0.0505  0.1336  0.2303
  126loPI   C2B 2014   4.632  10.192   8.745 -0.0625  0.0803  0.1104
  126loPI   C3B 2015   4.581  10.174   8.381  0.5617  0.0634  0.3121
  126loPI   C4B 2016   4.305  10.060   7.982  0.1133 -0.2777 -0.1778
  127loPI    C1 2017   5.416  13.489  10.730 -0.2125  0.1989 -0.1265
  127loPI    C2 2018   5.046  13.508  10.580 -0.2923 -0.1349  0.0184
  127loPI    C3 2019   5.112  13.319  10.926 -0.0137  0.0888  0.0912
  127loPI   PO4 2020   5.542  13.381  10.575  0.2066  0.1593  0.1694
  127loPI   GL1 2021   5.540  13.087  10.203 -0.1388 -0.1798  0.0121
  127loPI   GL2 2022   5.297  13.333  10.133 -0.1331 -0.2431 -0.4677
  127loPI   C1A 2023   5.569  12.967   9.778 -0.0424 -0.0513 -0.0525
  127loPI   C2A 2024   5.398  12.907   9.432  0.0309 -0.0005 -0.1031
  127loPI   C3A 2025   5.445  12.974   9.040  0.3248 -0.3806  0.0908
  127loPI   C4A 2026   5.466  13.037   8.605 -0.0801 -0.3507 -0.2943
  127loPI   C5A 2027   5.402  13.070   8.176 -0.0163 -0.1605  0.0259
  127loPI   C6A 2028   5.462  13.010   7.762 -0.0503 -0.1987 -0.0519
  127loPI   C1B 2029   5.215  13.374   9.692 -0.0980 -0.1866  0.0719
  127loPI   C2B 2030   5.096  13.390   9.240 -0.0737  0.0285  0.3239
  127loPI   C3B 2031   5.089  13.370   8.851  0.0112  0.5454 -0.0520
  127loPI   C4B 2032   5.217  13.503   8.384  0.0944 -0.0266  0.0826
  128loPI    C1 2033  18.234  11.244  10.813  0.2016  0.1484 -0.1976
  128loPI    C2 2034  18.079  11.437  11.128  0.1278  0.0040 -0.1443
  128loPI    C3 2035  17.879  11.133  10.961  0.1272  0.1335 -0.3842
  128loPI   PO4 2036  18.417  11.239  10.832  0.4333  0.2360 -0.2751
  128loPI   GL1 2037  18.574  11.006  10.494 -0.1757 -0.1413 -0.1832
  128loPI   GL2 2038  18.355  10.924  10.336  0.2293 -0.1930 -0.1779
  128loPI   C1A 2039  18.787  10.975  10.029  0.1186  0.1934 -0.0202
  128loPI   C2A 2040  18.814  10.890   9.622 -0.0138  0.1321 -0.1526
  128loPI   C3A 2041  18.740  10.871   9.228  0.0574  0.2403  0.3385
  128loPI   C4A 2042  18.756  10.898   8.805  0.0767 -0.1901  0.1137
  128loPI   C5A 2043  18.729  10.961   8.340  0.3142  0.0745  0.1982
  128loPI   C6A 2044  18.705  10.590   8.022  0.2268  0.1910 -0.1018
  128loPI   C1B 2045  18.164  10.831   9.896 -0.0396  0.0218 -0.0692
  128loPI   C2B 2046  18.185  10.750   9.383 -0.1798  0.0073  0.0287
  128loPI   C3B 2047  18.242  10.767   8.985 -0.1250 -0.2426 -0.2446
  128loPI   C4B 2048  18.239  10.878   8.568  0.0603  0.0888  0.0606
  129loPI    C1 2049  11.149   0.947  10.294  0.0452  0.0413  0.2268
  129loPI    C2 2050  10.839   0.743  10.145  0.1433 -0.0238  0.1095
  129loPI    C3 2051  10.803   0.935  10.494 -0.0315 -0.0226  0.0918
  129loPI   PO4 2052  11.237   1.115  10.111  0.4689  0.1078 -0.2115
  129loPI   GL1 2053  11.498   1.097   9.669  0.1943 -0.0808 -0.0883
  129loPI   GL2 2054  11.737   1.311   9.574  0.0906  0.0092 -0.0806
  129loPI   C1A 2055  11.523   0.831   9.244 -0.0006 -0.0134 -0.1590
  129loPI   C2A 2056  11.627   0.940   8.783 -0.0977  0.0763 -0.1834
  129loPI   C3A 2057  11.587   0.823   8.377 -0.0524  0.0110 -0.0064
  129loPI   C4A 2058  11.746   0.849   8.087  0.1212  0.0193  0.0246
  129loPI   C5A 2059  11.575   0.551   7.613  0.2055 -0.3569 -0.0583
  129loPI   C6A 2060  11.287   0.363   7.384  0.1881 -0.1820 -0.0802
  129loPI   C1B 2061  11.855   1.249   9.182  0.0004  0.2260  0.0724
  129loPI   C2B 2062  11.938   1.301   8.813  0.3176  0.0093 -0.0201
  129loPI   C3B 2063  11.942   1.264   8.341 -0.0091 -0.2558  0.2774
  129loPI   C4B 2064  11.892   1.318   7.950 -0.2515  0.0935 -0.0031
  130loPI    C1 2065   3.873  13.611  10.954 -0.1687 -0.0335  0.1955
  130loPI    C2 2066   3.544  13.595  11.181 -0.2120 -0.1048  0.1283
  130loPI    C3 2067   3.807  13.294  11.189 -0.2084 -0.1026  0.0916
  130loPI   PO4 2068   3.795  13.645  10.714 -0.3005  0.2523 -0.0558
  130loPI   GL1 2069   4.026  13.768  10.360 -0.0106  0.0402 -0.0705
  130loPI   GL2 2070   3.959  14.052  10.179  0.1210  0.0497 -0.4717
  130loPI   C1A 2071   3.897  13.651   9.925  0.0700 -0.0342 -0.0844
  130loPI   C2A 2072   3.763  13.687   9.498 -0.3143 -0.1010 -0.1616
  130loPI   C3A 2073   3.777  13.731   9.041  0.0800  0.1285  0.1440
  130loPI   C4A 2074   3.796  13.687   8.674  0.3110  0.1670 -0.0549
  130loPI   C5A 2075   3.880  13.690   8.215 -0.2656 -0.0203 -0.2410
  130loPI   C6A 2076   4.287  13.761   7.959  0.3015  0.1663  0.1331
  130loPI   C1B 2077   4.004  14.128   9.780 -0.3615 -0.0283 -0.2618
  130loPI   C2B 2078   4.001  14.178   9.287  0.1212 -0.1121 -0.0673
  130loPI   C3B 2079   3.985  14.157   8.859 -0.1478  0.0798  0.1577
  130loPI   C4B 2080   4.002  14.110   8.423 -0.0651 -0.1429  0.0098
  131loPI    C1 2081  15.532   9.082  10.124 -0.0472  0.1740 -0.0199
  131loPI    C2 2082  15.782   9.043  10.435 -0.1304 -0.0060  0.0259
  131loPI    C3 2083  15.637   8.718  10.252 -0.1479  0.0985 -0.1491
  131loPI   PO4 2084  15.305   9.244  10.152 -0.2633 -0.0907 -0.0555
  131loPI   GL1 2085  15.133   9.489   9.966 -0.2219  0.0285 -0.0394
  131loPI   GL2 2086  15.195   9.750   9.845  0.0481  0.0975 -0.1041
  131loPI   C1A 2087  15.001   9.247   9.572  0.0111 -0.1592 -0.1634
  131loPI   C2A 2088  15.026   9.200   9.199  0.1109  0.2841 -0.2519
  131loPI   C3A 2089  15.071   9.149   8.712  0.0304  0.1029 -0.0879
  131loPI   C4A 2090  14.944   9.257   8.396 -0.1368 -0.2806  0.0684
  131loPI   C5A 2091  14.870   9.552   7.997  0.1708  0.0834 -0.1485
  131loPI   C6A 2092  14.862   9.989   7.812  0.1538 -0.1888  0.3147
  131loPI   C1B 2093  15.300   9.684   9.471 -0.0431 -0.1783  0.0808
  131loPI   C2B 2094  15.168   9.685   9.073 -0.0068  0.1063  0.1881
  131loPI   C3B 2095  15.191   9.679   8.636  0.0093 -0.1439  0.0550
  131loPI   C4B 2096  15.288   9.557   8.232 -0.2638 -0.1413  0.1696
  132loPI    C1 2097   6.513  16.032   9.964 -0.0609 -0.0532 -0.0163
  132loPI    C2 2098   6.597  15.926  10.340 -0.1652  0.0054  0.0238
  132loPI    C3 2099   6.804  15.767  10.037 -0.1200 -0.0859  0.1021
  132loPI   PO4 2100   6.492  16.269   9.935 -0.0805  0.3004  0.4293
  132loPI   GL1 2101   6.246  16.416   9.579  0.1145  0.0967 -0.0350
  132loPI   GL2 2102   6.173  16.710   9.614  0.0726 -0.3277 -0.0195
  132loPI   C1A 2103   6.145  16.031   9.295 -0.3603  0.1192 -0.1196
  132loPI   C2A 2104   6.315  15.937   8.873 -0.2782  0.0881 -0.0434
  132loPI   C3A 2105   6.606  15.790   8.511  0.0917 -0.1889  0.1025
  132loPI   C4A 2106   6.769  16.201   8.283 -0.0443 -0.0623 -0.0417
  132loPI   C5A 2107   6.616  16.585   8.133  0.2527  0.1218  0.2381
  132loPI   C6A 2108   6.913  16.812   7.835 -0.0009 -0.0701  0.0696
  132loPI   C1B 2109   5.878  16.815   9.219  0.0139  0.1021 -0.0371
  132loPI   C2B 2110   5.732  17.236   9.010 -0.1665  0.2290  0.3836
  132loPI   C3B 2111   5.934  17.527   8.713 -0.3780  0.0959  0.0467
  132loPI   C4B 2112   6.273  17.813   8.600 -0.1463  0.3313  0.0401
  133loPI    C1 2113  11.602   7.937  10.190  0.1177  0.1464 -0.0894
  133loPI    C2 2114  11.345   8.056  10.472  0.0608  0.1730 -0.1522
  133loPI    C3 2115  11.618   7.775  10.555  0.0615  0.1998 -0.0631
  133loPI   PO4 2116  11.714   8.186  10.091  0.0932 -0.0727  0.1537
  133loPI   GL1 2117  11.925   8.292   9.673  0.0639 -0.0231 -0.3418
  133loPI   GL2 2118  11.655   8.401   9.713  0.2178 -0.0688  0.0504
  133loPI   C1A 2119  11.869   8.027   9.313 -0.1997  0.4297  0.1331
  133loPI   C2A 2120  11.864   8.030   8.976 -0.3817 -0.3342  0.0338
  133loPI   C3A 2121  11.911   8.103   8.553  0.0601 -0.0640  0.2477
  133loPI   C4A 2122  11.858   8.202   8.143 -0.0682  0.2164 -0.0133
  133loPI   C5A 2123  11.847   8.368   7.740  0.0726  0.1117  0.0319
  133loPI   C6A 2124  11.889   8.091   7.362 -0.2683 -0.0723  0.1832
  133loPI   C1B 2125  11.662   8.443   9.261 -0.1532  0.1909  0.0809
  133loPI   C2B 2126  11.688   8.537   8.863  0.0625  0.1210 -0.1260
  133loPI   C3B 2127  11.639   8.526   8.389 -0.2173 -0.0333  0.0717
  133loPI   C4B 2128  11.415   8.502   7.962  0.2793 -0.1235 -0.1532
  134loPI    C1 2129  14.449  13.292  10.588  0.0373  0.0376 -0.2571
  134loPI    C2 2130  14.748  13.489  10.410  0.3479  0.1372  0.3483
  134loPI    C3 2131  14.591  13.630  10.750 -0.0655 -0.1718  0.2929
  134loPI   PO4 2132  14.296  13.216  10.466  0.1580  0.1916  0.0799
  134loPI   GL1 2133  14.482  13.079   9.947  0.1914  0.1330  0.1264
  134loPI   GL2 2134  14.112  13.170   9.865  0.0781  0.1004 -0.4331
  134loPI   C1A 2135  14.446  13.278   9.498 -0.0361 -0.1275  0.2465
  134loPI   C2A 2136  14.499  13.171   9.106 -0.3743 -0.2246  0.0275
  134loPI   C3A 2137  14.491  13.341   8.728 -0.2256 -0.1638  0.1094
  134loPI   C4A 2138  14.433  13.263   8.293 -0.1905 -0.1805 -0.0966
  134loPI   C5A 2139  14.231  13.370   7.801 -0.0904  0.0788  0.0301
  134loPI   C6A 2140  14.101  13.167   7.436 -0.0066  0.2773  0.0547
  134loPI   C1B 2141  13.959  13.227   9.443  0.0626 -0.1460  0.1328
  134loPI   C2B 2142  13.952  13.227   9.012  0.1930  0.0415 -0.2761
  134loPI   C3B 2143  13.970  13.255   8.577 -0.0945 -0.1767 -0.0501
  134loPI   C4B 2144  13.827  13.030   8.167  0.3902  0.2725 -0.0408
  135loPI    C1 2145  17.044  11.880  10.713  0.0465 -0.3070 -0.0265
  135loPI    C2 2146  17.314  12.029  10.969 -0.0272  0.0064 -0.1264
  135loPI    C3 2147  17.071  11.733  11.084  0.1094 -0.0261  0.0835
  135loPI   PO4 2148  17.233  11.913  10.487  0.0516 -0.0703  0.0391
  135loPI   GL1 2149  17.262  11.640  10.124 -0.1312 -0.2034  0.3293
  135loPI   GL2 2150  17.536  11.786   9.935 -0.3062 -0.2288  0.3735
  135loPI   C1A 2151  17.126  11.525   9.799 -0.0119 -0.0200 -0.0286
  135loPI   C2A 2152  17.118  11.525   9.343 -0.0447 -0.1851  0.2501
  135loPI   C3A 2153  17.206  11.578   8.885 -0.1626  0.0587 -0.0775
  135loPI   C4A 2154  17.112  11.670   8.476 -0.0804 -0.2023 -0.2006
  135loPI   C5A 2155  17.188  11.793   8.051  0.2372  0.1024  0.1919
  135loPI   C6A 2156  17.372  12.098   7.806  0.0227 -0.2971 -0.2103
  135loPI   C1B 2157  17.612  11.599   9.494  0.4798  0.0166  0.3428
  135loPI   C2B 2158  17.686  11.594   9.084 -0.0120  0.0476  0.2100
  135loPI   C3B 2159  17.640  11.699   8.645  0.0558 -0.0993  0.0854
  135loPI   C4B 2160  17.679  11.881   8.232  0.0228 -0.0081  0.1826
  136loPI    C1 2161  15.086  17.403  10.817 -0.1136 -0.0468 -0.0843
  136loPI    C2 2162  14.781  17.573  11.013 -0.1330 -0.1193 -0.0514
  136loPI    C3 2163  15.084  17.411  11.217 -0.2030 -0.2868 -0.0783
  136loPI   PO4 2164  15.038  17.622  10.558 -0.1354  0.0442 -0.1629
  136loPI   GL1 2165  14.867  17.612  10.148 -0.1486 -0.1007  0.0816
  136loPI   GL2 2166  14.493  17.612  10.085  0.0195  0.1333  0.0922
  136loPI   C1A 2167  15.035  17.438   9.787 -0.0994 -0.0306 -0.1106
  136loPI   C2A 2168  15.051  17.275   9.465  0.0834 -0.1843  0.1278
  136loPI   C3A 2169  15.083  17.240   9.046 -0.0153  0.2546 -0.2134
  136loPI   C4A 2170  15.061  17.205   8.619  0.0724 -0.1955 -0.0104
  136loPI   C5A 2171  14.918  17.179   8.131 -0.2211 -0.1235 -0.1440
  136loPI   C6A 2172  14.607  16.977   7.994  0.1395  0.3498 -0.1318
  136loPI   C1B 2173  14.541  17.379   9.719  0.0561  0.3902  0.0697
  136loPI   C2B 2174  14.525  17.254   9.333 -0.1437 -0.2663  0.2375
  136loPI   C3B 2175  14.545  17.242   8.912 -0.2145  0.1468  0.1804
  136loPI   C4B 2176  14.595  17.171   8.540  0.0094 -0.0544 -0.0750
  137loPI    C1 2177   2.586  16.689  10.535 -0.0550  0.1252 -0.0116
  137loPI    C2 2178   2.194  16.615  10.565 -0.0048 -0.0553  0.2332
  137loPI    C3 2179   2.429  16.579  10.887  0.2084  0.0854  0.0958
  137loPI   PO4 2180   2.481  16.844  10.196 -0.0126  0.0786  0.0394
  137loPI   GL1 2181   2.302  17.188   9.920 -0.0137  0.2725 -0.1725
  137loPI   GL2 2182   1.947  17.192   9.871  0.3026 -0.3020 -0.1888
  137loPI   C1A 2183   2.424  17.137   9.443  0.3017 -0.0635 -0.1869
  137loPI   C2A 2184   2.494  17.169   8.948 -0.1777 -0.3267 -0.0527
  137loPI   C3A 2185   2.528  17.007   8.644  0.0794  0.0238 -0.1152
  137loPI   C4A 2186   2.366  17.237   8.330 -0.3592 -0.0807 -0.1000
  137loPI   C5A 2187   2.389  17.553   7.995  0.0667  0.0074  0.0409
  137loPI   C6A 2188   2.457  17.581   7.521 -0.0339  0.1746  0.0228
  137loPI   C1B 2189   1.826  17.216   9.451 -0.0099 -0.2725  0.1970
  137loPI   C2B 2190   1.974  17.253   8.995  0.1590  0.1113 -0.1952
  137loPI   C3B 2191   2.009  17.205   8.620  0.0311 -0.2045 -0.2483
  137loPI   C4B 2192   1.771  17.201   8.162 -0.3569  0.1553  0.1467
  138loPI    C1 2193  14.559  17.284  10.575 -0.1415 -0.2631  0.0338
  138loPI    C2 2194  14.731  17.038  10.839 -0.0178 -0.1116  0.0962
  138loPI    C3 2195  14.432  17.277  10.954  0.1846  0.1170  0.1586
  138loPI   PO4 2196  14.443  17.122  10.344 -0.3278 -0.1806 -0.0757
  138loPI   GL1 2197  14.399  16.900  10.033 -0.0474  0.4170 -0.2075
  138loPI   GL2 2198  14.804  17.051   9.979 -0.1279  0.1791 -0.2603
  138loPI   C1A 2199  14.203  16.958   9.638  0.3161  0.1455  0.0031
  138loPI   C2A 2200  14.198  16.828   9.145 -0.0954  0.1077 -0.1369
  138loPI   C3A 2201  14.321  16.793   8.896 -0.0405  0.1917 -0.1612
  138loPI   C4A 2202  14.384  16.718   8.546 -0.2314  0.0490  0.2247
  138loPI   C5A 2203  14.289  16.560   8.173  0.2497 -0.0222 -0.1467
  138loPI   C6A 2204  13.980  16.596   7.766  0.1820 -0.3465 -0.2245
  138loPI   C1B 2205  14.735  16.855   9.618  0.1101 -0.2702 -0.1920
  138loPI   C2B 2206  14.766  16.808   9.215  0.2725 -0.1283 -0.1489
  138loPI   C3B 2207  14.902  16.813   8.806  0.0503  0.5037  0.3798
  138loPI   C4B 2208  14.857  16.685   8.393  0.1917  0.2593  0.1147
  139loPI    C1 2209   3.847   6.090  10.370  0.1365 -0.0479 -0.0483
  139loPI    C2 2210   3.823   6.128  10.768 -0.1878 -0.1616 -0.0534
  139loPI    C3 2211   4.180   6.124  10.588 -0.0384 -0.1173  0.2361
  139loPI   PO4 2212   3.596   6.154  10.337  0.0489 -0.4675  0.1614
  139loPI   GL1 2213   3.545   6.287   9.942  0.1964  0.0951  0.0401
  139loPI   GL2 2214   3.286   6.124   9.962 -0.1872  0.1305  0.1804
  139loPI   C1A 2215   3.339   6.406   9.571 -0.1691  0.1174 -0.1965
  139loPI   C2A 2216   3.058   6.392   9.173 -0.1379  0.4359 -0.0445
  139loPI   C3A 2217   3.030   6.398   8.705  0.0287 -0.0640  0.0559
  139loPI   C4A 2218   2.899   6.586   8.311 -0.2106 -0.0350  0.1553
  139loPI   C5A 2219   2.830   6.751   7.970  0.3391 -0.2196  0.1440
  139loPI   C6A 2220   2.443   6.802   7.751 -0.2245 -0.1391  0.0357
  139loPI   C1B 2221   3.171   5.973   9.525 -0.1320 -0.1967 -0.1394
  139loPI   C2B 2222   3.396   6.042   9.173  0.1235 -0.1064  0.0231
  139loPI   C3B 2223   3.450   6.146   8.789  0.3582 -0.2789 -0.4019
  139loPI   C4B 2224   3.561   6.129   8.369 -0.1831  0.0661  0.3663
  140loPI    C1 2225   2.412   0.908  10.242  0.0959  0.2023 -0.2678
  140loPI    C2 2226   2.152   1.185  10.369  0.1879  0.1019  0.1543
  140loPI    C3 2227   2.065   0.797  10.408  0.2958  0.0688  0.0711
  140loPI   PO4 2228   2.610   1.002  10.078 -0.2018 -0.0692  0.0593
  140loPI   GL1 2229   2.479   1.194   9.756 -0.0060 -0.2628 -0.1888
  140loPI   GL2 2230   2.313   1.474   9.894  0.0634  0.0491  0.1605
  140loPI   C1A 2231   2.687   1.492   9.446 -0.0538 -0.4298  0.0011
  140loPI   C2A 2232   2.928   1.502   9.077  0.0583 -0.1487 -0.0271
  140loPI   C3A 2233   2.833   1.373   8.729  0.0582 -0.3284  0.1300
  140loPI   C4A 2234   2.746   1.097   8.386 -0.5179 -0.1397 -0.2922
  140loPI   C5A 2235   2.405   1.031   8.179 -0.2381  0.1654 -0.2128
  140loPI   C6A 2236   2.097   0.687   8.250  0.2210  0.0145 -0.1610
  140loPI   C1B 2237   2.190   1.714   9.519  0.1552 -0.0341  0.1656
  140loPI   C2B 2238   2.007   1.856   9.185 -0.3107  0.2518 -0.1443
  140loPI   C3B 2239   2.079   2.046   8.801  0.0603  0.0625  0.1140
  140loPI   C4B 2240   2.234   2.016   8.360 -0.1726 -0.2732 -0.1354
  141loPI    C1 2241  11.786  14.351  10.695 -0.0352  0.1271  0.2907
  141loPI    C2 2242  12.037  14.054  10.791 -0.2144 -0.0394  0.2501
  141loPI    C3 2243  11.738  14.152  11.039 -0.1269  0.1405  0.2861
  141loPI   PO4 2244  11.719  14.319  10.503 -0.1197 -0.0212  0.0328
  141loPI   GL1 2245  11.465  14.115  10.060  0.0898 -0.0965 -0.1393
  141loPI   GL2 2246  11.398  13.960  10.193 -0.0426 -0.1593 -0.0902
  141loPI   C1A 2247  11.317  13.943   9.632  0.1189 -0.1386  0.2062
  141loPI   C2A 2248  11.249  13.841   9.188  0.2514 -0.0681  0.1799
  141loPI   C3A 2249  11.272  13.844   8.664 -0.1029  0.0597 -0.3481
  141loPI   C4A 2250  11.320  13.910   8.230  0.1784 -0.0557  0.1181
  141loPI   C5A 2251  11.475  14.010   7.778 -0.2207  0.1967 -0.1942
  141loPI   C6A 2252  11.633  13.635   7.505 -0.0040  0.0602  0.1901
  141loPI   C1B 2253  11.670  13.639  10.004  0.1232 -0.3971  0.5298
  141loPI   C2B 2254  11.586  13.440   9.623 -0.3285 -0.2111 -0.0382
  141loPI   C3B 2255  11.590  13.496   9.186 -0.1250 -0.0279 -0.2082
  141loPI   C4B 2256  11.572  13.473   8.811  0.0624  0.0658 -0.0077
  142loPI    C1 2257   8.908  14.809  10.483 -0.1071  0.0254 -0.1699
  142loPI    C2 2258   8.880  14.537  10.775 -0.1806  0.1149 -0.0932
  142loPI    C3 2259   8.756  14.913  10.838 -0.0841  0.1653 -0.2003
  142loPI   PO4 2260   9.161  14.683  10.409 -0.0346  0.0885 -0.0068
  142loPI   GL1 2261   9.534  14.731  10.331 -0.1291  0.1450  0.1190
  142loPI   GL2 2262   9.746  14.860  10.174 -0.0460  0.0325 -0.1981
  142loPI   C1A 2263   9.529  14.389   9.943  0.0324 -0.0862  0.0672
  142loPI   C2A 2264   9.430  14.223   9.649 -0.1112  0.0606 -0.1421
  142loPI   C3A 2265   9.488  14.163   9.245 -0.1102 -0.0773 -0.0137
  142loPI   C4A 2266   9.468  14.101   8.823  0.1758  0.1132 -0.0626
  142loPI   C5A 2267   9.478  14.136   8.410 -0.1894  0.1147 -0.1562
  142loPI   C6A 2268   9.153  13.950   8.089 -0.0044 -0.0947 -0.1136
  142loPI   C1B 2269   9.677  14.811   9.769  0.2391 -0.2329 -0.0467
  142loPI   C2B 2270   9.733  14.723   9.328  0.1879 -0.1018 -0.1940
  142loPI   C3B 2271   9.729  14.621   8.978 -0.2049 -0.0249  0.1373
  142loPI   C4B 2272   9.508  14.589   8.674 -0.0306 -0.0938  0.1877
  143loPI    C1 2273  16.868   8.352  10.695 -0.2169 -0.0439 -0.1365
  143loPI    C2 2274  17.112   8.145  10.935 -0.0431  0.0700 -0.2123
  143loPI    C3 2275  16.720   8.064  10.930 -0.0825  0.2001  0.2571
  143loPI   PO4 2276  17.049   8.349  10.463 -0.0562 -0.1190  0.0106
  143loPI   GL1 2277  16.990   8.282   9.943  0.2086  0.2433 -0.2699
  143loPI   GL2 2278  17.179   8.614   9.941  0.3045  0.1527  0.1426
  143loPI   C1A 2279  16.766   8.452   9.676  0.0868  0.3060 -0.2858
  143loPI   C2A 2280  16.695   8.437   9.201 -0.0134 -0.1925 -0.3661
  143loPI   C3A 2281  16.614   8.442   8.777 -0.0237 -0.0881 -0.0120
  143loPI   C4A 2282  16.651   8.443   8.331 -0.2823  0.2344 -0.1451
  143loPI   C5A 2283  16.634   8.349   7.955  0.0505  0.0075 -0.1141
  143loPI   C6A 2284  16.808   8.185   7.628 -0.2422 -0.0187  0.0837
  143loPI   C1B 2285  17.219   8.479   9.496  0.1959 -0.2700  0.2628
  143loPI   C2B 2286  17.170   8.491   9.008  0.1941 -0.0604 -0.1696
  143loPI   C3B 2287  17.146   8.562   8.550 -0.1811 -0.3933  0.1087
  143loPI   C4B 2288  17.183   8.546   8.130 -0.0670  0.0717  0.2255
  144loPI    C1 2289  14.547  16.280  10.840 -0.2056  0.2648  0.1339
  144loPI    C2 2290  14.874  16.467  10.976  0.0244  0.0001 -0.0440
  144loPI    C3 2291  14.648  16.253  11.227  0.0941  0.0279  0.0429
  144loPI   PO4 2292  14.632  16.146  10.621 -0.1128  0.0202 -0.0800
  144loPI   GL1 2293  14.991  16.118  10.221  0.3006 -0.0962  0.0806
  144loPI   GL2 2294  14.665  16.013  10.135 -0.0031 -0.3266  0.2316
  144loPI   C1A 2295  14.882  16.474   9.999  0.3051 -0.0081  0.2968
  144loPI   C2A 2296  14.962  16.401   9.551 -0.3208  0.1643  0.1182
  144loPI   C3A 2297  15.050  16.284   9.164  0.1692 -0.3805 -0.2783
  144loPI   C4A 2298  15.010  16.293   8.774  0.2117  0.2112  0.0864
  144loPI   C5A 2299  15.046  16.121   8.349 -0.0487  0.0701 -0.0527
  144loPI   C6A 2300  15.068  15.826   7.994  0.4153 -0.0723  0.1385
  144loPI   C1B 2301  14.722  16.020   9.676 -0.1056  0.2842  0.0085
  144loPI   C2B 2302  14.658  15.987   9.285  0.1730 -0.3245 -0.0324
  144loPI   C3B 2303  14.731  15.885   8.808  0.1129 -0.2248  0.0515
  144loPI   C4B 2304  14.764  15.713   8.378  0.0982  0.0750 -0.0251
  145loPI    C1 2305  12.221   9.013  10.320 -0.0707  0.0209  0.0280
  145loPI    C2 2306  12.394   8.982  10.679  0.0516  0.0364 -0.0291
  145loPI    C3 2307  12.000   8.925  10.641 -0.0029  0.2793  0.1482
  145loPI   PO4 2308  12.316   9.119  10.172  0.0572 -0.0294  0.0432
  145loPI   GL1 2309  12.372   9.109   9.832  0.0060  0.2073 -0.0641
  145loPI   GL2 2310  12.522   9.036   9.577  0.0619 -0.0197  0.0082
  145loPI   C1A 2311  12.110   9.299   9.509  0.1737 -0.0405 -0.0558
  145loPI   C2A 2312  12.101   9.395   9.076  0.1366  0.0474 -0.0626
  145loPI   C3A 2313  12.021   9.459   8.723  0.0568 -0.0985 -0.1667
  145loPI   C4A 2314  11.999   9.517   8.193 -0.0565  0.0970  0.0949
  145loPI   C5A 2315  11.996   9.564   7.803 -0.2178  0.0396 -0.0067
  145loPI   C6A 2316  12.110   9.816   7.440 -0.3186  0.1724  0.2675
  145loPI   C1B 2317  12.374   8.968   9.196  0.1216  0.2759 -0.2305
  145loPI   C2B 2318  12.358   8.961   8.705  0.1931 -0.1392  0.1043
  145loPI   C3B 2319  12.283   9.086   8.219  0.1083 -0.1648 -0.0548
  145loPI   C4B 2320  12.331   9.127   7.816 -0.2822 -0.2106 -0.2742
  146loPI    C1 2321  16.298   2.878  10.568 -0.0040 -0.1327  0.2083
  146loPI    C2 2322  16.658   2.734  10.664  0.0881  0.0162  0.0906
  146loPI    C3 2323  16.580   3.123  10.709 -0.0158  0.0073 -0.0079
  146loPI   PO4 2324  16.280   2.702  10.312  0.1645 -0.0093  0.3595
  146loPI   GL1 2325  16.332   2.825  10.005 -0.2257  0.1305 -0.1245
  146loPI   GL2 2326  16.213   2.496   9.831 -0.1012  0.1784 -0.1496
  146loPI   C1A 2327  16.353   2.910   9.607  0.0012 -0.0469 -0.0653
  146loPI   C2A 2328  16.281   2.797   9.201  0.0493  0.1128 -0.1065
  146loPI   C3A 2329  16.289   2.576   8.914 -0.0256 -0.2514  0.0717
  146loPI   C4A 2330  15.992   2.236   8.897 -0.3032 -0.0191  0.2665
  146loPI   C5A 2331  15.572   2.328   8.803  0.1769 -0.2109 -0.0489
  146loPI   C6A 2332  15.249   2.008   8.674 -0.2276 -0.0880  0.2590
  146loPI   C1B 2333  16.172   2.346   9.405 -0.0765 -0.1732 -0.4029
  146loPI   C2B 2334  16.431   2.130   9.168  0.0117 -0.1371  0.3234
  146loPI   C3B 2335  16.473   2.117   8.803  0.0562 -0.1219  0.3267
  146loPI   C4B 2336  16.299   2.117   8.329 -0.0935 -0.2125 -0.3010
  147loPI    C1 2337   1.518   7.294  10.629 -0.1858  0.1973 -0.1028
  147loPI    C2 2338   1.140   7.317  10.758 -0.1675  0.1908 -0.0480
  147loPI    C3 2339   1.439   7.283  11.021 -0.1525 -0.1400 -0.1026
  147loPI   PO4 2340   1.559   7.173  10.401 -0.2179 -0.0693 -0.0047
  147loPI   GL1 2341   1.720   7.333  10.003  0.1065  0.0367  0.2925
  147loPI   GL2 2342   1.681   7.679  10.022 -0.1333 -0.0431 -0.0690
  147loPI   C1A 2343   1.577   7.417   9.567 -0.0554 -0.2198  0.2436
  147loPI   C2A 2344   1.567   7.544   9.108 -0.0577 -0.0580 -0.1486
  147loPI   C3A 2345   1.737   7.628   8.691  0.0128  0.6135 -0.1332
  147loPI   C4A 2346   1.650   7.544   8.374  0.2994 -0.0907 -0.1248
  147loPI   C5A 2347   1.212   7.559   8.019 -0.0055  0.1158 -0.2105
  147loPI   C6A 2348   0.877   7.786   7.999 -0.2517  0.2987  0.0713
  147loPI   C1B 2349   1.635   7.899   9.678 -0.1676 -0.1547  0.2642
  147loPI   C2B 2350   1.708   8.009   9.309  0.3754  0.3934  0.1079
  147loPI   C3B 2351   1.883   8.003   9.023 -0.0970  0.1057  0.1624
  147loPI   C4B 2352   2.005   8.009   8.588 -0.1110 -0.1436  0.0854
  148loPI    C1 2353  11.258   8.442  10.000 -0.0716 -0.0876  0.0122
  148loPI    C2 2354  11.306   8.521  10.389 -0.2451  0.1914 -0.0204
  148loPI    C3 2355  11.585   8.635  10.126  0.0610 -0.3378  0.0593
  148loPI   PO4 2356  11.197   8.199   9.978 -0.1677 -0.1575  0.1052
  148loPI   GL1 2357  11.086   8.083   9.599 -0.2183  0.1033 -0.0841
  148loPI   GL2 2358  10.869   8.000   9.294 -0.0463  0.0038  0.3073
  148loPI   C1A 2359  11.180   8.424   9.348  0.1420 -0.3376 -0.1260
  148loPI   C2A 2360  11.185   8.520   8.862  0.2142 -0.2985  0.1271
  148loPI   C3A 2361  11.031   8.346   8.471  0.0215  0.0461 -0.3108
  148loPI   C4A 2362  10.932   8.512   8.000  0.1930  0.2404 -0.1257
  148loPI   C5A 2363  11.098   8.631   7.567  0.3331  0.1363 -0.0271
  148loPI   C6A 2364  11.146   8.442   7.128  0.1684  0.5075 -0.2675
  148loPI   C1B 2365  10.788   7.999   8.810  0.2788 -0.0301 -0.4402
  148loPI   C2B 2366  10.965   7.882   8.418  0.1338  0.0014 -0.0081
  148loPI   C3B 2367  11.154   7.523   8.279 -0.2608 -0.0016  0.0641
  148loPI   C4B 2368  11.343   7.592   7.930  0.2191  0.1209  0.1509
  149loPI    C1 2369  14.913   5.205  10.172  0.0374 -0.2489  0.1129
  149loPI    C2 2370  14.709   5.544  10.232  0.2504 -0.0461 -0.2669
  149loPI    C3 2371  14.982   5.424  10.499  0.0010 -0.0512 -0.0102
  149loPI   PO4 2372  15.079   5.297   9.890  0.4947 -0.1822  0.0481
  149loPI   GL1 2373  15.040   5.596   9.615  0.1994 -0.2503 -0.1296
  149loPI   GL2 2374  15.149   5.913   9.579 -0.0021 -0.0310 -0.1540
  149loPI   C1A 2375  14.928   5.547   9.201  0.1245 -0.0248  0.1701
  149loPI   C2A 2376  14.828   5.721   8.804  0.3514  0.0857 -0.1816
  149loPI   C3A 2377  14.850   5.682   8.432  0.0370  0.2603  0.1012
  149loPI   C4A 2378  14.826   5.769   8.051 -0.0696 -0.2564  0.1523
  149loPI   C5A 2379  14.712   5.951   7.724 -0.1811  0.2519  0.0415
  149loPI   C6A 2380  14.558   6.446   7.639  0.0501 -0.2260  0.0737
  149loPI   C1B 2381  15.067   6.031   9.205  0.0989  0.0908  0.0722
  149loPI   C2B 2382  15.161   6.112   8.680  0.4066  0.0959  0.4522
  149loPI   C3B 2383  15.068   6.127   8.204  0.0549  0.2173  0.0328
  149loPI   C4B 2384  14.747   6.350   8.065 -0.0092  0.0875  0.2336
  150loPI    C1 2385  10.956   0.137  10.514  0.0426 -0.1398 -0.0655
  150loPI    C2 2386  10.756   0.465  10.628  0.1836 -0.0941  0.0538
  150loPI    C3 2387  10.559   0.124  10.561  0.0699 -0.0596  0.2085
  150loPI   PO4 2388  11.067   0.229  10.234 -0.4282 -0.1676  0.1502
  150loPI   GL1 2389  11.003   0.025   9.887  0.2044  0.0131  0.1562
  150loPI   GL2 2390  11.056  -0.353   9.835  0.0940  0.2436  0.2140
  150loPI   C1A 2391  10.874   0.270   9.442  0.1986 -0.2045 -0.1549
  150loPI   C2A 2392  10.793   0.493   9.043 -0.0312 -0.3386 -0.1604
  150loPI   C3A 2393  10.877   0.436   8.630 -0.2350  0.0871  0.0218
  150loPI   C4A 2394  10.873   0.280   8.225 -0.1254 -0.1235  0.2637
  150loPI   C5A 2395  10.868   0.110   7.812 -0.3993 -0.1871 -0.0423
  150loPI   C6A 2396  11.002  -0.031   7.422  0.1354 -0.0101  0.1172
  150loPI   C1B 2397  10.837  -0.242   9.424  0.1406 -0.2566  0.0249
  150loPI   C2B 2398  10.645   0.023   9.012 -0.2962  0.1247  0.2890
  150loPI   C3B 2399  10.548  -0.065   8.567 -0.0433 -0.0231 -0.0701
  150loPI   C4B 2400  10.533  -0.027   8.167  0.3666 -0.0924  0.2373
  151loPI    C1 2401  13.380  17.343  10.682  0.0603  0.1090 -0.0161
  151loPI    C2 2402  13.584  17.063  10.882  0.1063  0.0554 -0.1368
  151loPI    C3 2403  13.348  17.318  11.080 -0.1271 -0.2238 -0.0485
  151loPI   PO4 2404  13.542  17.485  10.526  0.0320 -0.1821  0.1134
  151loPI   GL1 2405  13.718  17.643  10.138 -0.1101 -0.2026 -0.2706
  151loPI   GL2 2406  13.412  17.551   9.994 -0.0218 -0.0459 -0.2848
  151loPI   C1A 2407  13.989  17.528   9.804  0.3051  0.1621 -0.4254
  151loPI   C2A 2408  13.997  17.333   9.359  0.0377 -0.0978  0.2727
  151loPI   C3A 2409  13.984  17.383   9.019 -0.0197  0.1162 -0.2135
  151loPI   C4A 2410  14.135  17.288   8.536 -0.1865  0.1741 -0.0691
  151loPI   C5A 2411  14.159  17.132   8.194  0.0363  0.1581 -0.3160
  151loPI   C6A 2412  14.214  17.297   7.775  0.0553 -0.0758 -0.0817
  151loPI   C1B 2413  13.506  17.577   9.593 -0.1910 -0.3985 -0.4932
  151loPI   C2B 2414  13.528  17.405   9.210  0.0011  0.0610  0.0239
  151loPI   C3B 2415  13.609  17.324   8.754  0.1477  0.1987  0.1850
  151loPI   C4B 2416  13.687  17.286   8.306 -0.4717  0.3288 -0.2299
  152loPI    C1 2417   4.372   0.226  10.413  0.2188 -0.0421 -0.0860
  152loPI    C2 2418   4.223   0.517  10.644 -0.1437 -0.1948 -0.1213
  152loPI    C3 2419   4.352   0.176  10.809 -0.1645 -0.2028 -0.1214
  152loPI   PO4 2420   4.178   0.122  10.219  0.1470  0.1154 -0.4061
  152loPI   GL1 2421   3.948   0.069   9.820 -0.1405  0.0103 -0.1855
  152loPI   GL2 2422   4.075   0.317   9.658  0.1399  0.0714 -0.1279
  152loPI   C1A 2423   3.907  -0.167   9.587 -0.1091 -0.0380 -0.0542
  152loPI   C2A 2424   3.806  -0.123   9.181 -0.3518  0.2507  0.1102
  152loPI   C3A 2425   3.812   0.024   8.710 -0.0308 -0.3702  0.4001
  152loPI   C4A 2426   3.714   0.103   8.278 -0.0251  0.0167  0.0742
  152loPI   C5A 2427   3.457  -0.080   7.992 -0.0742 -0.3052 -0.2744
  152loPI   C6A 2428   3.089  -0.313   7.963 -0.1191  0.1520  0.1001
  152loPI   C1B 2429   4.424   0.292   9.356 -0.2307  0.0767  0.0710
  152loPI   C2B 2430   4.302   0.319   8.886  0.0847  0.1083  0.1655
  152loPI   C3B 2431   4.229   0.150   8.476 -0.2020 -0.0500 -0.1344
  152loPI   C4B 2432   4.304   0.138   8.072 -0.0171  0.0004  0.3546
  153loPI    C1 2433  12.714   5.402  10.440  0.0712  0.0811  0.0543
  153loPI    C2 2434  12.595   5.025  10.502  0.0176  0.1177  0.1778
  153loPI    C3 2435  12.509   5.308  10.771  0.0268  0.2252  0.0684
  153loPI   PO4 2436  12.647   5.438  10.202  0.1265 -0.1948 -0.0057
  153loPI   GL1 2437  12.730   5.393   9.776  0.0663 -0.2497  0.2775
  153loPI   GL2 2438  12.832   5.204   9.646  0.2949 -0.0383  0.2949
  153loPI   C1A 2439  12.596   5.413   9.191 -0.0395 -0.1379 -0.0212
  153loPI   C2A 2440  12.609   5.422   8.742 -0.0404 -0.1750 -0.0716
  153loPI   C3A 2441  12.684   5.384   8.357 -0.0249  0.1854  0.0441
  153loPI   C4A 2442  12.731   5.512   7.858 -0.1569  0.1303  0.1871
  153loPI   C5A 2443  12.876   5.510   7.394  0.1054 -0.0703 -0.0625
  153loPI   C6A 2444  12.611   5.633   7.079 -0.1886 -0.0502  0.1416
  153loPI   C1B 2445  12.807   4.969   9.283 -0.2453 -0.0445 -0.0055
  153loPI   C2B 2446  12.939   4.936   8.893 -0.2420 -0.0233  0.4138
  153loPI   C3B 2447  12.822   4.893   8.523 -0.0569 -0.1392 -0.0872
  153loPI   C4B 2448  12.869   5.018   8.025  0.1371  0.0215 -0.0649
  154loPI    C1 2449   4.966  12.768  10.952  0.1425 -0.0478  0.0878
  154loPI    C2 2450   4.863  12.613  11.306 -0.1958  0.1385  0.0753
  154loPI    C3 2451   5.032  12.975  11.288  0.1096 -0.0014  0.0658
  154loPI   PO4 2452   4.841  12.639  10.780 -0.0589  0.3417 -0.1851
  154loPI   GL1 2453   4.704  12.692  10.384  0.1034 -0.0382 -0.0522
  154loPI   GL2 2454   4.836  12.366  10.220 -0.2691  0.1521 -0.0258
  154loPI   C1A 2455   4.545  12.816  10.047  0.1332 -0.0667 -0.0963
  154loPI   C2A 2456   4.400  12.834   9.663 -0.1995 -0.0811 -0.0796
  154loPI   C3A 2457   4.339  12.850   9.322  0.0821  0.3341  0.1794
  154loPI   C4A 2458   4.457  12.853   8.944  0.1189 -0.0431  0.0005
  154loPI   C5A 2459   4.404  12.879   8.472 -0.0741  0.3372 -0.1719
  154loPI   C6A 2460   4.565  12.860   8.022 -0.1197 -0.0216  0.2357
  154loPI   C1B 2461   4.752  12.437   9.757 -0.1925  0.1662  0.0130
  154loPI   C2B 2462   4.698  12.375   9.335 -0.0216  0.0555 -0.1593
  154loPI   C3B 2463   4.722  12.432   8.907  0.4215  0.1922 -0.0484
  154loPI   C4B 2464   4.716  12.483   8.423  0.0307 -0.0415 -0.0871
  155loPI    C1 2465   6.302  13.558  10.999 -0.0442 -0.3068 -0.0430
  155loPI    C2 2466   6.055  13.466  11.300 -0.0037 -0.1156  0.0508
  155loPI    C3 2467   5.987  13.792  11.078  0.1937 -0.0316  0.1118
  155loPI   PO4 2468   6.375  13.352  10.833 -0.0169  0.1997  0.2736
  155loPI   GL1 2469   6.540  13.262  10.424 -0.0866  0.2495  0.1108
  155loPI   GL2 2470   6.434  13.562  10.315 -0.1539 -0.1231 -0.2745
  155loPI   C1A 2471   6.612  13.192  10.062  0.1814 -0.0325  0.0984
  155loPI   C2A 2472   6.438  13.064   9.661  0.1047  0.1183  0.0726
  155loPI   C3A 2473   6.413  13.069   9.296  0.3214 -0.1985  0.0819
  155loPI   C4A 2474   6.475  13.061   8.819  0.0641  0.0643  0.0951
  155loPI   C5A 2475   6.467  13.105   8.331 -0.1778 -0.3215  0.1636
  155loPI   C6A 2476   6.258  13.430   8.115  0.0415  0.1353  0.1158
  155loPI   C1B 2477   6.198  13.625   9.968 -0.1372 -0.0526  0.1295
  155loPI   C2B 2478   6.178  13.494   9.561  0.1512  0.2637 -0.1896
  155loPI   C3B 2479   6.167  13.412   9.088  0.2778  0.0995 -0.1867
  155loPI   C4B 2480   6.250  13.465   8.644  0.2655 -0.1117  0.0835
  156loPI    C1 2481   1.132   0.719  10.720 -0.2020  0.0832 -0.0803
  156loPI    C2 2482   0.933   0.548  11.022 -0.1106 -0.0908 -0.1170
  156loPI    C3 2483   0.819   0.906  10.884 -0.0613  0.0592  0.2219
  156loPI   PO4 2484   1.149   0.539  10.580  0.2920 -0.0840 -0.0206
  156loPI   GL1 2485   1.233   0.471  10.145 -0.2553 -0.0023  0.2315
  156loPI   GL2 2486   1.349   0.690   9.792 -0.2434  0.1335 -0.2022
  156loPI   C1A 2487   0.956   0.329   9.852  0.1125 -0.0682 -0.2278
  156loPI   C2A 2488   0.884   0.239   9.498 -0.0357 -0.3074  0.0380
  156loPI   C3A 2489   0.702   0.148   9.185 -0.0057  0.0419 -0.1285
  156loPI   C4A 2490   0.643   0.106   8.805 -0.0400  0.1838 -0.0624
  156loPI   C5A 2491   0.722   0.027   8.362 -0.1032 -0.0598 -0.0106
  156loPI   C6A 2492   0.602  -0.300   7.977 -0.0066  0.3469  0.0834
  156loPI   C1B 2493   0.995   0.738   9.536 -0.0460 -0.0924 -0.5520
  156loPI   C2B 2494   0.626   0.641   9.248 -0.1531 -0.0138  0.3939
  156loPI   C3B 2495   0.523   0.549   8.931  0.0461 -0.1401 -0.0414
  156loPI   C4B 2496   0.569   0.547   8.468 -0.0315  0.0588 -0.0054
  157loPI    C1 2497   9.840  12.527  10.713  0.3394 -0.2253  0.0116
  157loPI    C2 2498  10.207  12.435  10.843  0.3665 -0.1212  0.0102
  157loPI    C3 2499   9.999  12.725  11.022  0.2964 -0.1597 -0.0082
  157loPI   PO4 2500   9.965  12.523  10.439  0.0119 -0.2822 -0.3663
  157loPI   GL1 2501   9.981  12.381  10.027 -0.0252  0.1626 -0.3469
  157loPI   GL2 2502   9.821  12.106   9.908 -0.0955 -0.0066 -0.3126
  157loPI   C1A 2503  10.010  12.478   9.560  0.1081 -0.0370  0.1171
  157loPI   C2A 2504  10.138  12.440   9.208  0.1887  0.1223 -0.2305
  157loPI   C3A 2505  10.084  12.474   8.769 -0.2370  0.0947 -0.0272
  157loPI   C4A 2506  10.173  12.488   8.338 -0.1244  0.1729 -0.0302
  157loPI   C5A 2507  10.526  12.618   8.083 -0.0610  0.0232 -0.0586
  157loPI   C6A 2508  10.806  12.976   7.963 -0.0624  0.0983 -0.0495
  157loPI   C1B 2509   9.860  11.973   9.472  0.0766  0.3034 -0.3456
  157loPI   C2B 2510   9.910  11.953   8.943  0.0339  0.2559 -0.2382
  157loPI   C3B 2511   9.892  11.967   8.462 -0.0949  0.2045  0.0247
  157loPI   C4B 2512   9.764  11.798   8.038  0.6486 -0.0722  0.1085
  158loPI    C1 2513  11.707   1.027  10.164 -0.2077 -0.1244 -0.0502
  158loPI    C2 2514  11.613   0.658  10.283 -0.0688 -0.1211  0.0723
  158loPI    C3 2515  11.661   0.949  10.553 -0.0416 -0.0456 -0.0137
  158loPI   PO4 2516  11.866   0.954   9.938  0.0184 -0.2252 -0.0339
  158loPI   GL1 2517  12.038   0.869   9.575 -0.0650  0.1923 -0.1186
  158loPI   GL2 2518  11.798   0.597   9.573  0.0355  0.0798 -0.2086
  158loPI   C1A 2519  12.073   0.818   9.121  0.3895 -0.0762 -0.0873
  158loPI   C2A 2520  12.088   0.759   8.743 -0.0646 -0.0208  0.1923
  158loPI   C3A 2521  12.191   0.805   8.351 -0.0945 -0.4134  0.1955
  158loPI   C4A 2522  12.186   0.904   7.949 -0.0295  0.0503 -0.0468
  158loPI   C5A 2523  11.997   1.014   7.544  0.4026  0.1832 -0.3878
  158loPI   C6A 2524  12.128   1.243   7.201 -0.3376 -0.0849  0.1619
  158loPI   C1B 2525  11.745   0.366   9.094 -0.0875 -0.1290  0.0937
  158loPI   C2B 2526  11.865   0.311   8.735  0.1826 -0.1764  0.0185
  158loPI   C3B 2527  11.877   0.385   8.339 -0.0499 -0.1060 -0.1218
  158loPI   C4B 2528  12.075   0.394   7.916 -0.0032  0.1690  0.3174
  159loPI    C1 2529   9.168  15.342  10.454 -0.0492 -0.0501  0.0769
  159loPI    C2 2530   9.300  15.581  10.162 -0.2264 -0.0737 -0.0242
  159loPI    C3 2531   9.292  15.712  10.540  0.1463 -0.0953 -0.0050
  159loPI   PO4 2532   9.252  15.143  10.367 -0.0370 -0.0214  0.3599
  159loPI   GL1 2533   9.233  14.949   9.990 -0.1273 -0.1741  0.0464
  159loPI   GL2 2534   9.377  15.211   9.884 -0.3883  0.0691 -0.0412
  159loPI   C1A 2535   9.184  14.679   9.701 -0.0912  0.0421 -0.3123
  159loPI   C2A 2536   9.239  14.669   9.261 -0.0772  0.1652  0.0447
  159loPI   C3A 2537   9.102  14.490   8.907 -0.0343  0.0753  0.3538
  159loPI   C4A 2538   9.091  14.419   8.464 -0.2821  0.1975  0.2757
  159loPI   C5A 2539   9.268  14.523   8.094 -0.0535 -0.1190  0.0228
  159loPI   C6A 2540   9.395  14.518   7.677  0.3664  0.0539  0.1395
  159loPI   C1B 2541   9.453  15.157   9.459  0.0979  0.2967  0.1242
  159loPI   C2B 2542   9.472  15.015   8.989  0.4740  0.0904 -0.2223
  159loPI   C3B 2543   9.362  15.056   8.684 -0.1119 -0.1040 -0.0610
  159loPI   C4B 2544   9.544  14.981   8.315  0.0221  0.2289 -0.0727
  160loPI    C1 2545  13.317   6.465   9.923  0.0644  0.5376 -0.2393
  160loPI    C2 2546  13.265   6.533  10.314  0.3039  0.1496 -0.1356
  160loPI    C3 2547  13.012   6.693  10.049 -0.1291  0.0532  0.2070
  160loPI   PO4 2548  13.594   6.531   9.840  0.2394  0.2520 -0.0554
  160loPI   GL1 2549  13.625   6.633   9.437 -0.0412  0.0696 -0.0930
  160loPI   GL2 2550  13.353   6.406   9.415 -0.0044  0.1938 -0.0827
  160loPI   C1A 2551  13.837   6.353   9.081 -0.2446  0.0015  0.0455
  160loPI   C2A 2552  14.065   6.033   8.988 -0.1404  0.0060  0.0494
  160loPI   C3A 2553  13.930   5.720   8.615  0.0952 -0.2509  0.2375
  160loPI   C4A 2554  14.159   5.462   8.396  0.2892  0.1396 -0.0110
  160loPI   C5A 2555  14.561   5.331   8.212  0.0947 -0.0471  0.0410
  160loPI   C6A 2556  14.808   5.316   7.892 -0.0014  0.0652  0.0281
  160loPI   C1B 2557  13.432   6.003   9.132  0.1738 -0.2864 -0.1769
  160loPI   C2B 2558  13.546   5.583   9.018  0.1116 -0.2890 -0.1431
  160loPI   C3B 2559  13.489   5.124   8.977  0.3024  0.1479  0.0365
  160loPI   C4B 2560  13.379   4.732   9.089 -0.2931 -0.0644  0.2015
  161loPI    C1 2561   0.731   2.725  10.626 -0.0105 -0.2059 -0.3070
  161loPI    C2 2562   0.756   3.123  10.664  0.2875 -0.2421 -0.0895
  161loPI    C3 2563   0.570   2.907  10.945 -0.0484 -0.2417 -0.3055
  161loPI   PO4 2564   0.671   2.700  10.360 -0.2305  0.0088 -0.0148
  161loPI   GL1 2565   0.528   2.813   9.942  0.0831  0.0389 -0.3181
  161loPI   GL2 2566   0.640   2.952   9.678  0.0104  0.0710  0.2343
  161loPI   C1A 2567   0.240   2.506   9.704 -0.0158 -0.0058 -0.0195
  161loPI   C2A 2568   0.292   2.360   9.340 -0.0531  0.3672  0.0269
  161loPI   C3A 2569   0.207   2.469   8.925 -0.0451  0.1924  0.2943
  161loPI   C4A 2570   0.199   2.411   8.467 -0.2390 -0.3159  0.0456
  161loPI   C5A 2571   0.285   2.451   8.092  0.0792  0.0255 -0.1017
  161loPI   C6A 2572   0.621   2.309   7.769  0.0750 -0.1536 -0.1462
  161loPI   C1B 2573   0.691   2.925   9.263 -0.1077 -0.1908  0.1475
  161loPI   C2B 2574   0.490   2.911   8.831 -0.1191 -0.2137  0.0913
  161loPI   C3B 2575   0.536   2.842   8.410  0.1686  0.0546 -0.2065
  161loPI   C4B 2576   0.726   2.761   7.969 -0.1847 -0.5714 -0.3471
  162loPI    C1 2577   1.247  18.070  10.560 -0.0551 -0.1196  0.1619
  162loPI    C2 2578   1.602  18.220  10.667 -0.1737  0.1030  0.2511
  162loPI    C3 2579   1.390  18.005  10.928 -0.0106 -0.2146  0.1282
  162loPI   PO4 2580   1.262  17.956  10.306 -0.0295  0.1403  0.2616
  162loPI   GL1 2581   1.321  17.938   9.947 -0.2061 -0.1204  0.0734
  162loPI   GL2 2582   1.643  17.693  10.008  0.1481 -0.0755 -0.2285
  162loPI   C1A 2583   1.111  17.809   9.560 -0.0708 -0.2718  0.1973
  162loPI   C2A 2584   1.076  17.732   9.083 -0.1204  0.2811 -0.0282
  162loPI   C3A 2585   1.173  17.752   8.633  0.1853 -0.1973 -0.1166
  162loPI   C4A 2586   1.388  17.881   8.290  0.2169 -0.3813 -0.1992
  162loPI   C5A 2587   1.544  18.151   8.071 -0.2054 -0.2800  0.0768
  162loPI   C6A 2588   1.869  18.349   8.015 -0.1859 -0.1233  0.0632
  162loPI   C1B 2589   1.617  17.639   9.516  0.0665  0.1312 -0.2041
  162loPI   C2B 2590   1.768  17.706   9.233 -0.1647  0.3316 -0.0109
  162loPI   C3B 2591   2.055  17.797   8.878  0.1922 -0.1343 -0.2677
  162loPI   C4B 2592   2.220  17.621   8.528  0.1709 -0.0500  0.0562
  163loPI    C1 2593   3.746   5.260  10.451  0.0218 -0.0720 -0.0380
  163loPI    C2 2594   3.359   5.338  10.517 -0.0451 -0.2964 -0.1539
  163loPI    C3 2595   3.610   5.290  10.826 -0.0765  0.0024 -0.0794
  163loPI   PO4 2596   3.801   5.138  10.213  0.2690 -0.0564 -0.1548
  163loPI   GL1 2597   3.858   5.306   9.773  0.1420 -0.0465 -0.2910
  163loPI   GL2 2598   4.139   4.998   9.850  0.0493 -0.3553 -0.3228
  163loPI   C1A 2599   3.885   5.011   9.425  0.0980 -0.1299  0.0555
  163loPI   C2A 2600   3.841   5.144   9.004  0.1410 -0.3105 -0.0142
  163loPI   C3A 2601   3.576   5.146   8.626  0.3773  0.3165 -0.1053
  163loPI   C4A 2602   3.341   5.160   8.286  0.2007 -0.1414  0.0560
  163loPI   C5A 2603   3.618   5.107   7.873  0.1056 -0.0445 -0.0359
  163loPI   C6A 2604   3.666   5.395   7.425 -0.2023 -0.2522 -0.2876
  163loPI   C1B 2605   4.358   4.849   9.519  0.1229  0.0682 -0.0112
  163loPI   C2B 2606   4.384   4.684   9.097  0.0174  0.0279  0.0515
  163loPI   C3B 2607   4.341   4.893   8.747 -0.3060  0.0292 -0.0847
  163loPI   C4B 2608   4.062   5.073   8.459 -0.3103  0.3921 -0.0704
  164loPI    C1 2609   9.364   6.887  10.179 -0.3386  0.0534 -0.0301
  164loPI    C2 2610   9.491   7.091  10.498 -0.1679 -0.0054 -0.0593
  164loPI    C3 2611   9.343   6.722  10.543  0.1326 -0.1317 -0.0787
  164loPI   PO4 2612   9.487   6.962  10.013 -0.1121  0.2021 -0.2261
  164loPI   GL1 2613   9.324   6.964   9.553  0.2758 -0.0089 -0.0357
  164loPI   GL2 2614   9.072   7.071   9.365  0.0797 -0.0615 -0.0524
  164loPI   C1A 2615   9.508   6.890   9.118  0.1751 -0.1018 -0.0627
  164loPI   C2A 2616   9.891   7.052   8.898  0.1593  0.0272  0.0036
  164loPI   C3A 2617  10.121   7.092   8.519 -0.0606 -0.2808 -0.1704
  164loPI   C4A 2618  10.362   7.141   8.180 -0.0937  0.0109 -0.1773
  164loPI   C5A 2619  10.644   6.878   7.945 -0.2437  0.0706 -0.1375
  164loPI   C6A 2620  11.129   6.722   8.092  0.0488  0.0647  0.2234
  164loPI   C1B 2621   8.913   7.097   8.941  0.1322 -0.2655  0.0708
  164loPI   C2B 2622   8.581   6.955   8.630  0.1932 -0.3667 -0.0783
  164loPI   C3B 2623   8.171   7.047   8.553 -0.0918  0.1871  0.1151
  164loPI   C4B 2624   7.900   7.087   8.822 -0.1111  0.1286  0.5323
  165loPI    C1 2625   5.777  12.117  10.517  0.1977 -0.1842  0.1551
  165loPI    C2 2626   5.730  12.107  10.914 -0.0208 -0.2116  0.1295
  165loPI    C3 2627   6.037  12.306  10.754 -0.1732  0.1659  0.2951
  165loPI   PO4 2628   5.742  11.862  10.451 -0.1357  0.1124 -0.0065
  165loPI   GL1 2629   5.626  11.535  10.279  0.0839  0.3306  0.3861
  165loPI   GL2 2630   5.366  11.517  10.126 -0.1777  0.1113  0.0703
  165loPI   C1A 2631   5.759  11.642   9.849  0.0829 -0.0645  0.3037
  165loPI   C2A 2632   5.780  11.560   9.395  0.2860 -0.0887  0.0322
  165loPI   C3A 2633   5.835  11.684   8.938 -0.0592  0.0834  0.0575
  165loPI   C4A 2634   5.710  11.603   8.537  0.0351  0.2875  0.1933
  165loPI   C5A 2635   5.385  11.541   8.274  0.1189 -0.0262 -0.1461
  165loPI   C6A 2636   4.970  11.625   8.087  0.0303 -0.2546 -0.1569
  165loPI   C1B 2637   5.289  11.523   9.714 -0.0589  0.0643 -0.0562
  165loPI   C2B 2638   5.308  11.589   9.189 -0.1688 -0.0755  0.0972
  165loPI   C3B 2639   5.227  11.598   8.752  0.0570 -0.3379 -0.0920
  165loPI   C4B 2640   5.048  11.999   8.566 -0.2355  0.1479 -0.2559
  166loPI    C1 2641   3.828  11.745  10.563  0.0086 -0.0273 -0.2321
  166loPI    C2 2642   3.938  12.127  10.611 -0.3468  0.0303  0.1893
  166loPI    C3 2643   4.145  11.834  10.790  0.0436 -0.0013 -0.2909
  166loPI   PO4 2644   3.460  11.813  10.570  0.2971 -0.2056 -0.2558
  166loPI   GL1 2645   3.173  11.828  10.236  0.0462 -0.0177 -0.0380
  166loPI   GL2 2646   2.848  11.823  10.210  0.2884  0.1486  0.1146
  166loPI   C1A 2647   3.428  11.871   9.895  0.0806  0.0545  0.0359
  166loPI   C2A 2648   3.407  11.918   9.521  0.0482  0.0870  0.0742
  166loPI   C3A 2649   3.475  11.843   9.068  0.0799  0.2750  0.1874
  166loPI   C4A 2650   3.508  11.913   8.576  0.1641 -0.0916 -0.1867
  166loPI   C5A 2651   3.553  11.978   8.064  0.1783 -0.1189  0.0634
  166loPI   C6A 2652   3.684  11.823   7.672  0.1231 -0.1093 -0.0460
  166loPI   C1B 2653   2.940  11.780   9.743  0.1402  0.0843 -0.2157
  166loPI   C2B 2654   2.899  11.804   9.229  0.1864  0.2570  0.1272
  166loPI   C3B 2655   3.008  11.766   8.793 -0.2387 -0.1414 -0.0365
  166loPI   C4B 2656   2.971  11.737   8.333 -0.2166 -0.0348  0.1686
  167loPI    C1 2657   9.119   1.262  10.102 -0.2703  0.1043  0.1725
  167loPI    C2 2658   9.422   1.396  10.325 -0.1359 -0.1493  0.1446
  167loPI    C3 2659   9.081   1.282  10.499 -0.2000  0.0912  0.1799
  167loPI   PO4 2660   9.230   1.026   9.939  0.4669 -0.3004  0.2259
  167loPI   GL1 2661   9.092   0.749   9.655 -0.1212  0.0222 -0.0111
  167loPI   GL2 2662   9.010   1.042   9.406 -0.0390 -0.1467  0.0262
  167loPI   C1A 2663   9.121   0.533   9.253  0.1155 -0.0669  0.2932
  167loPI   C2A 2664   9.417   0.415   8.966 -0.2911 -0.3882 -0.1030
  167loPI   C3A 2665   9.358   0.457   8.539  0.2082  0.1402  0.1375
  167loPI   C4A 2666   9.315   0.664   8.115 -0.0595  0.0071 -0.2013
  167loPI   C5A 2667   9.502   0.604   7.805 -0.1278  0.2047  0.1375
  167loPI   C6A 2668   9.514   0.800   7.381  0.0611  0.1791  0.1137
  167loPI   C1B 2669   9.005   1.043   8.972  0.0027 -0.0010  0.2674
  167loPI   C2B 2670   9.028   0.876   8.625 -0.0164  0.3452 -0.0205
  167loPI   C3B 2671   8.853   0.742   8.253 -0.0998 -0.2171  0.1254
  167loPI   C4B 2672   8.673   0.495   7.940  0.0081  0.1502 -0.0836
  168loPI    C1 2673  11.975  13.347  11.043 -0.2480 -0.0882 -0.1120
  168loPI    C2 2674  12.039  13.089  10.744  0.2209 -0.0508 -0.0511
  168loPI    C3 2675  12.023  12.957  11.121 -0.0987 -0.0611 -0.0655
  168loPI   PO4 2676  12.026  13.558  10.845 -0.3168 -0.0707  0.1461
  168loPI   GL1 2677  12.342  13.546  10.530 -0.1374  0.0155  0.1973
  168loPI   GL2 2678  12.414  13.244  10.389  0.3544 -0.0345  0.1166
  168loPI   C1A 2679  12.162  13.573  10.100 -0.0754  0.0369  0.1878
  168loPI   C2A 2680  12.083  13.548   9.683 -0.1678 -0.0992  0.2061
  168loPI   C3A 2681  12.155  13.479   9.312  0.0253  0.1452 -0.1630
  168loPI   C4A 2682  12.068  13.551   8.858  0.0129 -0.0476 -0.1129
  168loPI   C5A 2683  11.996  13.419   8.378 -0.0698 -0.1708  0.2544
  168loPI   C6A 2684  11.577  13.540   8.328  0.3321 -0.1766 -0.0636
  168loPI   C1B 2685  12.378  13.096   9.918  0.1315  0.2130 -0.1601
  168loPI   C2B 2686  12.434  13.096   9.549 -0.3915 -0.2070  0.0392
  168loPI   C3B 2687  12.425  13.090   9.062  0.0991  0.0828 -0.0278
  168loPI   C4B 2688  12.390  13.030   8.660 -0.1801 -0.1687 -0.2204
  169loPI    C1 2689  17.155  12.802  10.883  0.0714 -0.1287 -0.0407
  169loPI    C2 2690  17.554  12.778  10.892  0.0692 -0.3021 -0.3062
  169loPI    C3 2691  17.333  12.506  11.085  0.0778  0.0402  0.2062
  169loPI   PO4 2692  17.024  13.017  10.697  0.1071 -0.0813 -0.1834
  169loPI   GL1 2693  16.835  13.233  10.299  0.1201  0.1573  0.0116
  169loPI   GL2 2694  17.046  13.159  10.127  0.0356  0.0564  0.0940
  169loPI   C1A 2695  16.554  13.452   9.939 -0.0354  0.0448 -0.0567
  169loPI   C2A 2696  16.480  13.268   9.512  0.1706  0.0532 -0.1164
  169loPI   C3A 2697  16.413  13.318   8.957 -0.1137 -0.1383  0.1779
  169loPI   C4A 2698  16.506  13.477   8.577 -0.2719 -0.1362  0.2682
  169loPI   C5A 2699  16.503  13.653   8.136 -0.3997 -0.1711  0.1829
  169loPI   C6A 2700  16.787  13.884   7.859  0.2008  0.0433  0.1853
  169loPI   C1B 2701  16.774  12.889   9.875 -0.0570  0.1822 -0.4678
  169loPI   C2B 2702  16.730  12.801   9.479 -0.4951  0.1192  0.1325
  169loPI   C3B 2703  16.747  12.878   9.017  0.0745 -0.1222  0.3748
  169loPI   C4B 2704  16.763  13.012   8.565  0.0209 -0.1055 -0.0290
  170loPI    C1 2705   6.197  12.787  10.828 -0.0178  0.1903  0.0171
  170loPI    C2 2706   6.294  12.963  11.174 -0.2821 -0.0420  0.2142
  170loPI    C3 2707   6.426  12.595  11.093  0.1884  0.1962 -0.1543
  170loPI   PO4 2708   6.285  12.887  10.591  0.1809 -0.2209 -0.2605
  170loPI   GL1 2709   6.339  12.804  10.208 -0.1489  0.1033  0.1112
  170loPI   GL2 2710   6.194  12.425  10.297 -0.0573 -0.3119  0.0207
  170loPI   C1A 2711   5.996  12.877   9.884  0.0127 -0.1630 -0.0079
  170loPI   C2A 2712   5.959  13.035   9.519  0.3724  0.2105 -0.2040
  170loPI   C3A 2713   5.934  12.943   9.066 -0.2299 -0.0649 -0.0829
  170loPI   C4A 2714   6.002  13.066   8.701  0.0955 -0.1201  0.1182
  170loPI   C5A 2715   5.963  13.066   8.310  0.2110 -0.2036 -0.3722
  170loPI   C6A 2716   5.895  12.897   7.880  0.2259  0.0391 -0.2587
  170loPI   C1B 2717   6.268  12.443   9.789 -0.0984  0.0365  0.0290
  170loPI   C2B 2718   6.187  12.635   9.386 -0.0515  0.1438 -0.1183
  170loPI   C3B 2719   6.202  12.559   8.895 -0.0973  0.3269 -0.0407
  170loPI   C4B 2720   6.260  12.638   8.534 -0.2339  0.1706  0.1051
  171loPI    C1 2721   7.581  13.019  10.821  0.3549  0.1186  0.0052
  171loPI    C2 2722   7.812  12.873  11.113  0.0285  0.0926  0.2558
  171loPI    C3 2723   7.605  13.210  11.172 -0.0092  0.1080  0.0397
  171loPI   PO4 2724   7.828  13.077  10.631  0.0012 -0.1192  0.2237
  171loPI   GL1 2725   8.098  13.098  10.277 -0.0472 -0.1839 -0.0339
  171loPI   GL2 2726   8.289  12.917  10.180 -0.3115 -0.0402  0.0454
  171loPI   C1A 2727   8.034  13.264   9.773 -0.2840  0.0096  0.0026
  171loPI   C2A 2728   7.956  13.079   9.379  0.0027 -0.1226 -0.0446
  171loPI   C3A 2729   7.941  13.121   8.996 -0.1957 -0.1133  0.0250
  171loPI   C4A 2730   7.994  13.028   8.550 -0.0068 -0.0294 -0.2638
  171loPI   C5A 2731   7.949  12.950   8.216 -0.2131  0.3702  0.0922
  171loPI   C6A 2732   7.756  13.109   7.761  0.1107  0.3131  0.1054
  171loPI   C1B 2733   8.204  12.774   9.721  0.3456  0.2309 -0.0867
  171loPI   C2B 2734   8.280  12.698   9.222  0.3307  0.2615  0.0015
  171loPI   C3B 2735   8.285  12.732   8.814 -0.0476  0.2087 -0.0220
  171loPI   C4B 2736   8.322  12.610   8.366  0.1345 -0.4139 -0.2737
  172loPI    C1 2737  17.131   4.063  10.582 -0.0112 -0.1831 -0.0456
  172loPI    C2 2738  17.251   4.310  10.873  0.2405 -0.1166 -0.2021
  172loPI    C3 2739  17.104   3.950  10.964 -0.1020  0.0750  0.0267
  172loPI   PO4 2740  17.162   4.201  10.352 -0.1834  0.1497  0.0390
  172loPI   GL1 2741  16.959   4.269   9.971 -0.1177  0.1934  0.2222
  172loPI   GL2 2742  16.875   4.061   9.813 -0.1190 -0.0591 -0.1793
  172loPI   C1A 2743  17.184   4.375   9.546  0.0950  0.0764 -0.0654
  172loPI   C2A 2744  17.355   4.507   9.226  0.1752  0.2289 -0.0371
  172loPI   C3A 2745  17.496   4.487   8.789  0.0480  0.2639 -0.4559
  172loPI   C4A 2746  17.454   4.372   8.436  0.0022  0.1407 -0.0467
  172loPI   C5A 2747  17.573   4.446   8.047 -0.0934  0.1031 -0.0503
  172loPI   C6A 2748  17.651   4.561   7.644  0.1634  0.1554 -0.4136
  172loPI   C1B 2749  17.063   3.927   9.483  0.2284  0.1631 -0.1082
  172loPI   C2B 2750  17.154   4.001   9.129 -0.2081  0.2688 -0.1504
  172loPI   C3B 2751  17.351   3.999   8.895  0.0094 -0.0918 -0.1592
  172loPI   C4B 2752  17.727   3.989   8.657  0.3626  0.1321  0.0047
  173loPI    C1 2753   7.213   0.650  10.304 -0.0565  0.2025 -0.0438
  173loPI    C2 2754   7.247   0.452  10.650  0.0576 -0.1984 -0.2785
  173loPI    C3 2755   7.416   0.812  10.608 -0.0987 -0.0720  0.1342
  173loPI   PO4 2756   6.988   0.540  10.227 -0.1324  0.3949 -0.0822
  173loPI   GL1 2757   6.904   0.359   9.809 -0.1787  0.1888 -0.1385
  173loPI   GL2 2758   6.573   0.449   9.637  0.1708  0.1197  0.2198
  173loPI   C1A 2759   7.083   0.538   9.419 -0.0276  0.1155 -0.2779
  173loPI   C2A 2760   7.124   0.479   9.030 -0.0786 -0.0037  0.2565
  173loPI   C3A 2761   7.355   0.612   8.736 -0.1160 -0.1100  0.0914
  173loPI   C4A 2762   7.418   0.545   8.212 -0.2177  0.0164  0.2716
  173loPI   C5A 2763   7.223   0.705   7.785 -0.0157 -0.0673 -0.2320
  173loPI   C6A 2764   7.432   0.993   7.526 -0.0708  0.2210 -0.0357
  173loPI   C1B 2765   6.609   0.413   9.188 -0.2448  0.1501 -0.0714
  173loPI   C2B 2766   6.498   0.441   8.719  0.0325 -0.1952 -0.2031
  173loPI   C3B 2767   6.428   0.520   8.257  0.1223 -0.3051 -0.1927
  173loPI   C4B 2768   6.131   0.416   7.882 -0.1081 -0.1946  0.1140
  174loPI    C1 2769  10.788  18.320  10.237  0.2504 -0.0955  0.0390
  174loPI    C2 2770  10.556  18.144  10.511  0.1429 -0.1149 -0.0636
  174loPI    C3 2771  10.920  17.997  10.433  0.1462 -0.1512  0.0182
  174loPI   PO4 2772  10.545  18.383  10.074  0.0023  0.3091  0.1566
  174loPI   GL1 2773  10.535  18.510   9.708  0.0682  0.0011  0.0041
  174loPI   GL2 2774  10.347  18.306   9.581  0.2847 -0.0873  0.0959
  174loPI   C1A 2775  10.363  18.860   9.324  0.0506 -0.0586 -0.1953
  174loPI   C2A 2776  10.330  18.931   8.893  0.0012 -0.0285  0.3277
  174loPI   C3A 2777  10.353  19.055   8.437  0.0277  0.1384 -0.2396
  174loPI   C4A 2778  10.323  18.920   7.979  0.2236 -0.0214  0.2361
  174loPI   C5A 2779  10.180  19.135   7.488 -0.1648  0.0630  0.0207
  174loPI   C6A 2780  10.428  19.358   7.140  0.0024  0.2826  0.2933
  174loPI   C1B 2781  10.092  18.042   9.307  0.0987  0.1318  0.1736
  174loPI   C2B 2782   9.824  18.015   9.005  0.3882 -0.1142 -0.2548
  174loPI   C3B 2783   9.879  18.121   8.526  0.0662 -0.2557  0.2584
  174loPI   C4B 2784   9.903  18.135   8.157  0.0512  0.2302 -0.1683
  175loPI    C1 2785   8.641   8.910  10.637 -0.0647 -0.0488 -0.0153
  175loPI    C2 2786   9.021   9.035  10.640 -0.1421  0.1889  0.1418
  175loPI    C3 2787   8.898   8.763  10.905 -0.0525  0.0183  0.0101
  175loPI   PO4 2788   8.494   9.171  10.591  0.1823 -0.1269  0.3193
  175loPI   GL1 2789   8.476   9.457  10.230 -0.1752  0.1760 -0.0489
  175loPI   GL2 2790   8.235   9.734  10.130  0.1141 -0.0257  0.0527
  175loPI   C1A 2791   8.660   9.439   9.863 -0.2607  0.0393 -0.1444
  175loPI   C2A 2792   8.840   9.742   9.551  0.0389  0.0487 -0.0792
  175loPI   C3A 2793   8.817   9.639   9.116  0.0897 -0.0526 -0.1491
  175loPI   C4A 2794   8.788   9.760   8.590 -0.0837 -0.2296 -0.0245
  175loPI   C5A 2795   8.810  10.044   8.129  0.0652  0.1393  0.0865
  175loPI   C6A 2796   8.762  10.183   7.678 -0.0469 -0.2273  0.1904
  175loPI   C1B 2797   7.972   9.834   9.807  0.2196 -0.1845  0.2089
  175loPI   C2B 2798   8.068  10.014   9.486 -0.1019 -0.1195  0.1222
  175loPI   C3B 2799   8.006  10.092   9.130  0.1520  0.2452 -0.2783
  175loPI   C4B 2800   8.043  10.139   8.725 -0.1244  0.2093  0.0139
  176loPI    C1 2801  17.881   1.665  10.545  0.0645  0.1480 -0.0291
  176loPI    C2 2802  17.599   1.932  10.642  0.1225  0.1334  0.1829
  176loPI    C3 2803  17.784   1.722  10.929 -0.1501 -0.3716  0.0013
  176loPI   PO4 2804  17.982   1.738  10.261 -0.2991  0.1145  0.0987
  176loPI   GL1 2805  17.852   1.523   9.976 -0.1186  0.0028 -0.0239
  176loPI   GL2 2806  17.732   1.156   9.851  0.2166 -0.1052  0.0909
  176loPI   C1A 2807  17.725   1.732   9.673 -0.1296 -0.2471 -0.1272
  176loPI   C2A 2808  17.629   1.688   9.308  0.0852 -0.0893  0.2559
  176loPI   C3A 2809  17.793   1.604   8.914  0.1944  0.1568 -0.1293
  176loPI   C4A 2810  17.675   1.538   8.462 -0.0153  0.1194 -0.1537
  176loPI   C5A 2811  17.618   1.769   8.012 -0.0592 -0.4134 -0.2166
  176loPI   C6A 2812  17.537   1.703   7.572  0.0357  0.0767  0.1762
  176loPI   C1B 2813  17.865   1.248   9.475 -0.1519 -0.2481  0.2554
  176loPI   C2B 2814  17.940   1.099   9.146 -0.3308  0.0659  0.3266
  176loPI   C3B 2815  17.923   1.108   8.767  0.1518  0.0990 -0.1867
  176loPI   C4B 2816  17.927   1.142   8.267  0.2438 -0.2976  0.0335
  177loPI    C1 2817  10.374   3.161   9.812 -0.1389 -0.0647  0.0033
  177loPI    C2 2818  10.555   2.982  10.121  0.0083  0.0842  0.0051
  177loPI    C3 2819  10.170   3.089  10.149  0.0075  0.0532  0.1188
  177loPI   PO4 2820  10.507   3.121   9.593 -0.2398 -0.0907  0.0886
  177loPI   GL1 2821  10.679   3.228   9.287 -0.0327 -0.0104  0.2702
  177loPI   GL2 2822  11.013   3.242   9.330 -0.0426 -0.2831  0.0513
  177loPI   C1A 2823  10.697   2.801   9.120 -0.0891 -0.2080 -0.0368
  177loPI   C2A 2824  10.753   2.748   8.695  0.1005  0.0647 -0.3880
  177loPI   C3A 2825  10.847   2.813   8.310 -0.1963  0.3337  0.3011
  177loPI   C4A 2826  10.879   2.659   7.894 -0.1436 -0.0559 -0.3131
  177loPI   C5A 2827  11.175   2.508   7.580 -0.0253  0.0126  0.1802
  177loPI   C6A 2828  11.424   2.579   7.188  0.0001 -0.2794 -0.2153
  177loPI   C1B 2829  11.128   3.143   8.943  0.0754  0.0692 -0.1221
  177loPI   C2B 2830  11.159   3.212   8.500 -0.3109  0.1891  0.0108
  177loPI   C3B 2831  11.126   3.140   8.034 -0.2095 -0.5537  0.1582
  177loPI   C4B 2832  11.145   2.992   7.606  0.3507  0.0479 -0.0738
  178loPI    C1 2833  11.452  17.879  10.519  0.1333 -0.3282 -0.1799
  178loPI    C2 2834  11.163  17.758  10.767  0.0877 -0.0975 -0.1183
  178loPI    C3 2835  11.512  17.887  10.914 -0.0138  0.2358 -0.1594
  178loPI   PO4 2836  11.317  17.768  10.206  0.1809 -0.2826  0.2210
  178loPI   GL1 2837  11.445  17.914   9.813  0.1778  0.0471 -0.0553
  178loPI   GL2 2838  11.628  18.162   9.881 -0.1774 -0.0352  0.4752
  178loPI   C1A 2839  11.655  17.910   9.368  0.0239 -0.0519  0.0442
  178loPI   C2A 2840  11.776  17.996   9.016 -0.0897  0.0769  0.0988
  178loPI   C3A 2841  11.860  17.916   8.628 -0.0497  0.1062  0.1099
  178loPI   C4A 2842  11.925  17.951   8.180 -0.1405 -0.0151  0.0400
  178loPI   C5A 2843  11.821  18.072   7.748 -0.3247  0.2947 -0.1601
  178loPI   C6A 2844  11.841  18.212   7.360  0.0909 -0.0509 -0.0390
  178loPI   C1B 2845  11.382  18.351   9.481  0.2816  0.3896 -0.2005
  178loPI   C2B 2846  11.518  18.461   9.016 -0.2183 -0.2352 -0.0151
  178loPI   C3B 2847  11.563  18.396   8.610 -0.2984 -0.0975 -0.1718
  178loPI   C4B 2848  11.573  18.310   8.167  0.1975  0.1019 -0.1193
  179loPI    C1 2849   8.753  15.637  10.586 -0.1209  0.1621 -0.0152
  179loPI    C2 2850   8.616  15.275  10.485  0.0171  0.0476  0.2002
  179loPI    C3 2851   8.561  15.412  10.857 -0.0821  0.2720  0.1044
  179loPI   PO4 2852   8.862  15.705  10.335 -0.2151 -0.0144 -0.2716
  179loPI   GL1 2853   8.826  15.536   9.909 -0.0551  0.0109  0.0522
  179loPI   GL2 2854   8.842  15.246  10.013  0.1571  0.0212 -0.0679
  179loPI   C1A 2855   8.593  15.491   9.428  0.0910  0.2329 -0.0364
  179loPI   C2A 2856   8.663  15.438   8.990  0.3807  0.1524 -0.2063
  179loPI   C3A 2857   8.723  15.364   8.542  0.2812  0.0514 -0.0729
  179loPI   C4A 2858   8.622  15.134   8.106  0.3309 -0.2801  0.1430
  179loPI   C5A 2859   8.802  14.700   7.892 -0.0505 -0.0114 -0.0396
  179loPI   C6A 2860   8.865  14.689   7.467  0.1626  0.1947  0.0879
  179loPI   C1B 2861   8.924  15.146   9.584 -0.2189  0.0088 -0.3008
  179loPI   C2B 2862   9.008  15.142   9.195  0.0170 -0.0964  0.1208
  179loPI   C3B 2863   8.870  14.937   8.852  0.2190 -0.0180  0.1154
  179loPI   C4B 2864   8.966  14.895   8.385  0.2546 -0.0975  0.0059
  180loPI    C1 2865  16.164  16.269  10.911 -0.1735 -0.0497  0.0639
  180loPI    C2 2866  16.218  16.373  11.293 -0.0743  0.2198 -0.0215
  180loPI    C3 2867  16.442  16.085  11.131  0.2803  0.4940 -0.0313
  180loPI   PO4 2868  16.163  16.481  10.816 -0.1457  0.1813 -0.1341
  180loPI   GL1 2869  16.194  16.773  10.492 -0.2308 -0.1236 -0.3285
  180loPI   GL2 2870  16.107  16.438  10.352  0.1379  0.0537  0.2146
  180loPI   C1A 2871  16.210  16.844  10.107 -0.1627 -0.2568  0.0395
  180loPI   C2A 2872  16.232  16.784   9.663 -0.1364  0.1798  0.0396
  180loPI   C3A 2873  16.298  16.657   9.299 -0.1815 -0.0046 -0.0633
  180loPI   C4A 2874  16.285  16.588   8.857  0.3672  0.2241 -0.1125
  180loPI   C5A 2875  16.426  16.499   8.488  0.3224 -0.4697 -0.0480
  180loPI   C6A 2876  16.371  16.622   8.047 -0.0862 -0.1658  0.0757
  180loPI   C1B 2877  16.012  16.370   9.963  0.0472 -0.0399 -0.0210
  180loPI   C2B 2878  16.049  16.299   9.576 -0.0609  0.2105  0.0946
  180loPI   C3B 2879  16.044  16.243   9.119  0.1260 -0.0486 -0.2212
  180loPI   C4B 2880  16.041  16.107   8.644 -0.3805  0.4247  0.1133
  181loPI    C1 2881   8.612  10.689  10.966 -0.0933 -0.2593 -0.0665
  181loPI    C2 2882   8.271  10.864  11.080  0.1793  0.0647  0.2760
  181loPI    C3 2883   8.415  10.553  11.286  0.2167  0.0860  0.2822
  181loPI   PO4 2884   8.603  10.577  10.762 -0.0395 -0.0167  0.1487
  181loPI   GL1 2885   8.518  10.430  10.368  0.1240  0.1463 -0.2298
  181loPI   GL2 2886   8.461  10.708  10.136 -0.0964 -0.0876  0.0397
  181loPI   C1A 2887   8.190  10.301  10.065  0.0683 -0.1094  0.0365
  181loPI   C2A 2888   8.296  10.427   9.684 -0.0136 -0.3573  0.1101
  181loPI   C3A 2889   8.273  10.634   9.336  0.0849  0.0272  0.1166
  181loPI   C4A 2890   8.149  10.604   8.874  0.3847  0.3429  0.0285
  181loPI   C5A 2891   8.034  10.549   8.426  0.0735  0.1772  0.0296
  181loPI   C6A 2892   8.069  10.724   8.065 -0.1778 -0.1833  0.0758
  181loPI   C1B 2893   8.497  10.980   9.746  0.0465 -0.0685 -0.1848
  181loPI   C2B 2894   8.488  11.081   9.352 -0.3406 -0.1468 -0.1356
  181loPI   C3B 2895   8.417  10.971   8.957 -0.0921 -0.1340  0.0381
  181loPI   C4B 2896   8.295  11.004   8.641 -0.0702  0.0467  0.1418
  182loPI    C1 2897   8.304   8.364  10.188  0.0485 -0.1211  0.3582
  182loPI    C2 2898   8.052   8.054  10.174 -0.3321  0.1907  0.0601
  182loPI    C3 2899   8.197   8.179  10.525 -0.0658 -0.3995  0.1722
  182loPI   PO4 2900   8.260   8.442   9.962  0.1069  0.0806 -0.2730
  182loPI   GL1 2901   8.184   8.823   9.698 -0.0158 -0.1672  0.0826
  182loPI   GL2 2902   8.440   8.969   9.634 -0.0197 -0.1501 -0.1429
  182loPI   C1A 2903   8.146   8.659   9.295 -0.3043 -0.1218  0.1997
  182loPI   C2A 2904   8.201   8.736   8.907 -0.2938 -0.3408 -0.1575
  182loPI   C3A 2905   8.322   8.635   8.471  0.0056  0.0361 -0.0500
  182loPI   C4A 2906   8.026   8.556   8.122 -0.2288 -0.0415 -0.0460
  182loPI   C5A 2907   7.823   8.103   7.970  0.0119  0.0967  0.4651
  182loPI   C6A 2908   7.762   7.665   7.981  0.1414 -0.1830 -0.0323
  182loPI   C1B 2909   8.538   9.204   9.328 -0.2141  0.0398  0.1620
  182loPI   C2B 2910   8.515   9.229   8.890  0.0788  0.0162 -0.1902
  182loPI   C3B 2911   8.491   9.127   8.451  0.2637  0.1873 -0.4118
  182loPI   C4B 2912   8.206   9.127   8.134  0.1624 -0.2580  0.2114
  183loPI    C1 2913  17.647   3.915  10.428  0.1238  0.0068  0.0606
  183loPI    C2 2914  17.861   4.091  10.716  0.0886 -0.0529  0.1234
  183loPI    C3 2915  17.568   3.836  10.812  0.1862 -0.2012  0.0316
  183loPI   PO4 2916  17.808   3.838  10.275 -0.1567 -0.1494  0.1995
  183loPI   GL1 2917  17.771   4.060   9.902  0.3306 -0.0357 -0.0320
  183loPI   GL2 2918  17.437   3.957   9.830  0.2022 -0.1519 -0.0343
  183loPI   C1A 2919  18.045   4.003   9.538  0.0257 -0.2610  0.0309
  183loPI   C2A 2920  18.014   4.022   9.039  0.0985  0.0449 -0.2789
  183loPI   C3A 2921  18.140   3.687   8.842  0.0181 -0.0845 -0.1307
  183loPI   C4A 2922  18.225   3.347   8.514  0.0215 -0.1702  0.3486
  183loPI   C5A 2923  18.278   3.576   8.160  0.0760 -0.2802  0.3591
  183loPI   C6A 2924  18.600   3.622   7.932 -0.0526  0.0965  0.3225
  183loPI   C1B 2925  17.639   3.839   9.431  0.5948 -0.1210  0.0616
  183loPI   C2B 2926  17.684   3.646   9.012 -0.0562  0.2049 -0.0974
  183loPI   C3B 2927  17.758   3.473   8.666 -0.0552  0.0535 -0.0883
  183loPI   C4B 2928  17.730   3.245   8.246  0.0720 -0.1763  0.0230
  184loPI    C1 2929  12.385  14.414  10.711  0.1854  0.0350 -0.0104
  184loPI    C2 2930  12.178  14.535  11.032  0.4183  0.1826  0.0867
  184loPI    C3 2931  12.575  14.485  11.056  0.3810 -0.2259 -0.0613
  184loPI   PO4 2932  12.209  14.553  10.436 -0.1607  0.2130 -0.4858
  184loPI   GL1 2933  12.059  14.346  10.146  0.0004  0.1222 -0.1463
  184loPI   GL2 2934  12.131  13.997  10.281 -0.0300  0.0248 -0.0541
  184loPI   C1A 2935  11.882  14.117   9.831  0.2102  0.2037 -0.0360
  184loPI   C2A 2936  11.830  13.922   9.521 -0.4479  0.0361 -0.1120
  184loPI   C3A 2937  11.723  13.969   9.019  0.0127 -0.3966  0.3577
  184loPI   C4A 2938  11.737  13.935   8.582  0.1049  0.0399  0.2367
  184loPI   C5A 2939  11.835  13.946   8.181 -0.0027  0.1410 -0.2990
  184loPI   C6A 2940  12.121  13.724   7.713  0.2105  0.2757  0.1212
  184loPI   C1B 2941  12.422  14.012   9.875  0.0095 -0.0580  0.1258
  184loPI   C2B 2942  12.323  13.975   9.453 -0.0458 -0.0868 -0.1381
  184loPI   C3B 2943  12.283  14.054   9.071 -0.1350  0.2415  0.2107
  184loPI   C4B 2944  12.267  14.009   8.631  0.2089 -0.3210  0.3134
  185loPI    C1 2945  17.528  10.737  10.950 -0.1719  0.2256  0.0326
  185loPI    C2 2946  17.493  10.380  11.127  0.0086  0.1644 -0.0526
  185loPI    C3 2947  17.403  10.713  11.329  0.0400  0.0840  0.0953
  185loPI   PO4 2948  17.368  10.639  10.726 -0.2523 -0.3528  0.0991
  185loPI   GL1 2949  17.348  10.688  10.294 -0.3638  0.0659  0.1884
  185loPI   GL2 2950  17.592  10.570  10.217 -0.1257  0.0264 -0.0459
  185loPI   C1A 2951  17.151  10.664   9.889  0.2704  0.0890 -0.0254
  185loPI   C2A 2952  17.213  10.643   9.459  0.1826  0.1428  0.0406
  185loPI   C3A 2953  17.174  10.676   9.052 -0.2070 -0.0435  0.3679
  185loPI   C4A 2954  17.286  10.700   8.727 -0.0489 -0.3594 -0.1475
  185loPI   C5A 2955  17.243  10.761   8.328  0.1355 -0.2123  0.0703
  185loPI   C6A 2956  17.140  10.832   7.954 -0.2362  0.0357 -0.2642
  185loPI   C1B 2957  17.583  10.294   9.861  0.2469  0.0125  0.0198
  185loPI   C2B 2958  17.597  10.282   9.414  0.2618  0.0644  0.1808
  185loPI   C3B 2959  17.522  10.313   8.993  0.2439 -0.1207  0.1687
  185loPI   C4B 2960  17.548  10.345   8.545 -0.0078 -0.1985 -0.0022
  186loPI    C1 2961  14.758  11.000  10.482 -0.0013  0.1197 -0.0129
  186loPI    C2 2962  14.572  10.771  10.212 -0.0798  0.2189 -0.0437
  186loPI    C3 2963  14.499  10.720  10.602  0.0992  0.0168 -0.0345
  186loPI   PO4 2964  14.926  11.062  10.381  0.2072 -0.3799  0.0356
  186loPI   GL1 2965  15.059  10.999   9.975 -0.0614 -0.1277 -0.0116
  186loPI   GL2 2966  15.007  11.379  10.005 -0.4486 -0.0062  0.0443
  186loPI   C1A 2967  14.854  10.969   9.744 -0.1142 -0.1205 -0.1564
  186loPI   C2A 2968  14.739  11.025   9.293 -0.1167  0.1675 -0.0972
  186loPI   C3A 2969  14.781  11.048   8.870 -0.1658  0.4740  0.3764
  186loPI   C4A 2970  14.899  11.054   8.329  0.0611  0.0354  0.3349
  186loPI   C5A 2971  14.707  10.742   8.034  0.1957  0.0539 -0.2354
  186loPI   C6A 2972  14.471  10.347   8.073  0.0628  0.1017  0.3880
  186loPI   C1B 2973  15.024  11.428   9.573  0.0119  0.1908  0.0330
  186loPI   C2B 2974  15.058  11.551   9.105  0.1117 -0.1994 -0.1737
  186loPI   C3B 2975  15.046  11.567   8.660 -0.2068  0.0023  0.1116
  186loPI   C4B 2976  15.130  11.544   8.275 -0.2212  0.0760 -0.0961
  187loPI    C1 2977  12.558   3.980  10.195 -0.0529 -0.0193  0.2060
  187loPI    C2 2978  12.273   4.127  10.434  0.0781  0.0945  0.2939
  187loPI    C3 2979  12.637   4.048  10.581  0.0454 -0.2060  0.2203
  187loPI   PO4 2980  12.510   4.093   9.996  0.0039 -0.1699  0.0729
  187loPI   GL1 2981  12.406   4.266   9.610 -0.0190 -0.1103  0.3793
  187loPI   GL2 2982  12.724   4.173   9.573 -0.0027  0.3103 -0.0372
  187loPI   C1A 2983  12.122   4.323   9.239  0.0540 -0.0545 -0.0020
  187loPI   C2A 2984  12.016   4.465   8.848  0.2784  0.0105  0.1915
  187loPI   C3A 2985  12.113   4.416   8.442  0.1187 -0.0776  0.1279
  187loPI   C4A 2986  12.151   4.450   7.982 -0.0965  0.0586 -0.3754
  187loPI   C5A 2987  12.492   4.298   7.726  0.0643  0.1932  0.1618
  187loPI   C6A 2988  12.428   4.569   7.429 -0.0528  0.3022  0.0495
  187loPI   C1B 2989  12.794   3.983   9.167  0.1240  0.2791 -0.1892
  187loPI   C2B 2990  12.758   3.863   8.810 -0.0749  0.0282 -0.2304
  187loPI   C3B 2991  12.756   3.885   8.387 -0.0789 -0.0691  0.2183
  187loPI   C4B 2992  12.657   3.928   8.039 -0.1289 -0.0436  0.5517
  188loPI    C1 2993   6.783   7.388  10.393 -0.0295  0.1654 -0.0861
  188loPI    C2 2994   6.947   7.743  10.311  0.0964  0.1457  0.0750
  188loPI    C3 2995   6.957   7.600  10.684  0.1113 -0.0604 -0.0032
  188loPI   PO4 2996   6.858   7.221  10.110  0.0787  0.2028  0.1198
  188loPI   GL1 2997   6.832   7.083   9.846 -0.2061 -0.1738 -0.0507
  188loPI   GL2 2998   7.176   6.945   9.679  0.2149  0.2104  0.0869
  188loPI   C1A 2999   6.659   7.158   9.448  0.4121 -0.3090 -0.1494
  188loPI   C2A 3000   6.577   7.241   8.947 -0.3002 -0.0804 -0.1747
  188loPI   C3A 3001   6.539   7.370   8.498 -0.2293 -0.0226  0.2593
  188loPI   C4A 3002   6.428   7.464   8.130  0.0913 -0.0755  0.1462
  188loPI   C5A 3003   6.064   7.325   7.870  0.2437  0.1141  0.2916
  188loPI   C6A 3004   5.726   7.152   7.907  0.0908  0.0122 -0.0017
  188loPI   C1B 3005   7.140   7.296   9.452 -0.2951 -0.1117  0.0073
  188loPI   C2B 3006   7.104   7.360   9.106 -0.1195 -0.0003 -0.0809
  188loPI   C3B 3007   6.928   7.654   8.709 -0.0936  0.0594 -0.0207
  188loPI   C4B 3008   6.808   7.779   8.354  0.2002 -0.0641  0.2580
  189loPI    C1 3009   7.411   8.680  10.571 -0.1293  0.0497 -0.1254
  189loPI    C2 3010   7.505   8.937  10.862 -0.1749  0.0735 -0.1316
  189loPI    C3 3011   7.431   8.554  10.950 -0.0860  0.0578 -0.1250
  189loPI   PO4 3012   7.165   8.812  10.459 -0.1602 -0.1865 -0.0957
  189loPI   GL1 3013   6.896   8.998  10.071  0.0193 -0.0845  0.0104
  189loPI   GL2 3014   6.616   9.208   9.963 -0.0099 -0.2057  0.0663
  189loPI   C1A 3015   7.228   9.184   9.739 -0.1934  0.1781 -0.5000
  189loPI   C2A 3016   7.386   9.296   9.288 -0.1447 -0.1440  0.0804
  189loPI   C3A 3017   7.427   9.621   9.021  0.2343  0.4072 -0.0582
  189loPI   C4A 3018   7.394   9.768   8.667  0.0648  0.3541  0.2821
  189loPI   C5A 3019   7.560  10.069   8.511 -0.1217 -0.2241  0.0123
  189loPI   C6A 3020   7.614  10.367   8.331 -0.0049 -0.2365 -0.1126
  189loPI   C1B 3021   6.619   9.307   9.570  0.1787 -0.0671  0.0990
  189loPI   C2B 3022   6.885   9.246   9.261 -0.0984  0.1709 -0.0811
  189loPI   C3B 3023   6.932   9.488   8.945 -0.1293 -0.0381 -0.1311
  189loPI   C4B 3024   6.886   9.372   8.629  0.0392  0.1654 -0.1488
  190loPI    C1 3025  18.312   1.007  10.769 -0.1250  0.0932  0.2064
  190loPI    C2 3026  18.140   1.327  10.936 -0.3328 -0.0009  0.1764
  190loPI    C3 3027  18.066   0.962  11.081  0.0211 -0.0249  0.3056
  190loPI   PO4 3028  18.443   1.143  10.530 -0.0280 -0.0074  0.0624
  190loPI   GL1 3029  18.406   1.405  10.210 -0.4001 -0.0826 -0.0939
  190loPI   GL2 3030  18.723   1.532  10.155  0.0035 -0.0903  0.3967
  190loPI   C1A 3031  18.377   1.143   9.889 -0.2074  0.2248  0.1862
  190loPI   C2A 3032  18.423   1.149   9.350  0.2015 -0.0379 -0.3793
  190loPI   C3A 3033  18.418   1.053   8.906 -0.2081 -0.0929 -0.0339
  190loPI   C4A 3034  18.373   1.057   8.563 -0.0549 -0.0354  0.1874
  190loPI   C5A 3035  18.414   1.230   8.225  0.4916 -0.0795  0.0296
  190loPI   C6A 3036  18.322   1.249   7.759 -0.0442  0.1417  0.2986
  190loPI   C1B 3037  18.724   1.527   9.766  0.2225  0.1372 -0.2128
  190loPI   C2B 3038  18.716   1.627   9.368 -0.1973  0.2070  0.1607
  190loPI   C3B 3039  18.749   1.522   8.956  0.0981 -0.1952  0.4732
  190loPI   C4B 3040  18.689   1.474   8.585  0.0765 -0.1124 -0.1626
  191loPI    C1 3041  14.481   6.329  10.271  0.0218 -0.1260  0.1899
  191loPI    C2 3042  14.086   6.267  10.253  0.0630 -0.3059 -0.1835
  191loPI    C3 3043  14.337   5.956  10.279  0.1928 -0.2061 -0.2296
  191loPI   PO4 3044  14.523   6.426   9.996  0.0637 -0.0847 -0.2335
  191loPI   GL1 3045  14.435   6.723   9.633  0.1688 -0.2262  0.0211
  191loPI   GL2 3046  14.718   6.858   9.784  0.1697  0.5511  0.1160
  191loPI   C1A 3047  14.388   6.484   9.251  0.0706 -0.3088 -0.4237
  191loPI   C2A 3048  14.258   6.463   8.793 -0.2080 -0.1032 -0.0290
  191loPI   C3A 3049  14.139   6.674   8.444 -0.2341  0.2011  0.0484
  191loPI   C4A 3050  14.122   7.094   8.346  0.0349 -0.0666  0.0792
  191loPI   C5A 3051  13.921   7.283   7.973 -0.1119 -0.0442  0.0220
  191loPI   C6A 3052  13.635   7.617   7.854  0.1562 -0.0086  0.0643
  191loPI   C1B 3053  14.937   6.813   9.352 -0.0443 -0.0750  0.1663
  191loPI   C2B 3054  14.978   7.003   9.010  0.2576 -0.1170 -0.0014
  191loPI   C3B 3055  14.901   7.087   8.588  0.0430  0.0693  0.0613
  191loPI   C4B 3056  15.073   6.973   8.178 -0.1554 -0.2811 -0.2518
  192loPI    C1 3057  18.167   7.373  10.937  0.0394 -0.1171  0.1972
  192loPI    C2 3058  18.472   7.521  11.149  0.1124  0.1140 -0.0628
  192loPI    C3 3059  18.134   7.731  11.113  0.1053  0.0818 -0.1843
  192loPI   PO4 3060  18.225   7.258  10.787 -0.2066  0.4035  0.3909
  192loPI   GL1 3061  18.195   7.289  10.303  0.2606 -0.1020  0.2039
  192loPI   GL2 3062  18.473   7.401  10.356  0.4007 -0.2362  0.0474
  192loPI   C1A 3063  18.465   7.222   9.915  0.0469  0.1845  0.0308
  192loPI   C2A 3064  18.549   7.297   9.466  0.1157 -0.2088  0.0451
  192loPI   C3A 3065  18.491   7.295   8.967 -0.2767  0.0504  0.1652
  192loPI   C4A 3066  18.696   7.345   8.522 -0.0509  0.0027  0.2224
  192loPI   C5A 3067  18.748   7.478   8.048 -0.2158  0.1809  0.1685
  192loPI   C6A 3068  18.439   7.607   7.727  0.1384  0.0578  0.1496
  192loPI   C1B 3069  18.315   7.689   9.941  0.0116  0.1120  0.2043
  192loPI   C2B 3070  18.277   7.768   9.495 -0.3290  0.0483 -0.0029
  192loPI   C3B 3071  18.265   7.737   9.047 -0.0590  0.0456 -0.0194
  192loPI   C4B 3072  18.305   7.738   8.642  0.2112  0.0501 -0.1935
  193loPI    C1 3073  15.716  16.809  10.807 -0.0575  0.2200 -0.0657
  193loPI    C2 3074  15.898  16.776  11.162  0.1126  0.0251 -0.1685
  193loPI    C3 3075  16.035  17.035  10.890 -0.0079  0.1629 -0.0995
  193loPI   PO4 3076  15.686  16.531  10.673  0.1510 -0.1754 -0.1532
  193loPI   GL1 3077  15.677  16.220  10.298  0.0001  0.0492  0.1236
  193loPI   GL2 3078  15.405  16.302  10.136  0.0085 -0.2668 -0.1986
  193loPI   C1A 3079  15.770  15.968   9.987  0.0044  0.3638 -0.0154
  193loPI   C2A 3080  15.756  15.925   9.507 -0.1887  0.0473  0.2835
  193loPI   C3A 3081  15.761  15.743   9.076  0.0500 -0.1563 -0.1164
  193loPI   C4A 3082  15.726  15.614   8.714  0.1604  0.2987 -0.0542
  193loPI   C5A 3083  15.858  15.670   8.191 -0.3117  0.1441 -0.1292
  193loPI   C6A 3084  16.268  15.416   8.077  0.0400 -0.1772 -0.1806
  193loPI   C1B 3085  15.494  16.347   9.730 -0.1933  0.0076 -0.0061
  193loPI   C2B 3086  15.527  16.265   9.221  0.0123 -0.0839 -0.2283
  193loPI   C3B 3087  15.568  16.148   8.788  0.1255 -0.0451 -0.1720
  193loPI   C4B 3088  15.592  16.076   8.345 -0.1889 -0.3237  0.2668
  194loPI    C1 3089   4.955   1.804  10.591 -0.0316 -0.0321 -0.0349
  194loPI    C2 3090   4.850   2.185  10.649  0.2583  0.0565 -0.0744
  194loPI    C3 3091   4.740   1.905  10.913  0.0388  0.1644 -0.0486
  194loPI   PO4 3092   4.950   1.764  10.309  0.2550 -0.1342 -0.0619
  194loPI   GL1 3093   5.217   1.677  10.043 -0.0207 -0.0587  0.1920
  194loPI   GL2 3094   5.247   1.322  10.025  0.3151 -0.1291 -0.4289
  194loPI   C1A 3095   5.285   1.838   9.574  0.0865  0.0796 -0.1238
  194loPI   C2A 3096   5.386   1.817   9.174  0.1240  0.0876 -0.3230
  194loPI   C3A 3097   5.497   1.864   8.715 -0.0563  0.0083  0.1405
  194loPI   C4A 3098   5.350   2.122   8.310  0.0444 -0.1800 -0.0735
  194loPI   C5A 3099   5.123   2.279   7.949 -0.2622 -0.4370 -0.2093
  194loPI   C6A 3100   5.320   2.385   7.617 -0.0780  0.1630  0.0035
  194loPI   C1B 3101   5.350   1.383   9.435 -0.1798  0.0302 -0.2355
  194loPI   C2B 3102   5.356   1.315   9.080 -0.0575 -0.0804 -0.0574
  194loPI   C3B 3103   5.447   1.353   8.660 -0.0233  0.1351 -0.2728
  194loPI   C4B 3104   5.418   1.638   8.224 -0.0302 -0.1373 -0.1259
  195loPI    C1 3105  10.065   8.213  10.396 -0.3178  0.2694 -0.1663
  195loPI    C2 3106  10.068   8.416  10.740  0.1485 -0.1563  0.0932
  195loPI    C3 3107   9.903   8.052  10.724 -0.0379 -0.0623 -0.1851
  195loPI   PO4 3108  10.332   8.275  10.317 -0.1103  0.0170  0.1089
  195loPI   GL1 3109  10.291   8.476   9.942 -0.0028  0.0109  0.2042
  195loPI   GL2 3110  10.347   8.779   9.916  0.1351 -0.2228  0.2495
  195loPI   C1A 3111  10.121   8.231   9.586 -0.0699 -0.0125  0.0145
  195loPI   C2A 3112  10.000   8.385   9.264 -0.0443  0.4197  0.3054
  195loPI   C3A 3113  10.140   8.481   8.900 -0.2714 -0.2122 -0.1433
  195loPI   C4A 3114  10.044   8.472   8.529  0.0068  0.3156 -0.0859
  195loPI   C5A 3115  10.077   8.462   8.109 -0.0843  0.1173  0.1728
  195loPI   C6A 3116   9.975   8.420   7.667  0.0951  0.2040  0.3264
  195loPI   C1B 3117  10.330   8.795   9.448  0.1559 -0.1589 -0.0034
  195loPI   C2B 3118  10.405   8.880   9.023 -0.1963 -0.0772  0.0362
  195loPI   C3B 3119  10.251   8.904   8.626  0.0009 -0.0287  0.0515
  195loPI   C4B 3120  10.184   8.945   8.155  0.0536  0.0876 -0.0860
  196loPI    C1 3121   4.911  16.463  10.470  0.0610 -0.0094  0.0073
  196loPI    C2 3122   4.708  16.306  10.778 -0.1074 -0.0085 -0.1018
  196loPI    C3 3123   5.093  16.408  10.822 -0.0963 -0.1224  0.0722
  196loPI   PO4 3124   4.707  16.257  10.226  0.1011 -0.1915  0.1288
  196loPI   GL1 3125   4.549  16.336   9.902  0.1000  0.1912 -0.1583
  196loPI   GL2 3126   4.649  16.436   9.733 -0.2297  0.3821  0.0048
  196loPI   C1A 3127   4.415  15.993   9.630 -0.0709  0.1188  0.0361
  196loPI   C2A 3128   4.350  15.919   9.205  0.2554 -0.3424  0.1505
  196loPI   C3A 3129   4.377  15.925   8.775 -0.2263 -0.0376 -0.1438
  196loPI   C4A 3130   4.349  15.957   8.316  0.0549  0.1618  0.0036
  196loPI   C5A 3131   4.420  15.770   8.000  0.0781 -0.1750  0.2436
  196loPI   C6A 3132   4.566  15.981   7.699 -0.0866 -0.3237  0.0346
  196loPI   C1B 3133   4.500  16.377   9.351 -0.0197  0.0119  0.0420
  196loPI   C2B 3134   4.608  16.279   9.036 -0.1201  0.1170  0.2389
  196loPI   C3B 3135   4.669  16.285   8.537  0.0526 -0.2575 -0.1902
  196loPI   C4B 3136   4.636  16.397   8.110  0.1307 -0.0565 -0.1685
  197loPI    C1 3137  13.305  13.049  10.776 -0.1171 -0.1948  0.0349
  197loPI    C2 3138  13.413  13.376  10.979  0.0048 -0.0601 -0.2414
  197loPI    C3 3139  13.443  13.015  11.150 -0.1139  0.0695  0.0592
  197loPI   PO4 3140  13.404  13.039  10.550  0.1802  0.1537 -0.0758
  197loPI   GL1 3141  13.436  12.693  10.251 -0.1799 -0.1602  0.1580
  197loPI   GL2 3142  13.128  12.723  10.157  0.2452  0.3420 -0.3876
  197loPI   C1A 3143  13.476  12.358   9.904  0.3088 -0.3955  0.0520
  197loPI   C2A 3144  13.464  12.263   9.429  0.1269 -0.1202  0.2681
  197loPI   C3A 3145  13.396  12.279   9.057 -0.0730 -0.0579 -0.1052
  197loPI   C4A 3146  13.480  12.358   8.646 -0.0079  0.0716 -0.1104
  197loPI   C5A 3147  13.825  12.533   8.260  0.4218 -0.0347  0.0033
  197loPI   C6A 3148  14.080  12.383   7.898 -0.1256 -0.0233  0.1480
  197loPI   C1B 3149  13.175  12.745   9.686  0.5213  0.1603 -0.1380
  197loPI   C2B 3150  13.170  12.674   9.286 -0.2402  0.2250 -0.5314
  197loPI   C3B 3151  13.217  12.763   8.823  0.0579 -0.2576 -0.2939
  197loPI   C4B 3152  13.330  12.778   8.454 -0.1619  0.0517  0.2467
  198loPI    C1 3153   9.100  10.465  10.930 -0.0031 -0.1529  0.0457
  198loPI    C2 3154   8.970  10.597  11.284 -0.0259  0.0946 -0.0529
  198loPI    C3 3155   8.846  10.243  11.145 -0.1661  0.0823  0.0998
  198loPI   PO4 3156   9.118  10.635  10.794  0.2546 -0.0312 -0.0926
  198loPI   GL1 3157   8.980  10.609  10.313  0.0928 -0.2415 -0.3034
  198loPI   GL2 3158   8.924  10.864  10.350  0.3741  0.2060 -0.1818
  198loPI   C1A 3159   8.823  10.450   9.920  0.0390 -0.0855 -0.2648
  198loPI   C2A 3160   8.759  10.551   9.557  0.1995  0.0906  0.0703
  198loPI   C3A 3161   8.747  10.554   9.159 -0.1011  0.5128  0.2017
  198loPI   C4A 3162   8.613  10.577   8.701 -0.1703  0.1977 -0.2006
  198loPI   C5A 3163   8.532  10.610   8.238 -0.1126 -0.0832 -0.0222
  198loPI   C6A 3164   8.345  10.328   7.969 -0.0059  0.0660 -0.2106
  198loPI   C1B 3165   8.939  10.962   9.966 -0.0143 -0.1550 -0.1320
  198loPI   C2B 3166   9.043  11.024   9.537  0.3819 -0.0974 -0.1834
  198loPI   C3B 3167   8.976  11.011   9.126  0.2186  0.0848 -0.0298
  198loPI   C4B 3168   8.850  11.107   8.672 -0.1591  0.1214  0.1022
  199loPI    C1 3169  12.783   1.893  10.316 -0.0379 -0.1581 -0.0262
  199loPI    C2 3170  12.395   1.990  10.312  0.0130  0.0460 -0.0827
  199loPI    C3 3171  12.610   2.038  10.646  0.0230  0.0676 -0.0924
  199loPI   PO4 3172  12.777   1.659  10.229  0.0260  0.0283  0.0650
  199loPI   GL1 3173  13.169   1.395   9.909 -0.2431 -0.1367  0.1445
  199loPI   GL2 3174  12.768   1.343   9.877 -0.1510 -0.1540 -0.1718
  199loPI   C1A 3175  13.390   1.584   9.637  0.2274  0.0259  0.3201
  199loPI   C2A 3176  13.286   1.588   9.243 -0.0380  0.0507  0.1501
  199loPI   C3A 3177  13.268   1.510   8.834 -0.1922 -0.2216 -0.1424
  199loPI   C4A 3178  13.303   1.512   8.422  0.3730 -0.1261  0.1402
  199loPI   C5A 3179  13.240   1.538   7.956  0.2985  0.0148 -0.4168
  199loPI   C6A 3180  13.140   1.385   7.626 -0.1411 -0.3152 -0.3243
  199loPI   C1B 3181  12.891   1.237   9.485  0.1643 -0.2410 -0.0060
  199loPI   C2B 3182  12.964   1.213   9.035  0.0413  0.1843 -0.4282
  199loPI   C3B 3183  12.921   1.195   8.620 -0.1467  0.2883  0.4565
  199loPI   C4B 3184  12.981   1.182   8.161  0.0483  0.2751 -0.0075
  200loPI    C1 3185   0.803  18.324  10.536  0.2623 -0.1558 -0.1023
  200loPI    C2 3186   0.959  18.295  10.904  0.2683 -0.1627 -0.1054
  200loPI    C3 3187   0.861  18.654  10.756  0.2160 -0.1649 -0.0763
  200loPI   PO4 3188   0.500  18.267  10.536  0.0092  0.0802  0.1943
  200loPI   GL1 3189   0.184  18.217  10.145  0.0318  0.2039 -0.0607
  200loPI   GL2 3190   0.318  17.923  10.109  0.1786 -0.1088  0.1136
  200loPI   C1A 3191   0.034  18.443   9.785 -0.1677 -0.0738 -0.0442
  200loPI   C2A 3192  -0.029  18.428   9.412  0.1120 -0.1877 -0.3687
  200loPI   C3A 3193  -0.115  18.280   9.000  0.0110  0.0380 -0.3363
  200loPI   C4A 3194  -0.114  18.276   8.566  0.0636  0.0035 -0.0412
  200loPI   C5A 3195  -0.058  18.163   8.075 -0.4102 -0.2487 -0.1977
  200loPI   C6A 3196   0.183  18.309   7.713  0.0596  0.0150  0.0467
  200loPI   C1B 3197   0.194  17.866   9.768  0.2299 -0.1907  0.1684
  200loPI   C2B 3198   0.112  17.877   9.288  0.2364 -0.0345  0.1436
  200loPI   C3B 3199   0.133  17.807   8.826  0.1473 -0.0174  0.2175
  200loPI   C4B 3200   0.198  17.844   8.407 -0.0856  0.3592 -0.4474
  201loPI    C1 3201   4.685   5.428  10.362 -0.0875 -0.0460 -0.0355
  201loPI    C2 3202   4.610   5.188  10.673  0.2054 -0.1367 -0.0324
  201loPI    C3 3203   4.915   5.446  10.688  0.1616 -0.0733 -0.2069
  201loPI   PO4 3204   4.649   5.260  10.122  0.2061 -0.1999 -0.2040
  201loPI   GL1 3205   4.511   5.338   9.743 -0.1058  0.1055  0.3461
  201loPI   GL2 3206   4.361   5.625   9.822  0.4237  0.0394 -0.0095
  201loPI   C1A 3207   4.385   5.291   9.325 -0.0870 -0.1162 -0.0573
  201loPI   C2A 3208   4.307   5.447   8.887  0.0968 -0.1364 -0.0682
  201loPI   C3A 3209   4.277   5.507   8.447 -0.0405 -0.0368  0.1027
  201loPI   C4A 3210   4.398   5.646   8.046  0.1636 -0.2394 -0.2303
  201loPI   C5A 3211   4.584   5.457   7.753  0.0103 -0.0017  0.0731
  201loPI   C6A 3212   4.506   5.009   7.622  0.0811 -0.0158  0.0993
  201loPI   C1B 3213   4.427   5.793   9.370 -0.1925  0.0736  0.3863
  201loPI   C2B 3214   4.392   5.946   8.970 -0.0907 -0.3286  0.0193
  201loPI   C3B 3215   4.246   5.970   8.626 -0.0216  0.0119 -0.0133
  201loPI   C4B 3216   4.034   5.987   8.212  0.1211 -0.2086 -0.0523
  202loPI    C1 3217  14.982  13.323  10.974 -0.0790 -0.0749  0.0282
  202loPI    C2 3218  14.635  13.284  11.169 -0.0159  0.1291  0.1840
  202loPI    C3 3219  14.981  13.239  11.365  0.0470  0.1427  0.0767
  202loPI   PO4 3220  14.943  13.211  10.780 -0.2598  0.2317 -0.1276
  202loPI   GL1 3221  15.183  13.300  10.360  0.0325  0.0446 -0.1550
  202loPI   GL2 3222  15.440  12.977  10.221  0.2986  0.2929 -0.0399
  202loPI   C1A 3223  15.006  13.220  10.015  0.1112  0.1681  0.0172
  202loPI   C2A 3224  15.004  13.293   9.616  0.4057 -0.1675 -0.0362
  202loPI   C3A 3225  14.963  13.214   9.228  0.1395 -0.0119 -0.1050
  202loPI   C4A 3226  14.998  13.399   8.915  0.3113  0.0655  0.0198
  202loPI   C5A 3227  15.026  13.359   8.437  0.1990 -0.0120  0.2860
  202loPI   C6A 3228  15.180  13.580   7.962  0.2362 -0.2581  0.2369
  202loPI   C1B 3229  15.190  12.784   9.815 -0.0036  0.1840  0.1563
  202loPI   C2B 3230  15.209  12.831   9.399 -0.0491 -0.2413  0.1475
  202loPI   C3B 3231  15.208  12.804   8.893 -0.0860 -0.2236  0.0799
  202loPI   C4B 3232  15.337  12.911   8.507 -0.0363  0.4126  0.1301
  203loPI    C1 3233   0.866  10.428  10.874 -0.2402 -0.0921  0.0736
  203loPI    C2 3234   0.975  10.578  11.228 -0.0361 -0.1494  0.0365
  203loPI    C3 3235   1.251  10.419  10.985 -0.2011 -0.2750 -0.0706
  203loPI   PO4 3236   0.751  10.623  10.778  0.1837 -0.0706  0.1770
  203loPI   GL1 3237   0.511  10.740  10.376  0.0711 -0.0079  0.1163
  203loPI   GL2 3238   0.820  10.967  10.390  0.3046  0.2269  0.2270
  203loPI   C1A 3239   0.519  10.487   9.934 -0.1302  0.1711 -0.1719
  203loPI   C2A 3240   0.562  10.544   9.459 -0.0256  0.1183  0.0151
  203loPI   C3A 3241   0.527  10.504   9.075 -0.0909 -0.2801  0.0172
  203loPI   C4A 3242   0.448  10.413   8.615 -0.0467 -0.1219 -0.1542
  203loPI   C5A 3243   0.610  10.533   8.254 -0.0051  0.1858 -0.0090
  203loPI   C6A 3244   0.681  10.954   8.084 -0.2029 -0.1096  0.2317
  203loPI   C1B 3245   0.714  10.955   9.959 -0.1450  0.0031  0.2601
  203loPI   C2B 3246   0.809  10.961   9.523 -0.1362 -0.0803 -0.2189
  203loPI   C3B 3247   0.687  11.031   9.054 -0.1863 -0.0098  0.2073
  203loPI   C4B 3248   0.639  11.028   8.570  0.1424 -0.0826 -0.0242
  204loPI    C1 3249   8.633  18.016  10.214 -0.2151  0.1289 -0.1523
  204loPI    C2 3250   8.305  18.211  10.336 -0.2497 -0.1446  0.2087
  204loPI    C3 3251   8.638  18.221  10.557 -0.0954 -0.0873 -0.0224
  204loPI   PO4 3252   8.541  17.820  10.106  0.0571  0.2119  0.0172
  204loPI   GL1 3253   8.373  17.441   9.736  0.2601  0.1321  0.1092
  204loPI   GL2 3254   8.332  17.711   9.612 -0.4790 -0.0002 -0.1814
  204loPI   C1A 3255   8.244  17.196   9.398 -0.1201 -0.1013  0.0395
  204loPI   C2A 3256   8.257  17.297   8.952 -0.2378  0.2829 -0.2393
  204loPI   C3A 3257   8.315  17.062   8.601  0.1848  0.1869  0.0645
  204loPI   C4A 3258   8.348  17.062   8.106 -0.2604  0.3643 -0.1412
  204loPI   C5A 3259   8.477  17.295   7.801  0.1211 -0.4206  0.2331
  204loPI   C6A 3260   8.265  17.550   7.503 -0.0454  0.2594  0.2543
  204loPI   C1B 3261   8.448  17.699   9.194 -0.3003  0.2669  0.1727
  204loPI   C2B 3262   8.447  17.727   8.717 -0.0070 -0.0795 -0.0992
  204loPI   C3B 3263   8.181  17.506   8.395 -0.0996 -0.0426 -0.0458
  204loPI   C4B 3264   8.003  17.417   7.928 -0.1341  0.1286 -0.1107
  205loPI    C1 3265  10.773  10.636  10.763 -0.1309  0.1055 -0.3528
  205loPI    C2 3266  10.631  10.330  10.976 -0.0155  0.1619 -0.1928
  205loPI    C3 3267  10.439  10.681  10.977  0.0152  0.1788 -0.1367
  205loPI   PO4 3268  10.819  10.558  10.535 -0.1219 -0.2962 -0.0127
  205loPI   GL1 3269  10.883  10.645  10.095  0.1524 -0.0748  0.1630
  205loPI   GL2 3270  10.717  10.387   9.969 -0.2309 -0.1599  0.0532
  205loPI   C1A 3271  10.830  10.743   9.650  0.2574  0.0203 -0.0052
  205loPI   C2A 3272  10.801  10.667   9.244  0.2524 -0.0336  0.2556
  205loPI   C3A 3273  10.741  10.753   8.756  0.0511 -0.1951 -0.0008
  205loPI   C4A 3274  10.838  10.778   8.284 -0.1931  0.0238  0.0370
  205loPI   C5A 3275  10.870  11.075   8.012 -0.1140  0.0617  0.2145
  205loPI   C6A 3276  10.772  11.095   7.652  0.0018  0.0635 -0.1538
  205loPI   C1B 3277  10.629  10.246   9.511 -0.1351  0.0343  0.2382
  205loPI   C2B 3278  10.557  10.278   9.100 -0.0536 -0.3839  0.2701
  205loPI   C3B 3279  10.556  10.268   8.688 -0.0603  0.0167 -0.2098
  205loPI   C4B 3280  10.594  10.329   8.245  0.0207  0.3350  0.2984
  206loPI    C1 3281   4.862   7.768  10.688  0.1154  0.1396 -0.0926
  206loPI    C2 3282   4.840   8.148  10.810 -0.0009  0.0423  0.1988
  206loPI    C3 3283   4.774   7.851  11.069 -0.4588 -0.1689 -0.1466
  206loPI   PO4 3284   4.834   7.840  10.410 -0.1370  0.0679  0.2169
  206loPI   GL1 3285   4.666   7.839  10.018  0.0093  0.0368 -0.0520
  206loPI   GL2 3286   4.305   7.607   9.826  0.2924  0.1614 -0.0120
  206loPI   C1A 3287   4.813   7.719   9.550  0.1244  0.1882 -0.0231
  206loPI   C2A 3288   4.778   7.802   9.019 -0.0491  0.1189  0.4026
  206loPI   C3A 3289   4.645   7.836   8.615  0.0774  0.2384 -0.2771
  206loPI   C4A 3290   4.498   7.663   8.216  0.3279  0.0143 -0.0216
  206loPI   C5A 3291   4.685   7.826   7.857  0.1576  0.3661 -0.0959
  206loPI   C6A 3292   5.194   7.694   7.960  0.0842 -0.1480  0.2134
  206loPI   C1B 3293   4.300   7.719   9.301 -0.0818 -0.1104  0.1036
  206loPI   C2B 3294   4.237   7.824   8.901 -0.2073  0.1416 -0.1300
  206loPI   C3B 3295   4.158   7.849   8.550 -0.1457  0.0190  0.2674
  206loPI   C4B 3296   3.984   7.522   8.212 -0.0217  0.2105 -0.1719
  207loPI    C1 3297   0.751  15.971  10.463 -0.0813  0.1044  0.3260
  207loPI    C2 3298   0.452  15.902  10.206  0.0146  0.1484  0.2013
  207loPI    C3 3299   0.379  15.919  10.599 -0.1381  0.1103  0.1751
  207loPI   PO4 3300   0.867  16.120  10.373 -0.0034  0.2021  0.3339
  207loPI   GL1 3301   0.715  16.349  10.046  0.0637 -0.2967 -0.2871
  207loPI   GL2 3302   0.775  16.498   9.855 -0.1585 -0.3014 -0.1858
  207loPI   C1A 3303   0.935  16.090   9.731 -0.0080  0.1176 -0.0487
  207loPI   C2A 3304   0.995  16.043   9.271  0.0263  0.4121 -0.2340
  207loPI   C3A 3305   1.133  16.007   8.810 -0.0029  0.0981 -0.2144
  207loPI   C4A 3306   1.134  16.150   8.361 -0.0843  0.3076  0.3779
  207loPI   C5A 3307   1.052  16.064   7.966 -0.2806 -0.2529 -0.0463
  207loPI   C6A 3308   0.928  15.833   7.645 -0.0705 -0.1898  0.2463
  207loPI   C1B 3309   0.758  16.438   9.438 -0.2708 -0.0644 -0.2287
  207loPI   C2B 3310   0.853  16.455   8.984 -0.0212  0.1048 -0.2221
  207loPI   C3B 3311   0.830  16.456   8.542  0.0885  0.1074 -0.2006
  207loPI   C4B 3312   0.914  16.506   8.098  0.1178 -0.0774  0.1970
  208loPI    C1 3313   5.809   2.301  10.814  0.1466  0.3200 -0.1714
  208loPI    C2 3314   5.729   2.601  11.066 -0.0423  0.1299 -0.0015
  208loPI    C3 3315   5.666   2.222  11.180 -0.0945  0.0398 -0.3216
  208loPI   PO4 3316   5.748   2.451  10.531  0.2231 -0.2391  0.3699
  208loPI   GL1 3317   5.930   2.505  10.147  0.2257  0.1426 -0.0814
  208loPI   GL2 3318   6.002   2.123  10.246  0.0021 -0.0873  0.0690
  208loPI   C1A 3319   5.607   2.448   9.800  0.2295  0.0434 -0.0987
  208loPI   C2A 3320   5.462   2.349   9.379 -0.0669  0.1297 -0.0236
  208loPI   C3A 3321   5.412   2.316   8.983  0.3530  0.0965 -0.6291
  208loPI   C4A 3322   5.506   2.504   8.607  0.1673  0.0423 -0.1299
  208loPI   C5A 3323   5.494   2.554   8.207 -0.2774 -0.1587  0.1963
  208loPI   C6A 3324   5.279   2.797   7.959 -0.1786  0.0740  0.0966
  208loPI   C1B 3325   6.027   2.135   9.828  0.0916  0.0610  0.1957
  208loPI   C2B 3326   6.046   2.135   9.312  0.0600 -0.3335  0.2338
  208loPI   C3B 3327   5.889   2.205   8.821  0.2544 -0.1416 -0.0089
  208loPI   C4B 3328   5.857   2.248   8.402 -0.0309 -0.1743  0.2013
  209loPI    C1 3329   0.429  11.744  10.886  0.0969 -0.0066  0.1337
  209loPI    C2 3330   0.084  11.719  11.086  0.0490 -0.1470  0.0352
  209loPI    C3 3331   0.409  11.865  11.267 -0.0435 -0.0824  0.1513
  209loPI   PO4 3332   0.291  11.543  10.680  0.1068 -0.2719  0.3426
  209loPI   GL1 3333   0.061  11.454  10.249  0.1178  0.0643 -0.1442
  209loPI   GL2 3334   0.170  11.685  10.004  0.3374  0.1597 -0.1470
  209loPI   C1A 3335  -0.106  11.221   9.837 -0.1022  0.0431  0.0467
  209loPI   C2A 3336  -0.128  11.227   9.369 -0.0262  0.0634 -0.0310
  209loPI   C3A 3337  -0.150  11.309   8.855  0.6266  0.0929 -0.0553
  209loPI   C4A 3338  -0.142  11.362   8.446  0.2048  0.3367 -0.0835
  209loPI   C5A 3339   0.003  11.410   7.990  0.1782 -0.1214  0.0609
  209loPI   C6A 3340  -0.067  11.806   7.715 -0.2832  0.1964 -0.0136
  209loPI   C1B 3341   0.069  11.647   9.598  0.2344  0.0955  0.1741
  209loPI   C2B 3342   0.097  11.779   9.129 -0.0297 -0.2978 -0.2071
  209loPI   C3B 3343   0.083  11.823   8.761 -0.1697  0.0677 -0.0727
  209loPI   C4B 3344   0.023  11.917   8.317  0.1941 -0.2029  0.1533
  210loPI    C1 3345  18.375   2.911  10.477  0.0833 -0.1058 -0.0063
  210loPI    C2 3346  18.351   3.261  10.670 -0.0345 -0.1830  0.1206
  210loPI    C3 3347  18.112   2.957  10.775 -0.1168 -0.2196 -0.1628
  210loPI   PO4 3348  18.344   2.975  10.214 -0.0255 -0.1152  0.0513
  210loPI   GL1 3349  18.603   3.032   9.872  0.5210 -0.1546 -0.0894
  210loPI   GL2 3350  18.803   3.245   9.853  0.0518 -0.0425  0.0067
  210loPI   C1A 3351  18.715   2.944   9.411 -0.0716 -0.2204 -0.0512
  210loPI   C2A 3352  18.567   2.926   8.993 -0.0181  0.0894 -0.2736
  210loPI   C3A 3353  18.551   2.900   8.528 -0.0465  0.1379  0.0443
  210loPI   C4A 3354  18.728   3.026   8.104  0.2893 -0.1442 -0.2124
  210loPI   C5A 3355  19.040   3.230   7.828  0.3350 -0.1013 -0.0384
  210loPI   C6A 3356  19.423   3.435   7.884 -0.2541  0.0587 -0.1161
  210loPI   C1B 3357  19.012   3.319   9.445  0.1889 -0.0522  0.0058
  210loPI   C2B 3358  18.979   3.347   9.031 -0.2895  0.0225  0.0139
  210loPI   C3B 3359  19.121   3.676   8.779 -0.0211 -0.2731  0.1817
  210loPI   C4B 3360  19.304   3.895   8.471  0.2790  0.1550  0.0046
  211loPI    C1 3361   3.659  12.679  11.070  0.0057  0.1128  0.1601
  211loPI    C2 3362   3.376  12.401  11.019  0.1598 -0.0190  0.0120
  211loPI    C3 3363   3.588  12.410  11.357  0.0443  0.0208  0.0840
  211loPI   PO4 3364   3.803  12.666  10.785  0.0808 -0.0601 -0.3868
  211loPI   GL1 3365   3.736  12.766  10.424  0.1292 -0.0117  0.0910
  211loPI   GL2 3366   3.389  12.915  10.302  0.1344 -0.0266  0.1959
  211loPI   C1A 3367   3.710  12.409  10.133  0.0274  0.1622 -0.1526
  211loPI   C2A 3368   3.670  12.405   9.711  0.1677 -0.0701 -0.2038
  211loPI   C3A 3369   3.653  12.314   9.298 -0.1497 -0.0443  0.2614
  211loPI   C4A 3370   3.707  12.257   8.926  0.1015 -0.2553  0.0979
  211loPI   C5A 3371   3.747  12.417   8.495 -0.0069  0.1982 -0.2058
  211loPI   C6A 3372   3.880  12.342   8.123  0.0661 -0.1682  0.1026
  211loPI   C1B 3373   3.450  12.828   9.901  0.0353  0.0744 -0.0903
  211loPI   C2B 3374   3.337  12.740   9.526  0.2200 -0.2767 -0.2050
  211loPI   C3B 3375   3.338  12.611   9.115  0.0698  0.0519  0.1610
  211loPI   C4B 3376   3.427  12.727   8.738  0.0075  0.2633 -0.0465
  212loPI    C1 3377  17.101   9.290  10.833  0.0051  0.0489 -0.1073
  212loPI    C2 3378  17.254   8.927  10.900  0.0463  0.0847 -0.0062
  212loPI    C3 3379  17.347   9.231  11.142 -0.0070  0.1575 -0.0766
  212loPI   PO4 3380  17.102   9.288  10.547  0.0554  0.4409  0.0922
  212loPI   GL1 3381  17.203   9.224  10.047  0.0857 -0.2016  0.2352
  212loPI   GL2 3382  17.466   9.400  10.220  0.2848  0.0119 -0.1139
  212loPI   C1A 3383  17.055   9.429   9.646  0.2156  0.1397  0.3217
  212loPI   C2A 3384  17.082   9.384   9.142  0.0623  0.0364  0.0044
  212loPI   C3A 3385  17.059   9.383   8.793 -0.1150  0.1012  0.1835
  212loPI   C4A 3386  17.128   9.442   8.408  0.3131 -0.0610  0.1534
  212loPI   C5A 3387  17.278   9.487   8.064  0.0657  0.0158  0.0291
  212loPI   C6A 3388  17.229   9.690   7.725 -0.0956  0.0551  0.1008
  212loPI   C1B 3389  17.569   9.369   9.764  0.0610 -0.0398 -0.1473
  212loPI   C2B 3390  17.664   9.377   9.366  0.0552  0.0715  0.1573
  212loPI   C3B 3391  17.556   9.467   8.959 -0.4781  0.0419 -0.0673
  212loPI   C4B 3392  17.609   9.481   8.509  0.0054  0.0551  0.0156
  213loPI    C1 3393   0.864   1.342  10.402 -0.0880  0.2045  0.0617
  213loPI    C2 3394   0.754   1.409  10.780  0.1119  0.3683  0.0918
  213loPI    C3 3395   0.581   1.613  10.483  0.0471  0.3337  0.1058
  213loPI   PO4 3396   0.919   1.072  10.427 -0.1759  0.1039  0.2029
  213loPI   GL1 3397   1.022   0.901  10.101 -0.0959 -0.0783 -0.0258
  213loPI   GL2 3398   0.724   0.762  10.049  0.1498  0.3505 -0.1059
  213loPI   C1A 3399   1.030   1.144   9.746  0.3540  0.1543  0.0549
  213loPI   C2A 3400   0.932   1.208   9.357  0.0876  0.1602  0.0872
  213loPI   C3A 3401   0.925   0.987   8.919 -0.0802 -0.2539  0.0217
  213loPI   C4A 3402   0.786   0.999   8.607  0.3916 -0.0633  0.2344
  213loPI   C5A 3403   0.666   0.981   8.150  0.2148  0.1427 -0.2749
  213loPI   C6A 3404   0.822   1.143   7.769 -0.1371  0.1514  0.1105
  213loPI   C1B 3405   0.541   0.566   9.727  0.1297 -0.3240 -0.0923
  213loPI   C2B 3406   0.291   0.313   9.416 -0.0472 -0.0909  0.0278
  213loPI   C3B 3407   0.172   0.169   8.944  0.1265 -0.0271  0.1794
  213loPI   C4B 3408   0.235   0.113   8.446  0.4518  0.4260  0.1589
  214loPI    C1 3409  12.760  17.726  10.553 -0.0432  0.1100  0.0806
  214loPI    C2 3410  13.139  17.811  10.458  0.0287 -0.0022  0.2621
  214loPI    C3 3411  12.916  18.081  10.652 -0.0453  0.1369 -0.0120
  214loPI   PO4 3412  12.600  17.680  10.405  0.2173 -0.1468  0.2327
  214loPI   GL1 3413  12.824  17.527  10.116  0.2761  0.1349  0.2302
  214loPI   GL2 3414  13.125  17.300  10.272  0.0887 -0.0444  0.0603
  214loPI   C1A 3415  12.774  17.485   9.610 -0.0829  0.0686  0.2136
  214loPI   C2A 3416  13.011  17.451   9.156 -0.0885  0.1226  0.0421
  214loPI   C3A 3417  13.081  17.296   8.774 -0.2067  0.1576  0.3020
  214loPI   C4A 3418  13.211  17.345   8.376 -0.0656  0.2365  0.1957
  214loPI   C5A 3419  13.276  17.046   7.979 -0.0036  0.0216 -0.0800
  214loPI   C6A 3420  13.671  17.120   7.846  0.0609  0.0039 -0.0186
  214loPI   C1B 3421  13.164  17.128   9.786 -0.2245  0.3987 -0.1711
  214loPI   C2B 3422  13.231  16.915   9.309  0.0017 -0.0583  0.1221
  214loPI   C3B 3423  13.275  16.792   8.881  0.0244 -0.1108 -0.0242
  214loPI   C4B 3424  13.354  16.839   8.506  0.0263 -0.3325  0.1223
  215loPI    C1 3425  11.305  10.422  10.225  0.0488 -0.0926 -0.2305
  215loPI    C2 3426  11.478  10.146  10.457 -0.2300 -0.1519 -0.0883
  215loPI    C3 3427  11.352  10.490  10.617 -0.2090 -0.0931 -0.1975
  215loPI   PO4 3428  11.500  10.402   9.996 -0.2842  0.1990 -0.0686
  215loPI   GL1 3429  11.648  10.274   9.638 -0.0295 -0.2111 -0.2058
  215loPI   GL2 3430  11.847  10.045   9.787 -0.0032 -0.0594  0.0041
  215loPI   C1A 3431  11.561  10.436   9.216 -0.3804 -0.0145  0.0517
  215loPI   C2A 3432  11.513  10.256   8.821 -0.0776 -0.3677 -0.4621
  215loPI   C3A 3433  11.505  10.384   8.417 -0.2280 -0.0135  0.0941
  215loPI   C4A 3434  11.650  10.469   8.020  0.2587 -0.1314  0.0203
  215loPI   C5A 3435  11.880  10.747   7.836  0.2223  0.0240 -0.1800
  215loPI   C6A 3436  11.773  10.631   7.445  0.1879  0.2033 -0.0449
  215loPI   C1B 3437  11.849   9.802   9.443  0.0103  0.1570  0.0175
  215loPI   C2B 3438  11.803   9.831   8.985 -0.1338  0.0602  0.1321
  215loPI   C3B 3439  11.755   9.882   8.501 -0.0514 -0.0936 -0.2633
  215loPI   C4B 3440  11.674   9.906   8.078 -0.0615 -0.1812 -0.2826
  216loPI    C1 3441   1.801   6.623  10.632  0.0374 -0.3109  0.1975
  216loPI    C2 3442   1.812   6.865  10.950  0.2549  0.2238 -0.2012
  216loPI    C3 3443   1.962   6.495  10.975  0.0599  0.1737  0.3753
  216loPI   PO4 3444   1.950   6.717  10.486  0.0782  0.0014  0.1151
  216loPI   GL1 3445   2.029   6.440  10.155  0.1156  0.0861 -0.3098
  216loPI   GL2 3446   1.756   6.215  10.106 -0.0886  0.0856  0.2583
  216loPI   C1A 3447   1.939   6.730   9.802  0.0153  0.2080 -0.2894
  216loPI   C2A 3448   1.789   6.994   9.501 -0.2790  0.0918 -0.0256
  216loPI   C3A 3449   1.868   7.114   9.053 -0.0783  0.0895  0.0986
  216loPI   C4A 3450   1.863   7.129   8.659 -0.1456 -0.0162  0.2034
  216loPI   C5A 3451   1.851   7.089   8.259 -0.0016  0.2816 -0.0827
  216loPI   C6A 3452   1.765   7.306   7.931 -0.0992 -0.1917 -0.0598
  216loPI   C1B 3453   1.618   6.368   9.723 -0.1424  0.0587 -0.2078
  216loPI   C2B 3454   1.664   6.516   9.291 -0.3329 -0.0938  0.2594
  216loPI   C3B 3455   1.685   6.665   8.791 -0.0953 -0.0164  0.0919
  216loPI   C4B 3456   1.706   6.646   8.358 -0.0316  0.3167 -0.0558
  217loPI    C1 3457  17.318  15.612  10.609 -0.0955  0.1622  0.1486
  217loPI    C2 3458  17.208  15.438  10.952 -0.0419  0.3087  0.2410
  217loPI    C3 3459  17.400  15.789  10.958  0.3167  0.1204  0.0785
  217loPI   PO4 3460  17.044  15.620  10.500 -0.0492  0.0090  0.1389
  217loPI   GL1 3461  16.636  15.598  10.412  0.0556 -0.2379  0.3029
  217loPI   GL2 3462  16.647  15.857  10.173  0.0270 -0.0282 -0.0579
  217loPI   C1A 3463  16.423  15.345  10.145 -0.0877 -0.2131  0.4469
  217loPI   C2A 3464  16.521  15.258   9.682 -0.1295 -0.0732 -0.3458
  217loPI   C3A 3465  16.382  15.191   9.321 -0.2920  0.2027 -0.1921
  217loPI   C4A 3466  16.562  14.953   8.871  0.1034  0.0273 -0.0830
  217loPI   C5A 3467  16.574  15.020   8.441  0.1336 -0.1089 -0.0224
  217loPI   C6A 3468  16.354  14.911   8.098 -0.1624 -0.2864  0.3664
  217loPI   C1B 3469  16.670  15.716   9.681 -0.1526 -0.0961 -0.1361
  217loPI   C2B 3470  16.755  15.710   9.224 -0.0168 -0.0302  0.0739
  217loPI   C3B 3471  16.797  15.599   8.833  0.3117 -0.1815  0.0276
  217loPI   C4B 3472  16.796  15.576   8.456 -0.0876  0.0846 -0.2359
  218loPI    C1 3473  16.226   6.885  10.592  0.0459  0.1319 -0.0431
  218loPI    C2 3474  16.264   7.143  10.895 -0.1877 -0.0250  0.1232
  218loPI    C3 3475  16.565   6.896  10.804 -0.0764  0.0972  0.1569
  218loPI   PO4 3476  16.019   7.004  10.422  0.0510  0.0264  0.3276
  218loPI   GL1 3477  15.817   6.918  10.005  0.0576 -0.0381  0.4699
  218loPI   GL2 3478  16.033   6.622  10.000 -0.0371  0.2345  0.0889
  218loPI   C1A 3479  15.987   7.018   9.527 -0.1079 -0.2149  0.0249
  218loPI   C2A 3480  16.045   7.133   9.058 -0.1162  0.1524  0.1499
  218loPI   C3A 3481  16.000   7.103   8.690 -0.0160 -0.1575 -0.0860
  218loPI   C4A 3482  16.126   7.023   8.239 -0.0877 -0.0426  0.1022
  218loPI   C5A 3483  16.258   6.813   7.818 -0.1070 -0.0179 -0.1311
  218loPI   C6A 3484  16.230   6.755   7.424  0.0373  0.0422 -0.2620
  218loPI   C1B 3485  15.854   6.454   9.610 -0.1995 -0.1187  0.1188
  218loPI   C2B 3486  15.792   6.609   9.148 -0.2429  0.1728 -0.2196
  218loPI   C3B 3487  15.695   6.633   8.699  0.1125 -0.1184  0.0010
  218loPI   C4B 3488  15.886   6.570   8.291  0.2232  0.0772  0.1375
  219loPI    C1 3489   5.960   8.500  10.874 -0.1465  0.0264  0.0558
  219loPI    C2 3490   5.986   8.199  11.137 -0.0181  0.0670  0.0902
  219loPI    C3 3491   5.970   8.576  11.267 -0.0788  0.0805  0.0437
  219loPI   PO4 3492   5.802   8.474  10.679  0.1801 -0.1767 -0.2012
  219loPI   GL1 3493   5.847   8.398  10.328 -0.1843  0.1043  0.2603
  219loPI   GL2 3494   5.871   8.584  10.143  0.0312  0.0855  0.0143
  219loPI   C1A 3495   5.520   8.267   9.934  0.0155 -0.2797 -0.2149
  219loPI   C2A 3496   5.504   8.352   9.542  0.0564  0.2943  0.1123
  219loPI   C3A 3497   5.461   8.403   9.189 -0.0848 -0.2498  0.0565
  219loPI   C4A 3498   5.405   8.415   8.806  0.0950 -0.4529  0.2652
  219loPI   C5A 3499   5.400   8.538   8.378 -0.3012  0.0717 -0.1002
  219loPI   C6A 3500   5.803   8.365   8.026  0.2508 -0.1697 -0.1157
  219loPI   C1B 3501   5.704   8.742   9.727  0.1467 -0.0954  0.0224
  219loPI   C2B 3502   5.575   8.828   9.375  0.2592 -0.3327  0.4628
  219loPI   C3B 3503   5.594   8.896   8.984 -0.2316 -0.2517 -0.0689
  219loPI   C4B 3504   5.647   8.887   8.565 -0.2040 -0.1270  0.0262
  220loPI    C1 3505  16.891  12.381  10.890  0.2564 -0.0539  0.0408
  220loPI    C2 3506  16.638  12.073  10.906  0.0695  0.1011  0.1028
  220loPI    C3 3507  16.877  12.151  11.217  0.3808 -0.1990 -0.0545
  220loPI   PO4 3508  17.080  12.399  10.645  0.2432  0.0775  0.2892
  220loPI   GL1 3509  17.111  12.346  10.200  0.1510  0.1031 -0.0608
  220loPI   GL2 3510  17.196  12.131  10.016 -0.0262 -0.1220 -0.2950
  220loPI   C1A 3511  17.036  12.460   9.698  0.0492  0.0307  0.1341
  220loPI   C2A 3512  17.080  12.482   9.269 -0.0978 -0.0055  0.1035
  220loPI   C3A 3513  17.083  12.598   8.796  0.0707 -0.0588  0.0504
  220loPI   C4A 3514  17.028  12.640   8.390 -0.3731 -0.1747  0.1346
  220loPI   C5A 3515  16.806  12.837   8.014 -0.2713 -0.0987  0.1412
  220loPI   C6A 3516  16.699  13.021   7.606  0.0079  0.3119 -0.0451
  220loPI   C1B 3517  17.228  12.009   9.587 -0.3450  0.1960  0.1111
  220loPI   C2B 3518  17.278  12.016   9.160  0.1544  0.3158 -0.1553
  220loPI   C3B 3519  17.310  12.108   8.673  0.0756  0.1263 -0.2942
  220loPI   C4B 3520  17.353  12.256   8.255 -0.1406  0.1404 -0.2737
  221loPI    C1 3521   1.209  15.184  10.464  0.0870  0.2231  0.0398
  221loPI    C2 3522   1.471  15.067  10.185  0.2967 -0.1800  0.3938
  221loPI    C3 3523   1.597  15.273  10.505  0.1270 -0.0948  0.4067
  221loPI   PO4 3524   1.052  15.272  10.368  0.1821  0.3226 -0.1245
  221loPI   GL1 3525   0.863  15.137   9.913  0.2485  0.0777 -0.0939
  221loPI   GL2 3526   0.969  14.911   9.976 -0.0421 -0.3182  0.0054
  221loPI   C1A 3527   0.869  15.127   9.489 -0.1787 -0.1259 -0.1197
  221loPI   C2A 3528   1.013  15.125   9.049  0.0522 -0.0458 -0.3209
  221loPI   C3A 3529   1.075  15.139   8.585  0.2163  0.3854  0.2020
  221loPI   C4A 3530   1.030  15.048   8.131 -0.1433  0.1774 -0.0381
  221loPI   C5A 3531   1.091  15.291   7.830 -0.1468  0.1149  0.2587
  221loPI   C6A 3532   0.856  15.382   7.397 -0.1421  0.1469 -0.0306
  221loPI   C1B 3533   0.860  14.681   9.646 -0.3082  0.0969 -0.3563
  221loPI   C2B 3534   0.793  14.629   9.232 -0.0641 -0.1641  0.1056
  221loPI   C3B 3535   0.704  14.722   8.839  0.4672 -0.2059  0.1567
  221loPI   C4B 3536   0.822  14.591   8.418 -0.1070 -0.3670 -0.0743
  222loPI    C1 3537  16.666   3.608  10.581 -0.0058 -0.0913  0.0600
  222loPI    C2 3538  17.050   3.504  10.616  0.0072 -0.0833 -0.0551
  222loPI    C3 3539  16.820   3.530  10.942  0.0982 -0.1094  0.0119
  222loPI   PO4 3540  16.689   3.706  10.327 -0.1327 -0.0657 -0.0483
  222loPI   GL1 3541  16.679   3.522   9.803 -0.1079  0.1850 -0.0025
  222loPI   GL2 3542  16.365   3.381   9.650  0.2676 -0.1421 -0.1786
  222loPI   C1A 3543  16.803   3.506   9.418  0.0311 -0.3938  0.0086
  222loPI   C2A 3544  17.229   3.456   9.209 -0.2389 -0.2912 -0.1250
  222loPI   C3A 3545  17.239   3.464   8.790 -0.2054 -0.3892  0.0836
  222loPI   C4A 3546  17.390   3.702   8.377  0.0165 -0.1271  0.1485
  222loPI   C5A 3547  17.751   3.875   8.165  0.0441 -0.1407  0.0707
  222loPI   C6A 3548  18.035   4.187   8.265 -0.2577 -0.0613 -0.0774
  222loPI   C1B 3549  16.356   3.485   9.218 -0.1247 -0.0901 -0.1552
  222loPI   C2B 3550  16.360   3.460   8.739  0.2494  0.0241  0.1218
  222loPI   C3B 3551  16.513   3.423   8.280 -0.2490  0.3210 -0.0838
  222loPI   C4B 3552  16.261   3.464   8.059  0.0208  0.0817  0.1879
  223loPI    C1 3553  18.181  11.777  10.335 -0.1288 -0.2430  0.1683
  223loPI    C2 3554  18.160  12.084  10.592  0.3216 -0.1252  0.0721
  223loPI    C3 3555  18.364  11.754  10.690  0.0081 -0.3164  0.0937
  223loPI   PO4 3556  18.292  11.927  10.114 -0.0026  0.3141  0.0601
  223loPI   GL1 3557  18.526  12.172   9.815 -0.2456  0.3249 -0.3464
  223loPI   GL2 3558  18.817  12.382   9.704 -0.0196  0.1261 -0.1811
  223loPI   C1A 3559  18.383  12.158   9.399  0.0859 -0.1379  0.2730
  223loPI   C2A 3560  18.335  12.209   8.978 -0.4006 -0.3424 -0.1665
  223loPI   C3A 3561  18.352  12.293   8.608  0.0231  0.1594 -0.2151
  223loPI   C4A 3562  18.229  12.269   8.141  0.1396  0.0893  0.3380
  223loPI   C5A 3563  17.914  12.317   8.048 -0.1871 -0.1077  0.0994
  223loPI   C6A 3564  17.761  12.576   7.705 -0.0912 -0.0888  0.1046
  223loPI   C1B 3565  18.874  12.372   9.269  0.2402 -0.1040  0.0257
  223loPI   C2B 3566  18.804  12.316   8.801 -0.0542 -0.0323 -0.0996
  223loPI   C3B 3567  18.776  12.364   8.414  0.2138  0.0260 -0.0652
  223loPI   C4B 3568  18.706  12.491   7.977  0.2507  0.0563 -0.1824
  224loPI    C1 3569   9.347  10.228  10.402 -0.1513 -0.0773 -0.3451
  224loPI    C2 3570   8.986  10.180  10.569 -0.0970  0.0409 -0.1920
  224loPI    C3 3571   9.270   9.904  10.623 -0.0406  0.1373  0.0162
  224loPI   PO4 3572   9.453  10.514  10.482  0.1428 -0.2799  0.3044
  224loPI   GL1 3573   9.452  10.710  10.138 -0.0794  0.1422  0.1505
  224loPI   GL2 3574   9.358  10.554   9.990 -0.1502 -0.2693 -0.2306
  224loPI   C1A 3575   9.501  11.059   9.757 -0.1151  0.1890  0.0819
  224loPI   C2A 3576   9.407  11.128   9.296  0.1815 -0.1546 -0.0534
  224loPI   C3A 3577   9.461  11.031   8.957 -0.1881 -0.1225  0.2322
  224loPI   C4A 3578   9.386  11.069   8.585 -0.2684  0.1469  0.2480
  224loPI   C5A 3579   9.123  11.043   8.243  0.1523  0.0275  0.0213
  224loPI   C6A 3580   8.847  10.961   7.841  0.3383  0.0743 -0.1550
  224loPI   C1B 3581   9.299  10.620   9.601 -0.1391  0.0276  0.0904
  224loPI   C2B 3582   9.204  10.635   9.214  0.1610  0.4211 -0.1499
  224loPI   C3B 3583   9.157  10.652   8.741 -0.1635 -0.0385  0.1385
  224loPI   C4B 3584   8.989  10.554   8.295 -0.1034  0.0829  0.0502
  225loPI    C1 3585  15.017   1.598  10.628 -0.0927 -0.4539 -0.0860
  225loPI    C2 3586  14.726   1.665  10.894  0.1123  0.1105  0.0105
  225loPI    C3 3587  15.083   1.531  11.016  0.0192 -0.2129 -0.0616
  225loPI   PO4 3588  14.965   1.563  10.417 -0.0916  0.1087 -0.1575
  225loPI   GL1 3589  15.101   1.493  10.028  0.2731  0.0103 -0.1872
  225loPI   GL2 3590  15.297   1.367   9.877 -0.0146 -0.2369  0.0018
  225loPI   C1A 3591  14.795   1.396   9.718  0.1287  0.4082  0.2611
  225loPI   C2A 3592  14.826   1.430   9.291  0.1157 -0.0554  0.1507
  225loPI   C3A 3593  14.821   1.434   8.869  0.0479  0.0334  0.1449
  225loPI   C4A 3594  14.773   1.483   8.371 -0.1732 -0.2699  0.1090
  225loPI   C5A 3595  15.051   1.634   8.041  0.2051 -0.2408 -0.3835
  225loPI   C6A 3596  15.143   1.991   7.977 -0.0543 -0.2969  0.2300
  225loPI   C1B 3597  15.273   1.315   9.444 -0.0011 -0.1923 -0.1063
  225loPI   C2B 3598  15.340   1.484   8.954 -0.2952  0.0320  0.1858
  225loPI   C3B 3599  15.438   1.513   8.463 -0.2484  0.3589  0.0548
  225loPI   C4B 3600  15.579   1.717   8.025 -0.0469  0.0469  0.3070
  226loPI    C1 3601  16.254   8.886  10.638  0.0233  0.1979  0.0916
  226loPI    C2 3602  16.166   9.145  10.929 -0.2145  0.1573  0.0573
  226loPI    C3 3603  15.954   8.808  10.891 -0.1456  0.1340 -0.1258
  226loPI   PO4 3604  16.315   8.948  10.442  0.1299  0.3106 -0.1942
  226loPI   GL1 3605  16.145   8.777  10.130  0.0938  0.2057  0.2093
  226loPI   GL2 3606  16.395   8.733   9.904 -0.3740 -0.2134 -0.1219
  226loPI   C1A 3607  15.799   8.805   9.809  0.0833  0.1772  0.1447
  226loPI   C2A 3608  15.757   8.863   9.309  0.1424 -0.1090  0.0385
  226loPI   C3A 3609  15.852   8.790   8.913 -0.0312 -0.1558 -0.1372
  226loPI   C4A 3610  15.851   8.822   8.539  0.1150 -0.2569 -0.0798
  226loPI   C5A 3611  15.831   8.753   8.014 -0.1927  0.0193  0.0034
  226loPI   C6A 3612  15.492   8.878   7.633  0.2562  0.0881  0.0638
  226loPI   C1B 3613  16.457   8.829   9.485  0.2150 -0.0490  0.1346
  226loPI   C2B 3614  16.281   8.853   9.105  0.0949  0.1221 -0.1518
  226loPI   C3B 3615  16.380   8.865   8.654 -0.1669 -0.0869 -0.0511
  226loPI   C4B 3616  16.356   8.851   8.204 -0.0547 -0.4034 -0.0438
  227loPI    C1 3617   3.160   9.237  10.706 -0.2490  0.0672  0.2023
  227loPI    C2 3618   3.275   9.583  10.871 -0.2583  0.0818  0.1780
  227loPI    C3 3619   3.338   9.239  11.064  0.2738  0.0418 -0.0482
  227loPI   PO4 3620   3.198   9.302  10.473  0.0562 -0.1194 -0.1901
  227loPI   GL1 3621   3.434   9.285  10.076  0.2044 -0.1521  0.1775
  227loPI   GL2 3622   3.026   9.314   9.935  0.1487 -0.1082  0.1311
  227loPI   C1A 3623   3.509   9.409   9.594  0.0597  0.0208  0.1375
  227loPI   C2A 3624   3.409   9.551   9.175  0.1731  0.1978 -0.0500
  227loPI   C3A 3625   3.445   9.516   8.746 -0.0208 -0.2077 -0.1144
  227loPI   C4A 3626   3.399   9.671   8.280 -0.0099  0.3151 -0.3175
  227loPI   C5A 3627   3.169   9.640   7.984 -0.0834  0.0828  0.1623
  227loPI   C6A 3628   3.307   9.586   7.520  0.1364  0.0268 -0.1796
  227loPI   C1B 3629   2.924   9.443   9.474 -0.1547 -0.1802 -0.2966
  227loPI   C2B 3630   2.954   9.574   8.960 -0.0320 -0.0461  0.4039
  227loPI   C3B 3631   2.923   9.559   8.481 -0.1309  0.0482  0.0647
  227loPI   C4B 3632   2.671   9.322   8.158 -0.1475  0.0532 -0.2109
  228loPI    C1 3633  15.201  18.396  10.780 -0.2425 -0.3151  0.3237
  228loPI    C2 3634  15.453  18.432  11.088  0.2368  0.0625 -0.0938
  228loPI    C3 3635  15.201  18.730  11.000  0.3331  0.0959 -0.2604
  228loPI   PO4 3636  15.408  18.349  10.618  0.2700  0.0803 -0.0746
  228loPI   GL1 3637  15.465  18.340  10.260 -0.0001 -0.2952 -0.0468
  228loPI   GL2 3638  15.122  18.236  10.169 -0.2413  0.1683  0.1679
  228loPI   C1A 3639  15.681  18.241   9.924  0.1073  0.1003 -0.2465
  228loPI   C2A 3640  15.625  18.131   9.391 -0.1709 -0.2068 -0.3218
  228loPI   C3A 3641  15.652  18.107   9.032  0.0832 -0.1648 -0.0429
  228loPI   C4A 3642  15.682  17.954   8.657  0.2934  0.2614  0.0513
  228loPI   C5A 3643  15.562  17.884   8.240  0.2656 -0.0880  0.1091
  228loPI   C6A 3644  15.218  18.002   7.983  0.4314 -0.1538  0.2657
  228loPI   C1B 3645  15.092  18.226   9.768  0.0536  0.0861  0.0828
  228loPI   C2B 3646  15.127  18.134   9.324 -0.1625  0.0012 -0.2031
  228loPI   C3B 3647  15.143  18.190   8.900 -0.1478 -0.1365  0.1068
  228loPI   C4B 3648  15.178  18.102   8.518  0.0291 -0.0255  0.0207
  229loPI    C1 3649   7.115   8.554  10.020  0.0023  0.2351  0.3045
  229loPI    C2 3650   7.194   8.319  10.334  0.2388  0.0891  0.1399
  229loPI    C3 3651   6.832   8.486  10.294  0.0576 -0.2689  0.2451
  229loPI   PO4 3652   7.447   8.698  10.027 -0.0084 -0.0234  0.1366
  229loPI   GL1 3653   7.741   8.503   9.775 -0.1211  0.0515  0.1448
  229loPI   GL2 3654   7.677   8.216   9.908 -0.4128  0.1745 -0.3764
  229loPI   C1A 3655   7.636   8.628   9.393 -0.0800 -0.0437  0.3183
  229loPI   C2A 3656   7.713   8.819   9.016  0.1028  0.1909 -0.1012
  229loPI   C3A 3657   7.577   9.175   8.721  0.0884  0.0048  0.0850
  229loPI   C4A 3658   7.317   9.289   8.414 -0.1230 -0.0032  0.2161
  229loPI   C5A 3659   7.025   9.340   8.032 -0.0552  0.3799 -0.2092
  229loPI   C6A 3660   6.606   9.454   7.908  0.3250  0.1516 -0.3284
  229loPI   C1B 3661   7.385   8.228   9.506  0.1393  0.0154  0.2739
  229loPI   C2B 3662   7.346   8.283   9.089  0.0896 -0.0437  0.3670
  229loPI   C3B 3663   7.464   8.473   8.720  0.1726  0.1691 -0.0197
  229loPI   C4B 3664   7.595   8.351   8.335 -0.3332  0.1980  0.1024
  230loPI    C1 3665  14.342   8.167  10.294  0.3108  0.0408 -0.0387
  230loPI    C2 3666  14.302   8.561  10.348 -0.0569 -0.0201  0.1661
  230loPI    C3 3667  14.510   8.343  10.611  0.1527  0.0364  0.0489
  230loPI   PO4 3668  14.459   8.095  10.044  0.2157  0.0352  0.2063
  230loPI   GL1 3669  14.669   8.230   9.726  0.1348 -0.2135  0.1107
  230loPI   GL2 3670  14.413   8.608   9.841  0.2412 -0.1981  0.0376
  230loPI   C1A 3671  14.551   8.215   9.289  0.0920 -0.0047 -0.3263
  230loPI   C2A 3672  14.557   8.366   8.851 -0.1014  0.0946 -0.2326
  230loPI   C3A 3673  14.557   8.240   8.472 -0.1381  0.0885 -0.2538
  230loPI   C4A 3674  14.329   8.221   8.019  0.1703 -0.4694  0.4123
  230loPI   C5A 3675  14.079   8.468   7.723  0.1350  0.0270  0.0252
  230loPI   C6A 3676  13.749   8.546   7.325 -0.0786  0.0563 -0.1678
  230loPI   C1B 3677  14.289   8.671   9.440  0.2301  0.0048 -0.1572
  230loPI   C2B 3678  14.210   8.682   9.022  0.1598 -0.1243 -0.1038
  230loPI   C3B 3679  14.282   8.645   8.553 -0.0561 -0.0242  0.2398
  230loPI   C4B 3680  13.968   8.581   8.280  0.2747  0.2048  0.1769
  231loPI    C1 3681  10.720  14.552  10.588  0.0610 -0.0649 -0.0061
  231loPI    C2 3682  10.993  14.719  10.829  0.0554 -0.1168  0.0366
  231loPI    C3 3683  10.691  14.508  10.984  0.0290 -0.1167 -0.0142
  231loPI   PO4 3684  10.704  14.800  10.398 -0.2873 -0.1573  0.0175
  231loPI   GL1 3685  10.742  14.877   9.918 -0.0038 -0.1108  0.0045
  231loPI   GL2 3686  10.513  15.116  10.014  0.1156  0.1384 -0.1467
  231loPI   C1A 3687  10.664  14.767   9.440  0.0545  0.1263  0.1456
  231loPI   C2A 3688  10.674  14.704   8.989  0.0844 -0.0953  0.1054
  231loPI   C3A 3689  10.749  14.638   8.513  0.3566 -0.3288 -0.1989
  231loPI   C4A 3690  10.662  14.463   8.055 -0.4430  0.2529 -0.3044
  231loPI   C5A 3691  10.236  14.417   8.000  0.0926 -0.2405  0.1886
  231loPI   C6A 3692   9.867  14.535   8.255  0.2932  0.2444 -0.0242
  231loPI   C1B 3693  10.433  15.208   9.551 -0.0224 -0.0753  0.3232
  231loPI   C2B 3694  10.431  15.180   9.124 -0.0894  0.0760 -0.4459
  231loPI   C3B 3695  10.507  15.135   8.705  0.1686  0.2813 -0.2076
  231loPI   C4B 3696  10.554  15.062   8.240 -0.1303 -0.0793  0.2007
  232loPI    C1 3697  13.611  14.088  10.782  0.2054 -0.0787 -0.0925
  232loPI    C2 3698  13.854  13.960  11.072  0.1107 -0.0245  0.0115
  232loPI    C3 3699  13.464  13.869  11.083  0.0937  0.0394 -0.0600
  232loPI   PO4 3700  13.745  13.997  10.557 -0.0686 -0.1357  0.1936
  232loPI   GL1 3701  13.576  13.848  10.111 -0.2939 -0.0467  0.4258
  232loPI   GL2 3702  13.175  13.724  10.158 -0.0486 -0.2270  0.0327
  232loPI   C1A 3703  13.455  13.896   9.735  0.2582  0.2361 -0.0512
  232loPI   C2A 3704  13.352  14.100   9.379 -0.0512  0.1843  0.1660
  232loPI   C3A 3705  13.376  14.128   8.920 -0.2774  0.3432 -0.2446
  232loPI   C4A 3706  13.360  14.033   8.470  0.2612 -0.0818 -0.0243
  232loPI   C5A 3707  13.354  13.801   8.216  0.2425  0.1338  0.3460
  232loPI   C6A 3708  13.407  13.754   7.759 -0.1816 -0.1708  0.0601
  232loPI   C1B 3709  13.037  13.604   9.794  0.0069  0.0777  0.2164
  232loPI   C2B 3710  13.130  13.634   9.366  0.0733  0.3811  0.1258
  232loPI   C3B 3711  13.218  13.658   8.990  0.1131  0.4066  0.1065
  232loPI   C4B 3712  13.072  13.550   8.582  0.1635 -0.2678 -0.1089
  233loPI    C1 3713   8.325   2.660   9.855  0.0643  0.1923  0.0293
  233loPI    C2 3714   8.666   2.463   9.789 -0.1178 -0.1548  0.1025
  233loPI    C3 3715   8.417   2.340  10.076 -0.1868  0.2498  0.2219
  233loPI   PO4 3716   8.341   2.890   9.929 -0.1531 -0.0423  0.0991
  233loPI   GL1 3717   8.379   3.201   9.644  0.1037 -0.0283  0.0045
  233loPI   GL2 3718   8.529   3.423   9.666  0.0643 -0.2384  0.1073
  233loPI   C1A 3719   8.388   3.169   9.182  0.1683  0.2533  0.0241
  233loPI   C2A 3720   8.128   3.245   8.796  0.1658  0.1246  0.2348
  233loPI   C3A 3721   8.113   3.493   8.360  0.0161 -0.1177  0.1063
  233loPI   C4A 3722   8.070   3.609   7.944 -0.0107  0.0179  0.0258
  233loPI   C5A 3723   8.064   3.659   7.582  0.1371 -0.1273 -0.2699
  233loPI   C6A 3724   8.438   3.697   7.424  0.3604 -0.2348 -0.0989
  233loPI   C1B 3725   8.538   3.653   9.329  0.1528 -0.2245 -0.0784
  233loPI   C2B 3726   8.452   3.583   8.916  0.1923  0.0086 -0.2319
  233loPI   C3B 3727   8.655   3.397   8.605 -0.4467  0.0117 -0.1350
  233loPI   C4B 3728   8.544   3.049   8.434 -0.4706 -0.2899  0.1095
  234loPI    C1 3729   2.682  13.075  10.921  0.1554  0.0629  0.1277
  234loPI    C2 3730   2.411  13.259  11.150  0.3014  0.1185  0.2577
  234loPI    C3 3731   2.762  13.148  11.306  0.1555 -0.4166  0.2245
  234loPI   PO4 3732   2.564  12.883  10.763 -0.0696  0.3059  0.0130
  234loPI   GL1 3733   2.368  12.758  10.368  0.2383 -0.1077  0.2575
  234loPI   GL2 3734   2.187  12.453  10.324  0.0574 -0.1958 -0.1098
  234loPI   C1A 3735   2.331  12.675   9.904 -0.0594 -0.0555  0.1333
  234loPI   C2A 3736   2.351  12.643   9.414  0.2207  0.0355 -0.0087
  234loPI   C3A 3737   2.279  12.584   8.931 -0.0766 -0.1244 -0.2676
  234loPI   C4A 3738   2.308  12.626   8.504 -0.1791  0.2221  0.0120
  234loPI   C5A 3739   2.140  12.527   8.140 -0.0837  0.0269  0.2937
  234loPI   C6A 3740   2.193  12.169   7.757  0.0427  0.0320  0.0815
  234loPI   C1B 3741   1.851  12.459   9.968 -0.3690  0.2053  0.0096
  234loPI   C2B 3742   1.864  12.558   9.450  0.0167 -0.2823  0.3822
  234loPI   C3B 3743   1.778  12.580   8.935 -0.1681  0.1861  0.1659
  234loPI   C4B 3744   1.775  12.513   8.512 -0.1995 -0.3002  0.1517
  235loPI    C1 3745   9.741   4.651  10.091 -0.0513 -0.0763 -0.1465
  235loPI    C2 3746   9.358   4.628   9.979 -0.0873  0.0478 -0.0513
  235loPI    C3 3747   9.493   4.400  10.279 -0.0563 -0.0863 -0.1665
  235loPI   PO4 3748   9.861   4.632   9.739 -0.0413  0.1682  0.1393
  235loPI   GL1 3749  10.184   4.474   9.459 -0.2028 -0.1232  0.3158
  235loPI   GL2 3750   9.946   4.279   9.296 -0.4464  0.1728  0.2227
  235loPI   C1A 3751  10.368   4.652   9.182  0.0369  0.2809 -0.0191
  235loPI   C2A 3752  10.516   4.573   8.729 -0.3249  0.1397 -0.1457
  235loPI   C3A 3753  10.541   4.662   8.397  0.2014  0.4088  0.0151
  235loPI   C4A 3754  10.650   4.829   8.102  0.1681 -0.0630 -0.1216
  235loPI   C5A 3755  10.299   4.934   7.815 -0.3915  0.2284  0.2136
  235loPI   C6A 3756   9.910   5.072   7.569 -0.0006  0.0226 -0.0870
  235loPI   C1B 3757  10.165   4.234   8.967 -0.0002  0.3834 -0.1777
  235loPI   C2B 3758  10.205   4.174   8.511  0.0481  0.1375 -0.0901
  235loPI   C3B 3759  10.279   4.258   8.093  0.1192 -0.3147  0.0712
  235loPI   C4B 3760  10.279   4.071   7.724  0.5391  0.3050  0.3592
  236loPI    C1 3761   6.881  13.432  10.819 -0.2537  0.0766 -0.1402
  236loPI    C2 3762   7.167  13.503  11.090  0.0030  0.1682 -0.4295
  236loPI    C3 3763   6.812  13.361  11.206  0.1746  0.0230 -0.0686
  236loPI   PO4 3764   6.983  13.296  10.653  0.1376 -0.2048  0.0259
  236loPI   GL1 3765   7.262  13.245  10.371 -0.1753 -0.2605 -0.0811
  236loPI   GL2 3766   7.568  13.324  10.373  0.2012  0.2282 -0.2629
  236loPI   C1A 3767   7.132  13.027  10.051  0.0148  0.1079 -0.1444
  236loPI   C2A 3768   6.920  13.041   9.674  0.0167  0.1166  0.1973
  236loPI   C3A 3769   6.895  13.027   9.232 -0.2015  0.1820  0.0426
  236loPI   C4A 3770   6.968  13.044   8.783  0.2126  0.1341 -0.1723
  236loPI   C5A 3771   6.980  13.075   8.358 -0.1847  0.1063 -0.0039
  236loPI   C6A 3772   6.827  13.553   8.141  0.1851 -0.1846 -0.3030
  236loPI   C1B 3773   7.513  13.270   9.839  0.5646 -0.0219  0.0443
  236loPI   C2B 3774   7.413  13.154   9.327  0.1380  0.1703 -0.0432
  236loPI   C3B 3775   7.459  13.074   8.879  0.4160  0.0129 -0.0820
  236loPI   C4B 3776   7.488  13.136   8.450 -0.1744 -0.1825 -0.2824
  237loPI    C1 3777  12.481  15.793  10.518  0.1976 -0.2528 -0.0823
  237loPI    C2 3778  12.501  15.495  10.785  0.0728 -0.1752  0.0151
  237loPI    C3 3779  12.806  15.751  10.747 -0.0842  0.0784  0.3982
  237loPI   PO4 3780  12.363  15.627  10.293 -0.1343  0.1476  0.1059
  237loPI   GL1 3781  12.449  15.692   9.905 -0.1421  0.1352  0.1419
  237loPI   GL2 3782  12.788  15.587   9.741 -0.2489 -0.1535  0.2102
  237loPI   C1A 3783  12.345  15.507   9.504  0.0782  0.3681  0.0812
  237loPI   C2A 3784  12.597  15.269   9.258  0.2310 -0.1959 -0.1023
  237loPI   C3A 3785  12.956  15.337   8.881  0.0914 -0.2943  0.3241
  237loPI   C4A 3786  12.976  15.461   8.386  0.1673  0.0221  0.0946
  237loPI   C5A 3787  13.189  15.793   8.074 -0.0412 -0.0642  0.0320
  237loPI   C6A 3788  13.319  16.194   7.925 -0.0386 -0.0374 -0.2550
  237loPI   C1B 3789  13.023  15.300   9.499  0.0502 -0.0444 -0.3489
  237loPI   C2B 3790  13.196  15.082   9.263 -0.2094  0.0101  0.3709
  237loPI   C3B 3791  13.175  14.920   8.748  0.0185 -0.1042  0.1251
  237loPI   C4B 3792  13.254  14.942   8.323 -0.0013  0.0663  0.0109
  238loPI    C1 3793   3.872   1.913  10.165  0.0417 -0.0403  0.0311
  238loPI    C2 3794   3.569   1.794  10.397 -0.0447 -0.0173 -0.0691
  238loPI    C3 3795   3.930   1.858  10.557 -0.1213  0.0692  0.0715
  238loPI   PO4 3796   3.790   1.779   9.941  0.2430 -0.1538 -0.0621
  238loPI   GL1 3797   3.729   1.885   9.436 -0.1486 -0.0876 -0.0031
  238loPI   GL2 3798   4.045   1.981   9.555  0.3887 -0.1076 -0.2863
  238loPI   C1A 3799   3.769   1.822   9.023  0.1301  0.2058  0.0834
  238loPI   C2A 3800   3.675   1.672   8.658 -0.0168 -0.0184 -0.1431
  238loPI   C3A 3801   4.049   1.811   8.289  0.0113  0.4422  0.2477
  238loPI   C4A 3802   4.041   1.603   7.829 -0.1794 -0.0750 -0.0319
  238loPI   C5A 3803   3.975   1.927   7.421  0.1050 -0.0618  0.1494
  238loPI   C6A 3804   3.588   2.013   7.197 -0.1064  0.1340  0.1337
  238loPI   C1B 3805   4.150   2.174   9.120 -0.0155  0.0532  0.1061
  238loPI   C2B 3806   4.045   2.231   8.674  0.1291  0.0458  0.0843
  238loPI   C3B 3807   3.827   2.242   8.265  0.1008 -0.2650  0.3072
  238loPI   C4B 3808   3.442   2.300   8.017 -0.1256  0.0300 -0.0986
  239loPI    C1 3809   9.458  17.962  10.400  0.0377 -0.0661 -0.2401
  239loPI    C2 3810   9.169  18.011  10.129 -0.0612 -0.0185 -0.1267
  239loPI    C3 3811   9.079  18.005  10.519  0.0982  0.0580 -0.0878
  239loPI   PO4 3812   9.653  17.854  10.269 -0.2760 -0.0979 -0.2427
  239loPI   GL1 3813   9.672  17.833   9.810  0.1868  0.1751  0.1820
  239loPI   GL2 3814   9.566  18.135   9.890 -0.1663  0.2282 -0.0249
  239loPI   C1A 3815   9.719  17.765   9.429  0.1434  0.2513  0.1646
  239loPI   C2A 3816   9.746  17.488   8.991  0.0562  0.1883  0.2833
  239loPI   C3A 3817   9.700  17.321   8.620  0.1738  0.4005  0.0823
  239loPI   C4A 3818   9.665  17.172   8.048  0.0122 -0.1143  0.0717
  239loPI   C5A 3819   9.343  16.851   7.986 -0.0888  0.2187 -0.3167
  239loPI   C6A 3820   9.191  16.409   7.948  0.0156 -0.1197  0.1543
  239loPI   C1B 3821   9.542  18.303   9.488  0.0852  0.2190  0.1301
  239loPI   C2B 3822   9.587  18.430   9.096 -0.1211 -0.2742 -0.1444
  239loPI   C3B 3823   9.659  18.581   8.719 -0.1436  0.3661  0.0992
  239loPI   C4B 3824  10.065  18.590   8.377 -0.0860 -0.0171 -0.3264
  240loPI    C1 3825   8.265   6.370  10.382 -0.1306  0.0304  0.1794
  240loPI    C2 3826   8.625   6.202  10.334  0.0704  0.4844  0.0416
  240loPI    C3 3827   8.466   6.233  10.700 -0.0771 -0.1978  0.0498
  240loPI   PO4 3828   8.125   6.276  10.198 -0.2456 -0.0397  0.1058
  240loPI   GL1 3829   7.977   6.089   9.761 -0.0350  0.0625 -0.2258
  240loPI   GL2 3830   7.828   6.416   9.664 -0.0197 -0.1598 -0.1356
  240loPI   C1A 3831   8.012   6.080   9.287  0.3930  0.1398  0.1927
  240loPI   C2A 3832   7.899   5.953   8.852  0.2296 -0.0260  0.2945
  240loPI   C3A 3833   7.859   6.077   8.492  0.1487  0.0175 -0.1210
  240loPI   C4A 3834   7.879   5.937   8.063  0.0374 -0.0007  0.1929
  240loPI   C5A 3835   7.831   5.535   7.989 -0.0185  0.0292  0.0659
  240loPI   C6A 3836   7.876   5.121   7.770 -0.2046  0.1817  0.1364
  240loPI   C1B 3837   7.518   6.393   9.332 -0.2285  0.1163  0.3204
  240loPI   C2B 3838   7.468   6.267   8.846  0.2154  0.3645  0.1886
  240loPI   C3B 3839   7.412   6.344   8.358 -0.2393  0.2443 -0.2411
  240loPI   C4B 3840   7.420   6.230   7.893 -0.0236  0.0595 -0.1650
  241loPI    C1 3841  15.080   8.856  10.505 -0.0176  0.1467  0.1117
  241loPI    C2 3842  15.404   8.955  10.718  0.0165 -0.1075  0.1816
  241loPI    C3 3843  15.126   8.714  10.876 -0.1366 -0.0070  0.0688
  241loPI   PO4 3844  15.114   8.814  10.311 -0.3224  0.0557  0.1508
  241loPI   GL1 3845  15.180   8.681   9.929 -0.2242 -0.1082 -0.1530
  241loPI   GL2 3846  14.878   8.760   9.702  0.3286 -0.3143  0.1861
  241loPI   C1A 3847  15.330   8.874   9.555 -0.4946  0.1787  0.0973
  241loPI   C2A 3848  15.308   8.793   9.091  0.1141 -0.2462 -0.1276
  241loPI   C3A 3849  15.327   8.766   8.675 -0.2177  0.0127 -0.0614
  241loPI   C4A 3850  15.327   8.812   8.251 -0.1154 -0.0331 -0.0162
  241loPI   C5A 3851  14.970   8.856   7.930  0.0458  0.0329 -0.1747
  241loPI   C6A 3852  14.604   9.097   7.816 -0.0241 -0.1898 -0.0809
  241loPI   C1B 3853  14.744   8.725   9.255 -0.0812 -0.1817  0.0850
  241loPI   C2B 3854  14.778   8.801   8.825  0.0473 -0.0546 -0.2060
  241loPI   C3B 3855  14.740   8.751   8.371 -0.0063 -0.0600 -0.1614
  241loPI   C4B 3856  14.427   8.748   8.092 -0.2958  0.2077 -0.1177
  242loPI    C1 3857   7.466   5.841   9.952 -0.0762 -0.0932 -0.0292
  242loPI    C2 3858   7.363   6.204   9.818 -0.1232 -0.1162 -0.0554
  242loPI    C3 3859   7.647   6.167  10.098 -0.1451 -0.0566 -0.0249
  242loPI   PO4 3860   7.239   5.717  10.011 -0.1306  0.0830  0.0032
  242loPI   GL1 3861   6.959   5.785   9.818 -0.1716  0.0735  0.2465
  242loPI   GL2 3862   6.907   5.506   9.599  0.0940  0.0812  0.0357
  242loPI   C1A 3863   7.174   5.941   9.414 -0.1029  0.1244  0.5143
  242loPI   C2A 3864   6.995   5.950   8.946  0.1395 -0.2609 -0.0062
  242loPI   C3A 3865   7.058   5.997   8.567  0.0308  0.2023  0.2615
  242loPI   C4A 3866   6.991   6.086   8.179 -0.2437 -0.0312 -0.0454
  242loPI   C5A 3867   6.806   6.182   7.784  0.4332  0.2458 -0.2185
  242loPI   C6A 3868   6.563   5.945   7.427  0.1385  0.0578 -0.0306
  242loPI   C1B 3869   7.066   5.468   9.163  0.0164 -0.0394  0.1532
  242loPI   C2B 3870   7.102   5.479   8.710  0.2209 -0.1015 -0.1116
  242loPI   C3B 3871   6.973   5.589   8.252 -0.2655 -0.1466  0.0027
  242loPI   C4B 3872   6.843   5.670   7.882 -0.2071  0.3220 -0.1641
  243loPI    C1 3873   9.031  13.136  10.949 -0.0770  0.0937 -0.0668
  243loPI    C2 3874   9.019  13.534  10.919 -0.0019  0.0973 -0.0495
  243loPI    C3 3875   9.319  13.357  11.115 -0.1354  0.0416  0.1063
  243loPI   PO4 3876   9.016  13.042  10.681  0.3494  0.1330 -0.1350
  243loPI   GL1 3877   9.158  12.898  10.273  0.0708  0.1152  0.1235
  243loPI   GL2 3878   8.829  12.957  10.168  0.1661  0.0321  0.0341
  243loPI   C1A 3879   9.182  12.969   9.885 -0.0135  0.2598 -0.0369
  243loPI   C2A 3880   9.272  12.808   9.440 -0.1072  0.1243  0.0906
  243loPI   C3A 3881   9.273  12.770   8.924  0.1738 -0.2389 -0.1274
  243loPI   C4A 3882   9.359  12.814   8.502 -0.1531 -0.0995 -0.2159
  243loPI   C5A 3883   9.269  12.899   8.056  0.1596 -0.0871  0.0525
  243loPI   C6A 3884   9.174  12.812   7.615 -0.2179  0.0586  0.0554
  243loPI   C1B 3885   8.711  12.838   9.712 -0.1170 -0.1641  0.2067
  243loPI   C2B 3886   8.794  12.789   9.216  0.2195  0.2254  0.0162
  243loPI   C3B 3887   8.772  12.664   8.852  0.0804  0.0114 -0.0148
  243loPI   C4B 3888   8.773  12.735   8.381 -0.1104  0.0922  0.0388
  244loPI    C1 3889  16.890   7.494  10.371  0.3368  0.1040 -0.0914
  244loPI    C2 3890  16.785   7.344  10.726  0.1638 -0.0301 -0.1974
  244loPI    C3 3891  16.983   7.690  10.706  0.2696 -0.0753  0.0341
  244loPI   PO4 3892  16.953   7.365  10.215  0.0353  0.1834  0.1252
  244loPI   GL1 3893  17.132   7.504   9.844  0.1659  0.1403 -0.3153
  244loPI   GL2 3894  16.956   7.236   9.731 -0.1300  0.0138  0.1244
  244loPI   C1A 3895  17.219   7.554   9.386  0.0259 -0.1292  0.2290
  244loPI   C2A 3896  17.271   7.639   8.986  0.1555  0.1778 -0.1659
  244loPI   C3A 3897  17.318   7.610   8.575  0.1052 -0.0061  0.6316
  244loPI   C4A 3898  17.130   7.477   8.131 -0.3366  0.1379  0.0234
  244loPI   C5A 3899  17.112   7.297   7.672  0.0425  0.0586  0.3603
  244loPI   C6A 3900  16.990   7.114   7.264  0.4716  0.2200  0.1800
  244loPI   C1B 3901  17.025   7.061   9.324  0.1212  0.1271 -0.0953
  244loPI   C2B 3902  17.003   7.182   8.785  0.0905 -0.0309 -0.0125
  244loPI   C3B 3903  17.126   6.995   8.408  0.1730  0.0271 -0.0032
  244loPI   C4B 3904  17.230   6.936   7.994 -0.1535 -0.2270  0.0907
  245loPI    C1 3905  10.276   5.480   9.970  0.2406 -0.0309 -0.0339
  245loPI    C2 3906  10.497   5.203  10.154  0.1828 -0.0418  0.0192
  245loPI    C3 3907  10.279   5.460  10.369  0.1525 -0.0239 -0.0327
  245loPI   PO4 3908  10.149   5.339   9.802 -0.2477  0.3732 -0.0229
  245loPI   GL1 3909  10.257   5.164   9.371 -0.0879  0.0290 -0.0685
  245loPI   GL2 3910  10.002   4.966   9.416 -0.0293  0.1008 -0.0358
  245loPI   C1A 3911  10.336   5.178   8.898  0.0157  0.0421  0.1077
  245loPI   C2A 3912  10.123   5.551   8.620  0.0171  0.2110  0.1471
  245loPI   C3A 3913   9.797   5.757   8.323  0.1910 -0.1251 -0.1435
  245loPI   C4A 3914   9.786   5.719   7.907  0.4036 -0.1308 -0.2600
  245loPI   C5A 3915   9.879   5.684   7.460  0.1025 -0.3121 -0.0540
  245loPI   C6A 3916  10.059   5.422   7.155  0.2010 -0.0071  0.0241
  245loPI   C1B 3917   9.926   4.761   9.076  0.0813 -0.1350  0.1050
  245loPI   C2B 3918  10.039   4.675   8.674  0.3100  0.3260  0.0547
  245loPI   C3B 3919  10.058   4.711   8.249 -0.0206 -0.0350  0.0653
  245loPI   C4B 3920  10.056   4.530   7.758  0.3454  0.0162 -0.3217
  246loPI    C1 3921  17.402  13.287  10.442  0.0888  0.2162 -0.2079
  246loPI    C2 3922  17.549  13.614  10.618  0.2978  0.0381 -0.0464
  246loPI    C3 3923  17.171  13.609  10.489  0.1443  0.1798  0.3811
  246loPI   PO4 3924  17.552  13.188  10.218  0.0053  0.1126 -0.2738
  246loPI   GL1 3925  17.721  13.113   9.715  0.2937 -0.0794  0.0699
  246loPI   GL2 3926  17.483  13.323   9.696 -0.3958 -0.2798 -0.0340
  246loPI   C1A 3927  17.888  13.152   9.391  0.0261 -0.0880  0.0128
  246loPI   C2A 3928  18.140  13.242   9.147 -0.0943 -0.2117  0.2197
  246loPI   C3A 3929  18.290  13.203   8.761  0.1606 -0.0108 -0.0525
  246loPI   C4A 3930  18.301  13.199   8.325 -0.0397  0.0749 -0.1163
  246loPI   C5A 3931  18.217  13.319   7.934  0.0179  0.0497  0.1041
  246loPI   C6A 3932  18.204  13.603   7.611 -0.2797  0.1226  0.0687
  246loPI   C1B 3933  17.369  13.675   9.619 -0.1634  0.1403  0.0071
  246loPI   C2B 3934  17.032  13.885   9.450  0.1063 -0.1467  0.0497
  246loPI   C3B 3935  16.696  13.846   9.084  0.0076  0.2864 -0.0063
  246loPI   C4B 3936  16.267  13.786   8.954  0.0777 -0.1127 -0.0350
  247loPI    C1 3937   2.954   4.489  10.050 -0.2610  0.0759 -0.0392
  247loPI    C2 3938   3.051   4.351  10.413 -0.1153  0.0177 -0.0994
  247loPI    C3 3939   2.670   4.346  10.293 -0.1987  0.2576  0.1438
  247loPI   PO4 3940   3.066   4.544   9.950 -0.2432 -0.3998 -0.0935
  247loPI   GL1 3941   3.034   4.489   9.520  0.0051 -0.0459 -0.0105
  247loPI   GL2 3942   2.825   4.840   9.607 -0.0989  0.4422  0.2491
  247loPI   C1A 3943   2.967   4.666   9.155  0.2730  0.3624 -0.3675
  247loPI   C2A 3944   2.651   4.828   8.980 -0.0620 -0.1093  0.1079
  247loPI   C3A 3945   2.385   4.986   8.678 -0.2020 -0.0227  0.3212
  247loPI   C4A 3946   2.483   5.023   8.168  0.1092 -0.1858  0.0080
  247loPI   C5A 3947   2.824   5.012   7.850 -0.0437  0.4669  0.1330
  247loPI   C6A 3948   3.141   4.772   7.693  0.0205  0.4648 -0.2637
  247loPI   C1B 3949   2.940   5.160   9.304 -0.0608 -0.0968  0.0924
  247loPI   C2B 3950   3.044   5.193   8.863 -0.0873  0.0414 -0.0841
  247loPI   C3B 3951   2.911   4.982   8.505 -0.3080  0.1101  0.2252
  247loPI   C4B 3952   3.006   4.705   8.193 -0.0111 -0.1291  0.3690
  248loPI    C1 3953   8.554  16.793  10.246  0.0266  0.1377 -0.0884
  248loPI    C2 3954   8.593  16.627  10.608 -0.1870 -0.0035 -0.1280
  248loPI    C3 3955   8.824  16.936  10.504 -0.0323 -0.0468  0.0789
  248loPI   PO4 3956   8.491  16.536  10.109 -0.0061 -0.2962  0.1530
  248loPI   GL1 3957   8.566  16.464   9.820  0.5530 -0.0819  0.1990
  248loPI   GL2 3958   8.867  16.463   9.624 -0.2197 -0.3050 -0.0321
  248loPI   C1A 3959   8.396  16.369   9.398  0.3156 -0.2027 -0.3208
  248loPI   C2A 3960   8.464  16.308   8.994  0.0989  0.0061  0.2890
  248loPI   C3A 3961   8.295  16.240   8.561 -0.0779 -0.2247  0.0258
  248loPI   C4A 3962   8.127  16.129   8.173 -0.1591  0.0034  0.1929
  248loPI   C5A 3963   8.259  15.769   7.931 -0.1174 -0.1116 -0.1830
  248loPI   C6A 3964   8.371  15.378   7.719  0.0106 -0.2452 -0.0737
  248loPI   C1B 3965   8.887  16.484   9.267  0.1054  0.2280 -0.0417
  248loPI   C2B 3966   8.936  16.363   8.817  0.0647 -0.3965  0.0635
  248loPI   C3B 3967   8.967  16.347   8.390 -0.1140  0.0630 -0.1143
  248loPI   C4B 3968   9.451  16.352   8.390  0.4053  0.1831 -0.0794
  249loPI    C1 3969   5.704   1.842  10.577  0.0413 -0.3491 -0.2494
  249loPI    C2 3970   6.054   1.651  10.542  0.2073 -0.0601 -0.1993
  249loPI    C3 3971   5.941   1.798  10.897  0.1136 -0.0034 -0.2524
  249loPI   PO4 3972   5.498   1.741  10.455 -0.2196 -0.0329  0.1318
  249loPI   GL1 3973   5.711   1.532  10.100  0.0193 -0.0451  0.2385
  249loPI   GL2 3974   6.072   1.685  10.020 -0.1603 -0.3958 -0.0145
  249loPI   C1A 3975   5.665   1.581   9.742 -0.1045  0.4510  0.1931
  249loPI   C2A 3976   5.804   1.768   9.435  0.0214 -0.0881  0.0422
  249loPI   C3A 3977   5.857   1.664   9.005  0.0163  0.3387 -0.0795
  249loPI   C4A 3978   5.917   1.716   8.610  0.1047  0.3278 -0.0850
  249loPI   C5A 3979   6.175   1.872   8.340 -0.1139  0.0375  0.2455
  249loPI   C6A 3980   6.202   2.122   8.122  0.0290 -0.0336  0.0868
  249loPI   C1B 3981   6.142   1.305   9.659 -0.0958 -0.1647 -0.0188
  249loPI   C2B 3982   6.263   1.294   9.222 -0.0821 -0.0786 -0.1831
  249loPI   C3B 3983   6.266   1.421   8.798 -0.3444 -0.3297 -0.1034
  249loPI   C4B 3984   6.573   1.584   8.537 -0.1057  0.0019 -0.1374
  250loPI    C1 3985  15.896   9.733  10.827  0.1705 -0.2144  0.0595
  250loPI    C2 3986  16.022   9.564  11.168 -0.0975 -0.1314  0.2027
  250loPI    C3 3987  15.716   9.821  11.173  0.0847  0.0978 -0.0617
  250loPI   PO4 3988  16.030   9.469  10.605 -0.0623 -0.5219 -0.2346
  250loPI   GL1 3989  16.011   9.346  10.138 -0.1189 -0.0246 -0.0258
  250loPI   GL2 3990  16.175   9.485  10.054  0.0492  0.0406  0.0656
  250loPI   C1A 3991  16.140   9.112   9.692  0.2141 -0.0305 -0.1282
  250loPI   C2A 3992  16.063   9.251   9.341  0.0067 -0.1656  0.1934
  250loPI   C3A 3993  16.034   9.236   8.828 -0.0656  0.0999 -0.1908
  250loPI   C4A 3994  16.031   9.282   8.374  0.0957 -0.0010  0.0615
  250loPI   C5A 3995  16.241   9.367   7.961 -0.1613  0.0413 -0.0523
  250loPI   C6A 3996  16.275   9.765   7.783  0.1532  0.1725  0.0463
  250loPI   C1B 3997  16.257   9.686   9.584 -0.2490 -0.0006 -0.1683
  250loPI   C2B 3998  16.259   9.672   9.165  0.1065  0.0196  0.1382
  250loPI   C3B 3999  16.247   9.691   8.681 -0.1628 -0.2361  0.0305
  250loPI   C4B 4000  16.421   9.804   8.245  0.0334 -0.0659 -0.0321
  251loPI    C1 4001  12.685  18.424  10.381 -0.2622  0.2558 -0.1152
  251loPI    C2 4002  12.404  18.151  10.463  0.0592 -0.1182 -0.2259
  251loPI    C3 4003  12.505  18.422  10.738  0.1272 -0.4652  0.0991
  251loPI   PO4 4004  12.526  18.520  10.124 -0.2071 -0.2142 -0.0992
  251loPI   GL1 4005  12.225  18.602   9.724  0.1386 -0.2198 -0.2627
  251loPI   GL2 4006  12.508  18.557   9.637  0.0018 -0.1621 -0.0198
  251loPI   C1A 4007  12.202  18.860   9.403  0.0430 -0.3106 -0.1246
  251loPI   C2A 4008  12.272  18.857   8.991 -0.5648 -0.2657 -0.1492
  251loPI   C3A 4009  12.338  18.875   8.642  0.2629 -0.0165  0.3285
  251loPI   C4A 4010  12.453  18.840   8.263 -0.1144 -0.1972 -0.3687
  251loPI   C5A 4011  12.462  18.588   7.904 -0.3113 -0.2645  0.0098
  251loPI   C6A 4012  12.293  18.164   7.833  0.1088  0.2138  0.3257
  251loPI   C1B 4013  12.573  18.384   9.213  0.0656  0.0784 -0.2125
  251loPI   C2B 4014  12.615  18.447   8.789  0.2972 -0.3143 -0.0201
  251loPI   C3B 4015  12.633  18.353   8.315  0.0666 -0.2673 -0.1214
  251loPI   C4B 4016  12.772  18.219   7.900 -0.2828  0.0984 -0.0922
  252loPI    C1 4017  11.263  10.983  10.605  0.0834  0.3595  0.0560
  252loPI    C2 4018  11.606  10.913  10.799  0.0416 -0.0379 -0.0044
  252loPI    C3 4019  11.256  10.826  10.973 -0.0062 -0.1491 -0.1545
  252loPI   PO4 4020  11.283  10.923  10.324  0.1760  0.3232 -0.0243
  252loPI   GL1 4021  11.258  10.909   9.891 -0.1346  0.0001 -0.3119
  252loPI   GL2 4022  11.673  10.834   9.908 -0.4079 -0.3534  0.0478
  252loPI   C1A 4023  11.276  10.789   9.511 -0.0741  0.1097  0.0543
  252loPI   C2A 4024  11.232  10.803   9.042  0.0639 -0.0878  0.1308
  252loPI   C3A 4025  11.210  10.756   8.673  0.2589 -0.0865 -0.0365
  252loPI   C4A 4026  11.293  10.872   8.172 -0.0711  0.0209  0.2053
  252loPI   C5A 4027  11.295  10.705   7.735 -0.2087 -0.1606  0.5285
  252loPI   C6A 4028  11.315  10.320   7.427 -0.2437  0.1572 -0.0128
  252loPI   C1B 4029  11.781  10.826   9.496  0.3884 -0.2978 -0.1546
  252loPI   C2B 4030  11.821  10.836   9.048 -0.0818  0.2468  0.2340
  252loPI   C3B 4031  11.696  10.768   8.748 -0.0301 -0.2426  0.0361
  252loPI   C4B 4032  11.784  10.862   8.350 -0.1347 -0.0923  0.0381
  253loPI    C1 4033  15.184  14.970  10.593  0.3075 -0.1770  0.1237
  253loPI    C2 4034  14.847  14.953  10.808  0.1509 -0.2136 -0.1207
  253loPI    C3 4035  15.031  15.304  10.753  0.0238 -0.1558 -0.1816
  253loPI   PO4 4036  15.200  14.710  10.423  0.1855  0.2632  0.0848
  253loPI   GL1 4037  15.202  14.711   9.992  0.1227  0.2735  0.3352
  253loPI   GL2 4038  15.154  15.105   9.927  0.1681  0.0272  0.1777
  253loPI   C1A 4039  15.211  14.603   9.606  0.0208 -0.0381 -0.2368
  253loPI   C2A 4040  15.222  14.490   9.188 -0.1920 -0.0662  0.0536
  253loPI   C3A 4041  14.953  14.211   8.998  0.2497  0.0442  0.1125
  253loPI   C4A 4042  14.883  14.244   8.661  0.4065  0.1178 -0.0379
  253loPI   C5A 4043  14.800  14.183   8.259 -0.3675 -0.0334 -0.0529
  253loPI   C6A 4044  14.968  13.995   7.914 -0.0517 -0.1194  0.1157
  253loPI   C1B 4045  15.069  15.036   9.476  0.1343  0.1542 -0.3213
  253loPI   C2B 4046  15.062  14.959   9.078  0.0053  0.0376  0.0836
  253loPI   C3B 4047  15.254  14.680   8.734  0.3085 -0.2312 -0.0407
  253loPI   C4B 4048  15.320  14.836   8.360 -0.0434 -0.0931  0.1932
  254loPI    C1 4049  13.360   4.650  10.139  0.1123  0.1295  0.2507
  254loPI    C2 4050  13.392   4.481  10.500  0.0208 -0.0000  0.1988
  254loPI    C3 4051  13.096   4.739  10.425  0.0059 -0.0168  0.1997
  254loPI   PO4 4052  13.590   4.721  10.063 -0.2514  0.1361 -0.2802
  254loPI   GL1 4053  13.669   4.784   9.630  0.2318 -0.0085  0.2006
  254loPI   GL2 4054  13.966   4.688   9.657 -0.2385  0.2628  0.0148
  254loPI   C1A 4055  13.532   4.385   9.375 -0.0233  0.0471  0.0226
  254loPI   C2A 4056  13.515   4.256   8.943 -0.0790  0.0484  0.3139
  254loPI   C3A 4057  13.548   4.226   8.550  0.2929  0.2528  0.0919
  254loPI   C4A 4058  13.662   4.253   8.154  0.0472 -0.0570 -0.3977
  254loPI   C5A 4059  13.840   4.552   8.117  0.1244  0.0916 -0.4015
  254loPI   C6A 4060  13.938   4.774   7.670 -0.0360 -0.0488 -0.1446
  254loPI   C1B 4061  13.883   4.760   9.201  0.0112  0.0114 -0.0512
  254loPI   C2B 4062  13.758   4.731   8.775  0.3191  0.0708  0.0274
  254loPI   C3B 4063  13.327   4.741   8.604  0.3075 -0.1829  0.1239
  254loPI   C4B 4064  13.291   4.686   8.111 -0.2597 -0.1443  0.0703
  255loPI    C1 4065  14.085   6.012   9.843 -0.1220  0.1402  0.2318
  255loPI    C2 4066  14.051   6.292   9.560 -0.0745 -0.0142  0.0711
  255loPI    C3 4067  13.727   6.091   9.683 -0.0624 -0.0933 -0.0252
  255loPI   PO4 4068  14.233   5.800   9.734  0.0811  0.1318 -0.3398
  255loPI   GL1 4069  14.435   5.623   9.341 -0.0586 -0.2541  0.1459
  255loPI   GL2 4070  14.650   5.865   9.428  0.1320 -0.0288 -0.1061
  255loPI   C1A 4071  14.355   5.613   8.914  0.2895  0.2604 -0.0875
  255loPI   C2A 4072  14.394   5.897   8.623  0.0203  0.1305  0.1591
  255loPI   C3A 4073  14.693   6.163   8.546  0.0924  0.1255 -0.2902
  255loPI   C4A 4074  14.715   6.612   8.451  0.1768 -0.0829 -0.1991
  255loPI   C5A 4075  14.538   6.876   8.206  0.2094 -0.1612 -0.1586
  255loPI   C6A 4076  14.365   7.028   7.747  0.1286  0.2441 -0.1277
  255loPI   C1B 4077  14.624   6.122   9.063  0.2674 -0.2246  0.1200
  255loPI   C2B 4078  14.767   6.525   8.941  0.2569 -0.1291  0.1500
  255loPI   C3B 4079  14.521   6.880   8.874  0.2149 -0.2893  0.4579
  255loPI   C4B 4080  14.214   7.232   8.901  0.2884 -0.1819  0.0836
  256loPI    C1 4081  10.143  18.419  10.346 -0.1290  0.0831 -0.3057
  256loPI    C2 4082   9.750  18.359  10.386 -0.1086  0.2431  0.2225
  256loPI    C3 4083   9.945  18.584  10.652  0.3388  0.1926 -0.0523
  256loPI   PO4 4084  10.134  18.584  10.017  0.3088  0.0204 -0.0829
  256loPI   GL1 4085   9.807  18.564   9.907 -0.3288  0.1309 -0.1044
  256loPI   GL2 4086   9.660  18.921   9.779  0.3268  0.2455  0.2842
  256loPI   C1A 4087   9.961  18.594   9.435 -0.2218 -0.3334 -0.2201
  256loPI   C2A 4088  10.163  18.493   9.014  0.1395  0.1888 -0.0752
  256loPI   C3A 4089  10.263  18.142   8.766  0.0831 -0.1204 -0.1266
  256loPI   C4A 4090  10.342  18.025   8.357 -0.0814 -0.0135 -0.1761
  256loPI   C5A 4091  10.660  17.991   8.138 -0.2009 -0.0332 -0.0688
  256loPI   C6A 4092  10.770  18.127   7.769  0.0654  0.4289  0.0308
  256loPI   C1B 4093   9.529  18.842   9.467 -0.0422 -0.1383 -0.1416
  256loPI   C2B 4094   9.853  18.864   9.038 -0.1067 -0.1210 -0.1868
  256loPI   C3B 4095   9.826  19.032   8.674 -0.0515 -0.2595  0.1992
  256loPI   C4B 4096   9.854  19.043   8.248 -0.0430 -0.2914  0.1666
  257loPI    C1 4097  10.172   1.275  10.044  0.0649  0.1881 -0.0900
  257loPI    C2 4098   9.950   1.602  10.106 -0.1884  0.0060 -0.0219
  257loPI    C3 4099   9.936   1.298  10.366  0.1708  0.0059  0.0018
  257loPI   PO4 4100  10.133   1.156   9.842  0.1951 -0.1930 -0.2038
  257loPI   GL1 4101  10.303   1.244   9.452 -0.0101  0.0902  0.0957
  257loPI   GL2 4102  10.550   1.330   9.646  0.0726 -0.0502  0.2278
  257loPI   C1A 4103  10.339   1.284   9.016  0.1017 -0.4329  0.1156
  257loPI   C2A 4104  10.447   1.325   8.611 -0.2065 -0.0217  0.0929
  257loPI   C3A 4105  10.423   1.303   8.162 -0.2303 -0.0850 -0.1123
  257loPI   C4A 4106  10.096   1.443   7.905  0.0365  0.2036 -0.2064
  257loPI   C5A 4107  10.175   1.753   7.610  0.4226  0.0270 -0.2326
  257loPI   C6A 4108   9.977   2.098   7.418  0.2604 -0.0090 -0.1282
  257loPI   C1B 4109  10.792   1.318   9.239  0.0853 -0.2081  0.0672
  257loPI   C2B 4110  10.891   1.436   8.895  0.0072  0.3561 -0.1915
  257loPI   C3B 4111  10.905   1.370   8.409 -0.2238  0.2662  0.1841
  257loPI   C4B 4112  10.902   1.167   7.975  0.2028 -0.3032 -0.1521
  258loPI    C1 4113   2.015   3.060  10.659 -0.2126  0.1107  0.2895
  258loPI    C2 4114   2.254   3.025  10.978 -0.0440 -0.1049  0.1427
  258loPI    C3 4115   1.869   2.920  11.005 -0.0487 -0.0518  0.2944
  258loPI   PO4 4116   2.081   2.854  10.503 -0.0810 -0.0443 -0.0198
  258loPI   GL1 4117   1.967   2.727  10.216 -0.0574 -0.0956 -0.0506
  258loPI   GL2 4118   2.004   3.063  10.037  0.1297 -0.2463  0.1070
  258loPI   C1A 4119   2.118   2.616   9.874  0.0978 -0.0422 -0.0572
  258loPI   C2A 4120   2.067   2.264   9.552  0.1508 -0.0237  0.1553
  258loPI   C3A 4121   1.815   2.326   9.148 -0.2443  0.0721  0.1313
  258loPI   C4A 4122   1.684   2.326   8.743 -0.0920  0.2403 -0.0032
  258loPI   C5A 4123   1.755   2.236   8.394 -0.0424  0.2736  0.3028
  258loPI   C6A 4124   1.771   1.900   8.115  0.2013  0.0693  0.0273
  258loPI   C1B 4125   1.930   3.117   9.652  0.1673 -0.2112 -0.1952
  258loPI   C2B 4126   2.015   3.141   9.206  0.0255 -0.1333  0.3518
  258loPI   C3B 4127   1.939   3.121   8.861 -0.2832 -0.1075  0.2627
  258loPI   C4B 4128   1.995   3.150   8.392 -0.1085 -0.3881 -0.0715
  259loPI    C1 4129   4.282  10.216  10.872 -0.0642  0.0645 -0.0914
  259loPI    C2 4130   4.108  10.525  11.058 -0.0488  0.1047 -0.1436
  259loPI    C3 4131   4.006  10.150  11.154  0.1358  0.1195  0.1206
  259loPI   PO4 4132   4.307  10.392  10.598 -0.2165 -0.0925 -0.0366
  259loPI   GL1 4133   4.111  10.810  10.231 -0.0024  0.2891 -0.3215
  259loPI   GL2 4134   4.272  10.655  10.056 -0.2267  0.0843 -0.2601
  259loPI   C1A 4135   4.088  11.073   9.883 -0.0379  0.0794  0.2209
  259loPI   C2A 4136   4.039  11.062   9.407 -0.1445  0.2053  0.1760
  259loPI   C3A 4137   4.023  10.979   8.965 -0.1927 -0.2028 -0.0054
  259loPI   C4A 4138   3.929  11.051   8.469 -0.1611 -0.3010 -0.0015
  259loPI   C5A 4139   4.170  11.052   8.122 -0.0348 -0.1435  0.0009
  259loPI   C6A 4140   4.599  10.881   8.073 -0.1301  0.0377 -0.0191
  259loPI   C1B 4141   4.414  10.640   9.593 -0.0301 -0.1543 -0.0496
  259loPI   C2B 4142   4.409  10.558   9.099 -0.0536 -0.0017  0.5231
  259loPI   C3B 4143   4.298  10.596   8.648  0.1142  0.5195 -0.1967
  259loPI   C4B 4144   4.257  10.538   8.199 -0.2261 -0.0611 -0.1246
  260loPI    C1 4145   3.078   0.330   9.932  0.0633  0.0987  0.2224
  260loPI    C2 4146   2.781   0.359  10.199 -0.2748 -0.1076 -0.1217
  260loPI    C3 4147   2.767   0.570   9.859  0.0417 -0.0178 -0.0828
  260loPI   PO4 4148   3.091   0.097   9.864  0.1471  0.1171  0.0628
  260loPI   GL1 4149   2.882  -0.033   9.516  0.2245 -0.2086  0.0384
  260loPI   GL2 4150   2.794  -0.316   9.657  0.0393 -0.1901  0.1702
  260loPI   C1A 4151   2.806   0.026   9.079 -0.3128  0.0729  0.2328
  260loPI   C2A 4152   2.555   0.147   8.708 -0.1291  0.0509  0.5590
  260loPI   C3A 4153   2.439   0.271   8.345  0.2050 -0.1429 -0.0270
  260loPI   C4A 4154   2.454   0.379   7.992 -0.1459 -0.0115  0.1851
  260loPI   C5A 4155   2.577   0.729   7.728  0.1287  0.0900 -0.2939
  260loPI   C6A 4156   2.769   0.922   7.397 -0.1878 -0.1313  0.1341
  260loPI   C1B 4157   2.738  -0.461   9.188 -0.1721  0.0135  0.3174
  260loPI   C2B 4158   2.977  -0.366   8.830  0.0413  0.2813 -0.0570
  260loPI   C3B 4159   3.028  -0.606   8.453  0.2104 -0.0762  0.0481
  260loPI   C4B 4160   3.020  -1.013   8.149  0.0005 -0.1106 -0.0839
  261loPI    C1 4161   7.874  17.832   9.835  0.0781 -0.1343  0.1385
  261loPI    C2 4162   7.536  18.024   9.925 -0.0467 -0.1607 -0.2541
  261loPI    C3 4163   7.569  17.633   9.999 -0.0040 -0.1077  0.0192
  261loPI   PO4 4164   8.032  17.947   9.924  0.0539  0.0937  0.0828
  261loPI   GL1 4165   8.396  18.232   9.788 -0.0287  0.0233 -0.1592
  261loPI   GL2 4166   8.080  18.359   9.689  0.1208  0.0177  0.1575
  261loPI   C1A 4167   8.497  18.452   9.366  0.5435  0.0462  0.0814
  261loPI   C2A 4168   8.725  18.699   9.160 -0.2351  0.0836  0.0697
  261loPI   C3A 4169   8.869  18.911   8.808 -0.0365  0.0511 -0.3212
  261loPI   C4A 4170   8.825  18.791   8.381 -0.0903 -0.0558 -0.2028
  261loPI   C5A 4171   9.082  18.648   8.049  0.0893 -0.1622  0.2015
  261loPI   C6A 4172   9.442  18.191   7.986  0.1591  0.0040  0.0370
  261loPI   C1B 4173   8.069  18.075   9.330 -0.2097 -0.1599 -0.1191
  261loPI   C2B 4174   8.317  18.135   8.913  0.1616 -0.1379  0.4145
  261loPI   C3B 4175   8.652  18.275   8.654 -0.1668  0.3015 -0.0867
  261loPI   C4B 4176   8.844  18.257   8.142 -0.1180  0.0158 -0.3369
  262loPI    C1 4177  13.540   9.646  10.519 -0.0718 -0.1408  0.5202
  262loPI    C2 4178  13.163   9.625  10.389  0.2026 -0.1501 -0.3364
  262loPI    C3 4179  13.305   9.343  10.635 -0.3549 -0.1096  0.0515
  262loPI   PO4 4180  13.609   9.624  10.270 -0.3123  0.4765  0.0713
  262loPI   GL1 4181  13.826   9.760   9.959 -0.2729  0.1551  0.0108
  262loPI   GL2 4182  13.963   9.583   9.789 -0.2132 -0.1917 -0.1786
  262loPI   C1A 4183  13.812  10.032   9.579  0.1505 -0.0379 -0.1116
  262loPI   C2A 4184  13.903   9.978   9.243  0.1791 -0.2784 -0.4565
  262loPI   C3A 4185  13.875  10.002   8.812 -0.0007 -0.0751  0.2022
  262loPI   C4A 4186  13.721   9.922   8.379  0.2403 -0.0741 -0.0459
  262loPI   C5A 4187  13.578   9.863   8.034 -0.1448  0.2260  0.0151
  262loPI   C6A 4188  13.423  10.095   7.690  0.0947  0.1181  0.1136
  262loPI   C1B 4189  14.117   9.589   9.495 -0.0700 -0.0552  0.1431
  262loPI   C2B 4190  14.216   9.648   9.099 -0.1506  0.3096 -0.3877
  262loPI   C3B 4191  14.135   9.591   8.673 -0.1681 -0.1811 -0.1068
  262loPI   C4B 4192  14.065   9.596   8.229 -0.1423  0.2647 -0.0637
  263loPI    C1 4193  12.487   2.939  10.381  0.1852  0.0430  0.0726
  263loPI    C2 4194  12.216   3.199  10.519  0.2327  0.2424 -0.2017
  263loPI    C3 4195  12.274   2.851  10.708 -0.1299  0.2479 -0.0726
  263loPI   PO4 4196  12.465   2.830  10.144 -0.1039 -0.2549 -0.0525
  263loPI   GL1 4197  12.517   2.837   9.788  0.0758  0.0099  0.0311
  263loPI   GL2 4198  12.437   3.181   9.640 -0.2627 -0.1137 -0.1972
  263loPI   C1A 4199  12.398   2.643   9.472 -0.2408  0.5448  0.0477
  263loPI   C2A 4200  12.382   2.601   9.076 -0.0887 -0.0146  0.3126
  263loPI   C3A 4201  12.290   2.556   8.625  0.1487 -0.2595 -0.2386
  263loPI   C4A 4202  12.330   2.613   8.204 -0.1242 -0.1179  0.3163
  263loPI   C5A 4203  12.449   2.656   7.807  0.0484 -0.3769 -0.3716
  263loPI   C6A 4204  12.153   2.633   7.481  0.1816 -0.2937 -0.0988
  263loPI   C1B 4205  12.678   3.004   9.350 -0.5548 -0.1438 -0.2840
  263loPI   C2B 4206  12.742   2.864   8.904  0.0358  0.2094 -0.3691
  263loPI   C3B 4207  12.593   3.035   8.488 -0.2170 -0.1625  0.2348
  263loPI   C4B 4208  12.639   3.028   8.077  0.0194 -0.1895  0.1522
  264loPI    C1 4209   0.103   5.013  10.483  0.1604 -0.1339 -0.2067
  264loPI    C2 4210   0.027   4.882  10.853 -0.1431  0.0875 -0.1864
  264loPI    C3 4211   0.260   5.203  10.799  0.1183 -0.1018 -0.2050
  264loPI   PO4 4212  -0.020   4.961  10.286 -0.0161  0.3088  0.1066
  264loPI   GL1 4213  -0.159   5.030   9.933  0.1626 -0.0346  0.2119
  264loPI   GL2 4214   0.072   4.964   9.741  0.1000  0.1111  0.0642
  264loPI   C1A 4215  -0.325   4.921   9.532  0.0818 -0.0110  0.0872
  264loPI   C2A 4216  -0.487   4.959   9.164  0.2332 -0.5647 -0.1784
  264loPI   C3A 4217  -0.484   5.017   8.735  0.2468  0.2021 -0.0157
  264loPI   C4A 4218  -0.228   4.951   8.422  0.0417 -0.0346 -0.2803
  264loPI   C5A 4219  -0.141   4.869   8.015  0.2150 -0.2321  0.1600
  264loPI   C6A 4220  -0.275   5.213   7.744  0.2600  0.2076  0.1954
  264loPI   C1B 4221   0.060   4.906   9.210  0.0786 -0.1829  0.0544
  264loPI   C2B 4222   0.081   5.076   8.789  0.1221 -0.0317 -0.3716
  264loPI   C3B 4223   0.254   4.950   8.381 -0.0000 -0.1109 -0.0021
  264loPI   C4B 4224   0.436   4.798   7.929  0.2562  0.2282 -0.0697
  265loPI    C1 4225  11.334   2.899   9.898 -0.0461  0.1011  0.1027
  265loPI    C2 4226  11.250   2.512   9.847  0.1858  0.0627 -0.0026
  265loPI    C3 4227  11.025   2.735  10.092  0.0452 -0.1350  0.0512
  265loPI   PO4 4228  11.621   2.893   9.894  0.0274 -0.1874 -0.0689
  265loPI   GL1 4229  12.037   2.807   9.710  0.0585  0.3176 -0.1102
  265loPI   GL2 4230  11.916   3.174   9.580  0.1066  0.0064 -0.2108
  265loPI   C1A 4231  12.148   2.984   9.217 -0.0761  0.0783  0.2078
  265loPI   C2A 4232  12.162   2.986   8.751 -0.2973  0.0163 -0.2476
  265loPI   C3A 4233  12.094   3.085   8.308  0.0204  0.0156 -0.1969
  265loPI   C4A 4234  12.116   3.016   7.941  0.0899 -0.1841 -0.0103
  265loPI   C5A 4235  12.061   3.149   7.544  0.2757 -0.2282 -0.2017
  265loPI   C6A 4236  11.620   3.180   7.360 -0.0355  0.2564  0.2777
  265loPI   C1B 4237  12.044   3.449   9.088 -0.0592  0.2017 -0.0794
  265loPI   C2B 4238  11.953   3.461   8.676  0.2152 -0.2337 -0.2358
  265loPI   C3B 4239  11.890   3.537   8.328  0.0020  0.1355  0.2488
  265loPI   C4B 4240  11.796   3.461   7.894 -0.0285 -0.2965 -0.0160
  266loPI    C1 4241   8.959  16.459  10.270 -0.0202  0.1475 -0.0967
  266loPI    C2 4242   9.193  16.139  10.217  0.1026  0.2242 -0.0240
  266loPI    C3 4243   9.028  16.210  10.575 -0.2245  0.0430 -0.1337
  266loPI   PO4 4244   9.141  16.665  10.031 -0.0336 -0.0221  0.0726
  266loPI   GL1 4245   9.006  16.986   9.725 -0.0884 -0.1790 -0.0135
  266loPI   GL2 4246   8.667  16.951   9.784 -0.1352 -0.1524 -0.4338
  266loPI   C1A 4247   9.073  16.957   9.336 -0.1031  0.0321  0.0670
  266loPI   C2A 4248   9.172  16.874   8.893 -0.0998  0.4335  0.2370
  266loPI   C3A 4249   9.057  16.802   8.386 -0.0778  0.0163  0.3114
  266loPI   C4A 4250   8.843  16.873   8.048  0.0500  0.2037 -0.0191
  266loPI   C5A 4251   8.960  17.207   7.669  0.0968  0.1844 -0.2768
  266loPI   C6A 4252   9.343  17.475   7.834 -0.0979  0.0294 -0.0461
  266loPI   C1B 4253   8.590  16.803   9.461 -0.1246 -0.3162  0.2394
  266loPI   C2B 4254   8.668  16.868   8.956 -0.2731 -0.3947  0.0353
  266loPI   C3B 4255   8.621  16.737   8.557  0.1689  0.1065 -0.0163
  266loPI   C4B 4256   8.432  16.572   8.241 -0.1150 -0.1661 -0.1130
  267loPI    C1 4257   8.156   7.295  10.233 -0.0582  0.0574 -0.1832
  267loPI    C2 4258   7.899   7.246  10.535  0.0201 -0.0349 -0.1310
  267loPI    C3 4259   8.272   7.106  10.566  0.0142 -0.0881 -0.2897
  267loPI   PO4 4260   8.074   7.507  10.166  0.0656 -0.1465 -0.1864
  267loPI   GL1 4261   7.852   7.717   9.802 -0.0555  0.1699 -0.1690
  267loPI   GL2 4262   7.549   7.759   9.739 -0.3595 -0.0821  0.3836
  267loPI   C1A 4263   7.935   8.071   9.481 -0.1279 -0.1484  0.1271
  267loPI   C2A 4264   7.839   8.239   9.135  0.1061 -0.1017 -0.0478
  267loPI   C3A 4265   8.081   8.274   8.760 -0.2290  0.0915  0.3343
  267loPI   C4A 4266   8.214   8.161   8.363  0.2727  0.0839 -0.0861
  267loPI   C5A 4267   8.212   7.806   8.048 -0.0833 -0.0575  0.0768
  267loPI   C6A 4268   8.189   7.442   7.737 -0.1460 -0.2153 -0.0159
  267loPI   C1B 4269   7.466   7.764   9.267  0.0630  0.0076  0.2075
  267loPI   C2B 4270   7.519   7.475   8.867 -0.1320  0.0288 -0.0327
  267loPI   C3B 4271   7.463   7.228   8.557 -0.3847  0.1920  0.2440
  267loPI   C4B 4272   7.446   6.803   8.692  0.0296  0.5157  0.0316
  268loPI    C1 4273  16.681   8.891  10.874  0.1686 -0.0128  0.0978
  268loPI    C2 4274  16.629   9.263  11.011 -0.3222 -0.0704  0.0864
  268loPI    C3 4275  16.762   8.977  11.256  0.1271  0.1214  0.0773
  268loPI   PO4 4276  16.800   8.892  10.634 -0.1802 -0.4214 -0.1851
  268loPI   GL1 4277  16.730   9.054  10.116 -0.0213  0.0137  0.0454
  268loPI   GL2 4278  16.566   9.239  10.046  0.2616  0.0733  0.3423
  268loPI   C1A 4279  16.908   8.968   9.751  0.0568 -0.0642  0.1517
  268loPI   C2A 4280  16.950   8.928   9.332  0.1390  0.2030 -0.1908
  268loPI   C3A 4281  16.817   8.918   8.899  0.1838  0.0334 -0.1257
  268loPI   C4A 4282  16.875   8.988   8.484 -0.0566 -0.0975 -0.0463
  268loPI   C5A 4283  16.851   9.023   8.056 -0.1199  0.2185 -0.1287
  268loPI   C6A 4284  17.096   9.171   7.776 -0.0591 -0.1682  0.1760
  268loPI   C1B 4285  16.524   9.322   9.603 -0.0595  0.0102 -0.0101
  268loPI   C2B 4286  16.605   9.349   9.278 -0.0953  0.0909  0.1718
  268loPI   C3B 4287  16.541   9.335   8.842  0.0217  0.0906 -0.3154
  268loPI   C4B 4288  16.539   9.343   8.383  0.3096 -0.1843 -0.1550
  269loPI    C1 4289  14.572  11.989  11.116  0.0127  0.0790 -0.1836
  269loPI    C2 4290  14.388  12.342  11.155  0.1207  0.1075  0.0945
  269loPI    C3 4291  14.334  12.057  11.430  0.1548 -0.0387 -0.0486
  269loPI   PO4 4292  14.655  12.030  10.810  0.2611  0.0929 -0.0674
  269loPI   GL1 4293  14.641  11.927  10.435  0.2816 -0.2274  0.0639
  269loPI   GL2 4294  14.912  11.856  10.217 -0.2260 -0.1441 -0.1296
  269loPI   C1A 4295  14.530  12.167  10.077 -0.3340 -0.0676 -0.0372
  269loPI   C2A 4296  14.428  12.306   9.702 -0.0893  0.3451 -0.2513
  269loPI   C3A 4297  14.460  12.324   9.309  0.0345  0.1111  0.0630
  269loPI   C4A 4298  14.492  12.422   8.925  0.2075  0.2111 -0.0661
  269loPI   C5A 4299  14.547  12.462   8.442  0.0620 -0.0097  0.2221
  269loPI   C6A 4300  14.546  12.345   8.072 -0.0777  0.1168 -0.1811
  269loPI   C1B 4301  14.716  11.784   9.833  0.0950 -0.0905 -0.0952
  269loPI   C2B 4302  14.669  11.914   9.427 -0.1777 -0.2185 -0.2324
  269loPI   C3B 4303  14.737  11.933   9.015 -0.2681 -0.2197 -0.0812
  269loPI   C4B 4304  14.711  11.918   8.509  0.4165  0.2598 -0.0574
  270loPI    C1 4305   2.978  15.394  10.750  0.0007 -0.0715  0.1075
  270loPI    C2 4306   3.231  15.595  10.987 -0.1648  0.3185 -0.0385
  270loPI    C3 4307   2.892  15.445  11.138 -0.1109  0.2755  0.0406
  270loPI   PO4 4308   3.060  15.446  10.516 -0.0271  0.0991 -0.0622
  270loPI   GL1 4309   3.095  15.555  10.150  0.2601  0.1723  0.0128
  270loPI   GL2 4310   3.426  15.685  10.070 -0.1122  0.0512 -0.1832
  270loPI   C1A 4311   3.057  15.518   9.778 -0.4142  0.0532 -0.0632
  270loPI   C2A 4312   3.096  15.467   9.323  0.2209  0.0461 -0.1769
  270loPI   C3A 4313   3.039  15.334   8.959 -0.2946 -0.1039  0.2849
  270loPI   C4A 4314   3.165  15.343   8.559  0.0775 -0.0613 -0.0675
  270loPI   C5A 4315   3.045  15.272   8.109 -0.0065 -0.1730  0.1917
  270loPI   C6A 4316   2.801  14.932   7.914 -0.3727 -0.0182 -0.2469
  270loPI   C1B 4317   3.547  15.577   9.672 -0.1378 -0.1354  0.1849
  270loPI   C2B 4318   3.643  15.438   9.274 -0.3149  0.0569 -0.2453
  270loPI   C3B 4319   3.605  15.367   8.904  0.2213  0.0861 -0.3323
  270loPI   C4B 4320   3.655  15.382   8.550  0.1227  0.0892  0.2086
  271loPI    C1 4321  13.539   9.083  10.298 -0.0884  0.2822  0.0458
  271loPI    C2 4322  13.863   9.188  10.088 -0.0121 -0.0700 -0.0205
  271loPI    C3 4323  13.876   8.870  10.330 -0.2359  0.0631  0.1718
  271loPI   PO4 4324  13.286   9.184  10.138 -0.2166  0.1875 -0.0420
  271loPI   GL1 4325  13.128   9.515   9.916  0.0678 -0.1445  0.0909
  271loPI   GL2 4326  13.363   9.683   9.875  0.0041 -0.2872 -0.3002
  271loPI   C1A 4327  13.146   9.491   9.470  0.3433 -0.1036  0.0402
  271loPI   C2A 4328  13.058   9.383   9.090 -0.0011  0.2231  0.1797
  271loPI   C3A 4329  12.914   9.122   8.755 -0.0568 -0.0644 -0.0011
  271loPI   C4A 4330  12.763   9.022   8.370 -0.0536 -0.1136 -0.2656
  271loPI   C5A 4331  12.780   9.087   7.906  0.0376  0.0623  0.1234
  271loPI   C6A 4332  12.703   9.418   7.505 -0.1277  0.0099 -0.1042
  271loPI   C1B 4333  13.338   9.954   9.634 -0.1806 -0.1147 -0.5480
  271loPI   C2B 4334  13.353   9.995   9.229  0.0311  0.0610  0.3344
  271loPI   C3B 4335  13.120  10.308   9.106 -0.1523  0.0362 -0.1529
  271loPI   C4B 4336  13.141  10.501   8.737 -0.0629 -0.1054 -0.0554
  272loPI    C1 4337   3.321  10.184  10.764 -0.2027 -0.0871  0.1539
  272loPI    C2 4338   3.624   9.970  10.915 -0.1553 -0.0969  0.0457
  272loPI    C3 4339   3.576  10.353  11.022  0.0432 -0.0217 -0.1257
  272loPI   PO4 4340   3.377  10.174  10.478  0.1304 -0.2133 -0.1319
  272loPI   GL1 4341   3.306  10.020  10.060  0.1555  0.2944  0.1790
  272loPI   GL2 4342   3.280   9.751   9.936  0.0380  0.0256 -0.1561
  272loPI   C1A 4343   3.448  10.344   9.762 -0.1859 -0.0863 -0.2635
  272loPI   C2A 4344   3.370  10.508   9.383  0.1254 -0.0265  0.1469
  272loPI   C3A 4345   3.281  10.495   8.960  0.2180 -0.1952  0.1470
  272loPI   C4A 4346   3.284  10.541   8.565 -0.0341 -0.0865 -0.1283
  272loPI   C5A 4347   3.222  10.579   8.087  0.2392  0.0048 -0.0311
  272loPI   C6A 4348   3.223  10.609   7.627  0.1440 -0.1967  0.0608
  272loPI   C1B 4349   3.177   9.921   9.566 -0.2718 -0.0101 -0.0722
  272loPI   C2B 4350   3.239  10.007   9.206  0.0345  0.1701 -0.1064
  272loPI   C3B 4351   3.103  10.030   8.730  0.2831 -0.0146 -0.2178
  272loPI   C4B 4352   3.047  10.064   8.369 -0.0299  0.1726  0.2080
  273loPI    C1 4353  10.587   6.527  10.000 -0.2703 -0.1789  0.2139
  273loPI    C2 4354  10.802   6.516  10.337  0.1737  0.4652 -0.0272
  273loPI    C3 4355  10.970   6.410   9.990 -0.1417  0.2409 -0.1157
  273loPI   PO4 4356  10.489   6.810  10.011  0.0992  0.0398  0.3224
  273loPI   GL1 4357  10.576   7.174   9.707 -0.0249  0.0511 -0.1666
  273loPI   GL2 4358  10.366   7.315   9.553  0.2412 -0.0932  0.0388
  273loPI   C1A 4359  10.809   7.039   9.286  0.1957  0.2151 -0.4387
  273loPI   C2A 4360  11.121   7.074   9.007 -0.1795  0.1128 -0.0620
  273loPI   C3A 4361  11.296   7.106   8.525  0.1125  0.0883 -0.1465
  273loPI   C4A 4362  11.586   7.196   8.036 -0.3665  0.1490 -0.0566
  273loPI   C5A 4363  11.839   7.405   7.795 -0.3358 -0.1731 -0.1057
  273loPI   C6A 4364  12.190   7.795   7.843 -0.2654  0.1170  0.0497
  273loPI   C1B 4365  10.216   7.500   9.097  0.0355 -0.0846 -0.1750
  273loPI   C2B 4366  10.113   7.618   8.719  0.0166 -0.0378  0.0298
  273loPI   C3B 4367  10.118   7.560   8.327 -0.0947 -0.1559 -0.0353
  273loPI   C4B 4368  10.153   7.564   7.851 -0.1820  0.0315 -0.3122
  274loPI    C1 4369  16.360  10.302  10.674  0.0744 -0.1841  0.0900
  274loPI    C2 4370  16.649  10.184  10.924 -0.1067 -0.1181  0.3354
  274loPI    C3 4371  16.274  10.225  11.057 -0.1793  0.0576  0.0853
  274loPI   PO4 4372  16.550  10.427  10.503  0.1132  0.1884  0.4233
  274loPI   GL1 4373  16.763  10.501  10.064  0.0821 -0.0627 -0.0190
  274loPI   GL2 4374  16.530  10.749  10.026 -0.2747 -0.1899  0.1194
  274loPI   C1A 4375  16.742  10.591   9.591  0.0303 -0.1624  0.1681
  274loPI   C2A 4376  16.636  10.717   9.133  0.0303  0.2682  0.0271
  274loPI   C3A 4377  16.738  10.712   8.731 -0.2918  0.3843 -0.0509
  274loPI   C4A 4378  16.659  10.647   8.303 -0.1369  0.0569  0.0041
  274loPI   C5A 4379  16.645  10.807   7.923 -0.0789 -0.0718 -0.0317
  274loPI   C6A 4380  16.471  10.832   7.580  0.1595  0.0321  0.2811
  274loPI   C1B 4381  16.483  11.004   9.582 -0.0321  0.1118 -0.1559
  274loPI   C2B 4382  16.305  11.128   9.175 -0.1297  0.3664 -0.1517
  274loPI   C3B 4383  16.351  11.070   8.785  0.0158  0.1669 -0.0241
  274loPI   C4B 4384  16.432  11.114   8.369  0.0673 -0.1109  0.0583
  275loPI    C1 4385   7.882  11.149  10.838  0.2512 -0.1775 -0.0307
  275loPI    C2 4386   8.259  11.281  10.821  0.0824  0.3478  0.0835
  275loPI    C3 4387   8.064  11.279  11.170 -0.0610  0.1921  0.0041
  275loPI   PO4 4388   7.815  11.133  10.490 -0.1957  0.1406  0.0680
  275loPI   GL1 4389   7.684  11.143  10.069 -0.0827  0.1292 -0.4124
  275loPI   GL2 4390   7.518  11.331   9.936 -0.3604 -0.3200  0.2263
  275loPI   C1A 4391   7.483  10.841   9.845 -0.0385 -0.0534 -0.0820
  275loPI   C2A 4392   7.155  11.058   9.643 -0.2450  0.1799 -0.2491
  275loPI   C3A 4393   7.114  11.364   9.341 -0.1024 -0.2735  0.2786
  275loPI   C4A 4394   7.113  11.379   8.911  0.3201 -0.0113  0.0991
  275loPI   C5A 4395   7.051  11.290   8.531  0.1453  0.0895 -0.1716
  275loPI   C6A 4396   6.954  11.322   8.048  0.0707 -0.0256 -0.2557
  275loPI   C1B 4397   7.646  11.245   9.525  0.0609 -0.2007  0.0933
  275loPI   C2B 4398   7.661  11.333   9.116 -0.2653  0.0251  0.2149
  275loPI   C3B 4399   7.549  11.393   8.650 -0.0729  0.0667  0.1096
  275loPI   C4B 4400   7.459  11.333   8.170  0.2332 -0.0661  0.0702
  276loPI    C1 4401   7.880   2.250   9.899 -0.0041  0.0745 -0.4611
  276loPI    C2 4402   7.837   2.634  10.000  0.0508 -0.0455  0.0457
  276loPI    C3 4403   7.520   2.391  10.003  0.0004  0.0088 -0.3546
  276loPI   PO4 4404   8.063   2.268   9.719 -0.1624  0.1730  0.2677
  276loPI   GL1 4405   8.249   2.106   9.374 -0.2100 -0.1951 -0.3801
  276loPI   GL2 4406   8.593   2.020   9.598 -0.1887 -0.4930 -0.0406
  276loPI   C1A 4407   8.016   2.160   9.056  0.0680  0.1500 -0.2596
  276loPI   C2A 4408   8.097   2.254   8.569  0.4423 -0.1582  0.1416
  276loPI   C3A 4409   8.089   2.381   8.116  0.0873 -0.0423 -0.0811
  276loPI   C4A 4410   7.870   2.644   7.756  0.1904  0.1101 -0.3056
  276loPI   C5A 4411   7.584   2.873   7.528  0.0370  0.1781 -0.0249
  276loPI   C6A 4412   7.201   3.215   7.693  0.2202 -0.2044 -0.0853
  276loPI   C1B 4413   8.978   2.070   9.426  0.0341  0.0105 -0.4675
  276loPI   C2B 4414   9.302   2.129   9.168 -0.1363  0.2022  0.1008
  276loPI   C3B 4415   9.395   1.951   8.784 -0.0919  0.4314  0.2235
  276loPI   C4B 4416   9.675   1.848   8.514 -0.1404  0.0844  0.0263
  277loPI    C1 4417  13.391  18.226  10.713 -0.0493 -0.1556  0.1068
  277loPI    C2 4418  13.661  17.962  10.582  0.0098 -0.1311  0.1783
  277loPI    C3 4419  13.451  17.884  10.913  0.0167 -0.0949  0.1912
  277loPI   PO4 4420  13.238  18.421  10.493 -0.4292  0.0090  0.1272
  277loPI   GL1 4421  13.065  18.424  10.027 -0.0064  0.3733  0.1300
  277loPI   GL2 4422  13.323  18.133  10.087  0.4639 -0.4264  0.2443
  277loPI   C1A 4423  12.981  18.354   9.558 -0.3025  0.0345 -0.0347
  277loPI   C2A 4424  13.102  18.360   9.104  0.0690  0.3232  0.1550
  277loPI   C3A 4425  13.094  18.365   8.665 -0.0147 -0.1796 -0.3923
  277loPI   C4A 4426  13.157  18.239   8.263 -0.0076  0.0542 -0.1226
  277loPI   C5A 4427  13.378  18.110   7.898  0.0523 -0.1022  0.1587
  277loPI   C6A 4428  13.520  17.983   7.605  0.2536 -0.1138 -0.1403
  277loPI   C1B 4429  13.171  17.923   9.701  0.1027  0.4158  0.2150
  277loPI   C2B 4430  13.327  17.902   9.215 -0.0330 -0.2275 -0.0501
  277loPI   C3B 4431  13.354  17.784   8.780 -0.1389 -0.1120 -0.1676
  277loPI   C4B 4432  13.456  17.801   8.283  0.1479  0.2599 -0.1215
  278loPI    C1 4433  12.564  10.112  10.151 -0.1917  0.0114  0.2785
  278loPI    C2 4434  12.918   9.958  10.048 -0.3001  0.1748 -0.3803
  278loPI    C3 4435  12.902  10.292  10.266 -0.0598 -0.0727  0.0299
  278loPI   PO4 4436  12.434  10.028   9.964  0.2504 -0.1828  0.1857
  278loPI   GL1 4437  12.317  10.130   9.676 -0.0601 -0.1956 -0.0020
  278loPI   GL2 4438  12.305   9.895   9.475  0.2126 -0.2110 -0.2624
  278loPI   C1A 4439  12.077  10.359   9.388  0.0059  0.1464 -0.0353
  278loPI   C2A 4440  12.051  10.318   8.926  0.1450 -0.0674  0.1302
  278loPI   C3A 4441  11.940  10.397   8.549 -0.2634  0.1677  0.0632
  278loPI   C4A 4442  12.169  10.491   8.137 -0.1777 -0.1045 -0.2714
  278loPI   C5A 4443  12.398  10.671   7.814 -0.0619  0.1982  0.2234
  278loPI   C6A 4444  12.723  10.720   7.500 -0.1468  0.0256 -0.2702
  278loPI   C1B 4445  12.302   9.903   9.053  0.0249  0.0037 -0.2304
  278loPI   C2B 4446  12.292   9.988   8.599 -0.0171  0.2451 -0.0332
  278loPI   C3B 4447  12.189   9.958   8.101  0.0708  0.0273  0.0618
  278loPI   C4B 4448  11.977  10.163   7.764  0.3348  0.4484  0.0804
  279loPI    C1 4449   6.709  11.740  10.610 -0.1829  0.0491  0.1995
  279loPI    C2 4450   6.874  11.741  10.974 -0.1005 -0.1912  0.1645
  279loPI    C3 4451   6.891  11.412  10.747 -0.1022 -0.0256 -0.0794
  279loPI   PO4 4452   6.733  11.989  10.509 -0.2499  0.2822 -0.0131
  279loPI   GL1 4453   6.678  12.315  10.177 -0.0844 -0.1168  0.0942
  279loPI   GL2 4454   6.465  12.074  10.094 -0.0473  0.2289  0.1358
  279loPI   C1A 4455   6.775  12.647   9.913  0.1690 -0.1630 -0.4538
  279loPI   C2A 4456   6.704  12.632   9.483 -0.2709 -0.0495 -0.0922
  279loPI   C3A 4457   6.701  12.590   9.107 -0.1544  0.1595 -0.0764
  279loPI   C4A 4458   6.733  12.601   8.740  0.2374  0.0945  0.2215
  279loPI   C5A 4459   6.779  12.581   8.297 -0.0368 -0.0278 -0.3178
  279loPI   C6A 4460   6.740  12.851   7.962 -0.2062 -0.0766  0.0755
  279loPI   C1B 4461   6.680  12.064   9.749 -0.1601  0.2395 -0.0895
  279loPI   C2B 4462   7.038  12.207   9.472  0.2068 -0.2020  0.1075
  279loPI   C3B 4463   6.990  12.183   9.051 -0.2138 -0.1730 -0.0245
  279loPI   C4B 4464   6.929  12.183   8.545 -0.2096 -0.0190 -0.2223
  280loPI    C1 4465  18.168  16.351  10.765 -0.2454 -0.1603 -0.0906
  280loPI    C2 4466  17.946  16.464  11.078 -0.0162  0.0817 -0.0122
  280loPI    C3 4467  18.278  16.248  11.135  0.0890  0.2243 -0.0755
  280loPI   PO4 4468  18.032  16.334  10.513  0.0219  0.4141  0.0472
  280loPI   GL1 4469  17.952  16.123  10.074  0.0940 -0.2526 -0.0335
  280loPI   GL2 4470  17.746  15.862  10.029  0.0561 -0.0772  0.1258
  280loPI   C1A 4471  17.994  16.045   9.612 -0.0778 -0.1724  0.2064
  280loPI   C2A 4472  18.029  16.050   9.204  0.1037  0.0345 -0.2998
  280loPI   C3A 4473  18.135  16.070   8.707 -0.0595 -0.3206 -0.1698
  280loPI   C4A 4474  17.999  16.106   8.274 -0.0153  0.2136  0.0251
  280loPI   C5A 4475  17.660  16.342   8.117 -0.3818 -0.0942 -0.0800
  280loPI   C6A 4476  17.417  16.516   7.920  0.0350 -0.3014  0.2263
  280loPI   C1B 4477  17.752  15.636   9.653 -0.1153 -0.0897 -0.3376
  280loPI   C2B 4478  17.723  15.679   9.223 -0.1674  0.2431 -0.2245
  280loPI   C3B 4479  17.787  15.590   8.857  0.0107  0.0974 -0.1253
  280loPI   C4B 4480  17.720  15.412   8.515 -0.0786 -0.0554  0.1310
  281loPI    C1 4481   3.270   1.346  10.271 -0.0948  0.0613 -0.1706
  281loPI    C2 4482   2.993   1.221  10.531 -0.0674 -0.0023 -0.1717
  281loPI    C3 4483   3.245   1.515  10.633 -0.1133  0.0325 -0.1583
  281loPI   PO4 4484   3.063   1.252  10.052  0.1770  0.1339  0.1263
  281loPI   GL1 4485   3.007   1.098   9.762 -0.0708 -0.3979  0.0017
  281loPI   GL2 4486   3.179   0.830   9.667  0.1997 -0.0993  0.0328
  281loPI   C1A 4487   2.922   1.058   9.198  0.1049  0.3198 -0.2914
  281loPI   C2A 4488   3.076   0.978   8.822 -0.1947  0.1122 -0.1775
  281loPI   C3A 4489   3.259   0.796   8.473  0.0913 -0.1348  0.0574
  281loPI   C4A 4490   3.475   0.914   8.057  0.4809 -0.1879 -0.0103
  281loPI   C5A 4491   3.934   1.018   7.939  0.2378 -0.2451  0.1289
  281loPI   C6A 4492   4.307   0.762   7.973 -0.1998 -0.0421 -0.0917
  281loPI   C1B 4493   2.861   0.570   9.355 -0.1787  0.0680 -0.1833
  281loPI   C2B 4494   2.638   0.524   9.059 -0.1626  0.2854 -0.1631
  281loPI   C3B 4495   2.448   0.688   8.693  0.0003  0.0184  0.2796
  281loPI   C4B 4496   2.273   1.179   8.661  0.2341 -0.0906  0.1570
  282loPI    C1 4497   2.494   3.279  10.414 -0.0401 -0.1010 -0.0944
  282loPI    C2 4498   2.469   2.946  10.193  0.0153 -0.0938 -0.1116
  282loPI    C3 4499   2.598   2.926  10.572  0.3702 -0.0441 -0.2261
  282loPI   PO4 4500   2.369   3.501  10.212 -0.0584  0.1844  0.0431
  282loPI   GL1 4501   2.526   3.445   9.856  0.0731 -0.0735 -0.0306
  282loPI   GL2 4502   2.707   3.150   9.771 -0.0701  0.0308  0.1248
  282loPI   C1A 4503   2.306   3.472   9.500 -0.0423 -0.2183 -0.2480
  282loPI   C2A 4504   2.261   3.529   9.050  0.0610 -0.0335  0.1351
  282loPI   C3A 4505   2.252   3.500   8.631 -0.1297 -0.2089  0.1570
  282loPI   C4A 4506   2.305   3.507   8.159  0.0212 -0.1391 -0.3153
  282loPI   C5A 4507   2.054   3.348   7.927  0.1543  0.1468 -0.2294
  282loPI   C6A 4508   1.740   3.157   7.659 -0.2854  0.2678 -0.1168
  282loPI   C1B 4509   2.465   3.029   9.383 -0.2074 -0.0424 -0.1432
  282loPI   C2B 4510   2.484   3.080   8.952 -0.0084  0.3543 -0.0645
  282loPI   C3B 4511   2.422   2.965   8.535  0.0599 -0.1940 -0.0944
  282loPI   C4B 4512   2.406   2.976   8.118  0.2132 -0.1222  0.0020
  283loPI    C1 4513   1.775  14.847  10.625  0.3252  0.2121  0.0016
  283loPI    C2 4514   1.940  14.790  10.264  0.4286 -0.0628  0.0896
  283loPI    C3 4515   2.173  14.826  10.588  0.3384  0.2389  0.1244
  283loPI   PO4 4516   1.487  14.737  10.568  0.2138 -0.0661 -0.0016
  283loPI   GL1 4517   1.443  14.549  10.193  0.1113  0.0768 -0.1256
  283loPI   GL2 4518   1.663  14.572   9.965  0.0134 -0.0231  0.0069
  283loPI   C1A 4519   1.042  14.400   9.959 -0.0749 -0.0262 -0.1546
  283loPI   C2A 4520   1.076  14.239   9.490  0.0917 -0.1361  0.0995
  283loPI   C3A 4521   1.089  14.218   9.053  0.1284  0.3462  0.0722
  283loPI   C4A 4522   1.041  14.172   8.575 -0.1354 -0.4712 -0.3026
  283loPI   C5A 4523   1.039  14.269   8.159 -0.1024  0.0451  0.2043
  283loPI   C6A 4524   0.887  14.574   7.885  0.0187  0.1879  0.0074
  283loPI   C1B 4525   1.574  14.414   9.613 -0.0738 -0.0785 -0.2023
  283loPI   C2B 4526   1.601  14.393   9.149  0.1141 -0.0517  0.1259
  283loPI   C3B 4527   1.578  14.346   8.711 -0.2610 -0.1023 -0.2615
  283loPI   C4B 4528   1.516  14.188   8.303 -0.4874  0.2926  0.1890
  284loPI    C1 4529   9.963   7.445   9.994 -0.0325 -0.2351  0.0455
  284loPI    C2 4530   9.875   7.218  10.311  0.2153 -0.0654  0.2394
  284loPI    C3 4531  10.252   7.238  10.177  0.1187 -0.1084 -0.0468
  284loPI   PO4 4532   9.722   7.407   9.875 -0.0093  0.2657  0.1688
  284loPI   GL1 4533   9.643   7.390   9.379 -0.1757  0.2108 -0.1587
  284loPI   GL2 4534   9.885   7.174   9.403 -0.1324 -0.0748 -0.3190
  284loPI   C1A 4535   9.704   7.476   9.043  0.0107  0.3447  0.0210
  284loPI   C2A 4536   9.579   7.684   8.657  0.0170  0.2142 -0.2795
  284loPI   C3A 4537   9.558   7.600   8.223 -0.2915  0.2802 -0.1773
  284loPI   C4A 4538   9.659   7.553   7.742  0.1188  0.0554  0.1319
  284loPI   C5A 4539   9.931   7.821   7.457  0.1639  0.1844  0.0585
  284loPI   C6A 4540  10.331   8.002   7.657  0.0861 -0.1575 -0.0151
  284loPI   C1B 4541  10.347   7.065   9.110 -0.1254 -0.1541 -0.1796
  284loPI   C2B 4542  10.567   6.958   8.735  0.1123  0.1720 -0.1002
  284loPI   C3B 4543  10.853   7.153   8.318 -0.1933  0.0604  0.2100
  284loPI   C4B 4544  11.033   7.186   7.922 -0.0635 -0.0000  0.4259
  285loPI    C1 4545   2.020   6.148  10.603 -0.1861  0.0748  0.2309
  285loPI    C2 4546   2.399   6.174  10.730 -0.0610  0.0392 -0.1247
  285loPI    C3 4547   2.116   6.031  10.974  0.1701 -0.0196  0.1134
  285loPI   PO4 4548   2.100   5.950  10.343  0.0381  0.3796  0.1288
  285loPI   GL1 4549   2.222   5.946   9.910  0.2583  0.0623 -0.0605
  285loPI   GL2 4550   2.036   5.638   9.925  0.3329  0.2650  0.1419
  285loPI   C1A 4551   2.347   5.807   9.521 -0.0942 -0.1707 -0.1686
  285loPI   C2A 4552   2.383   5.867   9.139 -0.1440 -0.1149 -0.2763
  285loPI   C3A 4553   2.354   5.776   8.749 -0.3137 -0.0838 -0.2155
  285loPI   C4A 4554   2.342   5.875   8.330 -0.0253  0.1016  0.1785
  285loPI   C5A 4555   2.166   5.865   7.958  0.0507 -0.1588  0.0845
  285loPI   C6A 4556   2.282   5.753   7.465 -0.0342  0.0602 -0.2737
  285loPI   C1B 4557   1.764   5.845   9.710  0.0795  0.0705  0.2306
  285loPI   C2B 4558   1.778   5.920   9.280  0.1918  0.0207 -0.2074
  285loPI   C3B 4559   1.865   5.771   8.799 -0.0177 -0.2525  0.1113
  285loPI   C4B 4560   1.762   5.746   8.401 -0.2743  0.0173  0.2114
  286loPI    C1 4561   7.113  16.827  10.219  0.0201 -0.2170 -0.0381
  286loPI    C2 4562   6.753  16.840  10.392  0.1182  0.0170  0.1554
  286loPI    C3 4563   7.083  16.878  10.615  0.2634 -0.1705 -0.0234
  286loPI   PO4 4564   7.226  16.661  10.116  0.3393 -0.1953  0.0404
  286loPI   GL1 4565   7.238  16.499   9.716 -0.1529  0.0707 -0.1562
  286loPI   GL2 4566   7.513  16.665   9.726  0.2528  0.0040  0.0061
  286loPI   C1A 4567   7.321  16.234   9.352 -0.0438 -0.1780  0.2533
  286loPI   C2A 4568   7.052  15.953   9.092 -0.0041 -0.1010 -0.0590
  286loPI   C3A 4569   6.813  16.182   8.816  0.0456 -0.0707 -0.2107
  286loPI   C4A 4570   6.386  16.302   8.562  0.0399 -0.0336 -0.1089
  286loPI   C5A 4571   6.069  16.495   8.365 -0.1147  0.3161 -0.0904
  286loPI   C6A 4572   5.761  16.661   7.994  0.0918  0.1478 -0.1582
  286loPI   C1B 4573   7.682  16.631   9.217  0.1693 -0.1894 -0.2057
  286loPI   C2B 4574   7.509  16.427   8.944  0.1017 -0.0310  0.0339
  286loPI   C3B 4575   7.256  16.352   8.594  0.2205  0.0486 -0.1179
  286loPI   C4B 4576   7.129  16.503   8.148  0.2288  0.0690 -0.1010
  287loPI    C1 4577   6.694   8.801  10.652  0.2429  0.0015 -0.1635
  287loPI    C2 4578   6.969   8.909  10.922  0.1943 -0.0034 -0.1119
  287loPI    C3 4579   6.927   8.524  10.821  0.0337 -0.0350  0.0703
  287loPI   PO4 4580   6.575   8.924  10.422  0.0734  0.0783  0.0216
  287loPI   GL1 4581   6.344   8.796  10.062  0.2046  0.1102  0.2718
  287loPI   GL2 4582   6.161   8.881   9.858 -0.0395 -0.2237  0.5245
  287loPI   C1A 4583   6.683   8.732   9.701 -0.1400  0.0207  0.1044
  287loPI   C2A 4584   7.108   8.785   9.482  0.1995  0.2735  0.4632
  287loPI   C3A 4585   7.172   8.904   9.043  0.0782 -0.1381 -0.2580
  287loPI   C4A 4586   7.118   8.863   8.606  0.2902  0.1314 -0.0143
  287loPI   C5A 4587   7.403   8.825   8.225 -0.2152 -0.2434  0.4020
  287loPI   C6A 4588   7.654   9.220   8.035 -0.1423  0.1027  0.0145
  287loPI   C1B 4589   6.206   9.058   9.439 -0.0681  0.2471 -0.0485
  287loPI   C2B 4590   6.389   9.184   9.090  0.1547 -0.0744  0.0977
  287loPI   C3B 4591   6.351   9.449   8.761  0.1059 -0.2712  0.1399
  287loPI   C4B 4592   6.227   9.400   8.320  0.1432 -0.2180 -0.3406
  288loPI    C1 4593  15.786  15.506  10.873  0.2116  0.1251  0.1825
  288loPI    C2 4594  15.516  15.211  10.861  0.2163  0.1282 -0.0489
  288loPI    C3 4595  15.679  15.320  11.210 -0.0207  0.0718  0.0811
  288loPI   PO4 4596  15.860  15.512  10.550 -0.1011 -0.1885 -0.0668
  288loPI   GL1 4597  15.978  15.586  10.197  0.0889 -0.2036  0.0843
  288loPI   GL2 4598  16.161  15.893  10.331  0.0529 -0.1303  0.1429
  288loPI   C1A 4599  15.958  15.327   9.779 -0.3469  0.5108 -0.0094
  288loPI   C2A 4600  15.879  15.335   9.300 -0.1962 -0.1447 -0.1053
  288loPI   C3A 4601  16.017  15.201   8.868  0.1613 -0.1516 -0.1275
  288loPI   C4A 4602  15.959  15.181   8.383  0.1487  0.1195  0.0680
  288loPI   C5A 4603  15.808  14.867   8.026  0.2730  0.0442 -0.0989
  288loPI   C6A 4604  15.746  14.642   7.717  0.1520 -0.1400 -0.1031
  288loPI   C1B 4605  16.256  15.943   9.896 -0.2806  0.1662 -0.0993
  288loPI   C2B 4606  16.215  15.706   9.486  0.0281  0.1908 -0.0550
  288loPI   C3B 4607  16.228  15.651   9.012 -0.0166  0.1552 -0.1451
  288loPI   C4B 4608  16.265  15.662   8.526  0.6407 -0.0450  0.0528
  289loPI    C1 4609   1.332  15.745  10.515 -0.0902 -0.0771 -0.1274
  289loPI    C2 4610   1.131  15.958  10.787  0.1319 -0.0659  0.0304
  289loPI    C3 4611   1.059  15.566  10.747 -0.1531  0.0005 -0.1410
  289loPI   PO4 4612   1.282  15.829  10.315 -0.3190  0.2307  0.0530
  289loPI   GL1 4613   1.277  15.492   9.980  0.2790 -0.1360 -0.1441
  289loPI   GL2 4614   1.106  15.566   9.718  0.5839  0.0414 -0.0495
  289loPI   C1A 4615   1.350  15.056   9.623 -0.1520 -0.2373 -0.0352
  289loPI   C2A 4616   1.283  14.791   9.273  0.0287 -0.1184  0.1354
  289loPI   C3A 4617   1.258  14.683   8.921 -0.0130 -0.1124 -0.0249
  289loPI   C4A 4618   1.244  14.684   8.584 -0.1133  0.0579 -0.0525
  289loPI   C5A 4619   1.369  14.670   8.136 -0.0168 -0.1247  0.0443
  289loPI   C6A 4620   1.348  14.753   7.690 -0.1539  0.2761 -0.1044
  289loPI   C1B 4621   1.257  15.478   9.396  0.1236  0.2679  0.1937
  289loPI   C2B 4622   1.324  15.609   9.069  0.1844  0.0368 -0.0896
  289loPI   C3B 4623   1.376  15.590   8.615  0.0163 -0.3367 -0.3305
  289loPI   C4B 4624   1.321  15.620   8.137 -0.0103  0.2458 -0.2300
  290loPI    C1 4625   6.091   8.929  10.595 -0.0534 -0.0896  0.0745
  290loPI    C2 4626   5.987   8.980  10.978 -0.1441 -0.3393  0.0848
  290loPI    C3 4627   6.343   9.109  10.848 -0.2704  0.1001  0.1594
  290loPI   PO4 4628   5.881   9.037  10.501 -0.0107 -0.0147 -0.0410
  290loPI   GL1 4629   5.823   9.117  10.120  0.0559 -0.2698 -0.0204
  290loPI   GL2 4630   5.499   9.184  10.156  0.1014  0.1500 -0.0518
  290loPI   C1A 4631   5.758   9.214   9.709  0.1000 -0.0473  0.0288
  290loPI   C2A 4632   5.822   9.270   9.188  0.0724  0.2317  0.1488
  290loPI   C3A 4633   5.792   9.374   8.805 -0.0825  0.4163  0.0159
  290loPI   C4A 4634   5.698   9.419   8.320 -0.0165 -0.0228  0.1098
  290loPI   C5A 4635   5.468   9.134   8.013  0.0177 -0.0313  0.1782
  290loPI   C6A 4636   5.705   9.220   7.595  0.2061  0.1185  0.0540
  290loPI   C1B 4637   5.321   9.292   9.806 -0.2866  0.3660  0.1052
  290loPI   C2B 4638   5.263   9.272   9.419  0.0673 -0.0376  0.1703
  290loPI   C3B 4639   5.259   9.310   8.954 -0.0234  0.2764 -0.0635
  290loPI   C4B 4640   5.192   9.353   8.439 -0.0861  0.1354  0.0484
  291loPI    C1 4641   7.354  18.311  10.289 -0.0670  0.1496 -0.1278
  291loPI    C2 4642   7.554  18.452  10.605 -0.1212 -0.0020 -0.0245
  291loPI    C3 4643   7.352  18.108  10.634 -0.0635 -0.0561 -0.2467
  291loPI   PO4 4644   7.386  18.695  10.205  0.2848 -0.1765  0.0787
  291loPI   GL1 4645   7.394  19.047   9.894 -0.0589 -0.0543 -0.1192
  291loPI   GL2 4646   7.302  19.389   9.835 -0.1446  0.0381 -0.0943
  291loPI   C1A 4647   7.575  18.792   9.562  0.1972  0.3739  0.0333
  291loPI   C2A 4648   7.613  18.362   9.384  0.1048  0.2957  0.4988
  291loPI   C3A 4649   7.837  18.324   8.969 -0.0807  0.0238  0.1017
  291loPI   C4A 4650   7.925  18.293   8.571 -0.0099  0.0156 -0.0701
  291loPI   C5A 4651   8.244  18.113   8.424 -0.1663  0.1057  0.0629
  291loPI   C6A 4652   8.504  17.897   8.169  0.0060 -0.0458 -0.2089
  291loPI   C1B 4653   7.165  19.585   9.427  0.0135  0.0619  0.1072
  291loPI   C2B 4654   7.056  19.506   9.034  0.1382  0.1790 -0.1975
  291loPI   C3B 4655   6.902  19.321   8.714  0.0700  0.0081  0.2387
  291loPI   C4B 4656   6.894  19.034   8.422  0.0741 -0.3762  0.1588
  292loPI    C1 4657   9.027   6.644   9.880 -0.1717 -0.0483 -0.0642
  292loPI    C2 4658   8.982   6.249   9.928  0.2416 -0.0885  0.0284
  292loPI    C3 4659   9.007   6.488  10.248  0.0320  0.0107 -0.0272
  292loPI   PO4 4660   8.869   6.722   9.693 -0.0412 -0.0585 -0.2748
  292loPI   GL1 4661   8.620   6.827   9.395 -0.0982 -0.1605  0.0994
  292loPI   GL2 4662   8.303   6.886   9.473  0.0080 -0.1315 -0.0868
  292loPI   C1A 4663   8.520   6.645   9.006 -0.2081  0.0444 -0.0776
  292loPI   C2A 4664   8.439   6.391   8.673  0.0039  0.0164 -0.2719
  292loPI   C3A 4665   8.227   6.262   8.249 -0.0630  0.2129 -0.0060
  292loPI   C4A 4666   8.395   6.135   7.981 -0.1128  0.0580  0.3215
  292loPI   C5A 4667   8.243   5.866   7.742 -0.2977 -0.3622  0.1222
  292loPI   C6A 4668   8.143   5.485   7.605  0.4181 -0.1573 -0.0682
  292loPI   C1B 4669   7.997   6.729   9.222 -0.1171 -0.0300 -0.3350
  292loPI   C2B 4670   8.007   6.422   8.904 -0.0860 -0.0039  0.0362
  292loPI   C3B 4671   7.950   6.593   8.500 -0.2794 -0.1856 -0.1817
  292loPI   C4B 4672   7.879   6.674   8.079  0.2554  0.3777 -0.0960
  293loPI    C1 4673   2.453  15.134  10.830  0.2541  0.0168 -0.1015
  293loPI    C2 4674   2.517  15.525  10.778  0.0756  0.0434 -0.1291
  293loPI    C3 4675   2.347  15.394  11.115 -0.0553  0.0110 -0.2072
  293loPI   PO4 4676   2.570  15.041  10.598  0.0534 -0.0931  0.0359
  293loPI   GL1 4677   2.487  14.970  10.182 -0.0272  0.1906 -0.1040
  293loPI   GL2 4678   2.824  15.029  10.094 -0.1454  0.0235  0.0035
  293loPI   C1A 4679   2.409  14.970   9.743  0.1657  0.0704  0.1165
  293loPI   C2A 4680   2.341  14.830   9.409 -0.2400  0.0501 -0.1526
  293loPI   C3A 4681   2.360  14.819   8.941  0.1092  0.1531 -0.0224
  293loPI   C4A 4682   2.414  14.796   8.492  0.0503 -0.0344 -0.3571
  293loPI   C5A 4683   2.296  14.531   8.071 -0.1103  0.3880  0.2862
  293loPI   C6A 4684   2.150  14.681   7.670 -0.1569 -0.0435 -0.1518
  293loPI   C1B 4685   2.914  15.034   9.665 -0.2455 -0.0436  0.0096
  293loPI   C2B 4686   2.816  14.930   9.222  0.0458  0.0989  0.0272
  293loPI   C3B 4687   2.827  14.920   8.790  0.0394 -0.2642 -0.1324
  293loPI   C4B 4688   2.958  14.886   8.425 -0.0535 -0.3108  0.0150
  294loPI    C1 4689   7.278  13.706  10.680 -0.1101  0.0449  0.1059
  294loPI    C2 4690   7.618  13.594  10.858 -0.0148  0.0824 -0.0503
  294loPI    C3 4691   7.444  13.940  10.959 -0.0193  0.0526  0.0456
  294loPI   PO4 4692   7.305  13.737  10.457  0.1548 -0.1707  0.2383
  294loPI   GL1 4693   7.272  13.660  10.027 -0.1859  0.1152 -0.2164
  294loPI   GL2 4694   6.964  13.544  10.149  0.1133 -0.0777 -0.1859
  294loPI   C1A 4695   7.201  13.711   9.620 -0.1416  0.1966 -0.0651
  294loPI   C2A 4696   7.104  13.554   9.251 -0.2853  0.0573  0.0335
  294loPI   C3A 4697   7.150  13.534   8.825  0.2879  0.1916  0.1391
  294loPI   C4A 4698   7.311  13.603   8.383 -0.3225  0.3868  0.2282
  294loPI   C5A 4699   7.399  13.760   7.901  0.0614 -0.1809 -0.0530
  294loPI   C6A 4700   7.267  13.952   7.376  0.4536  0.0664 -0.0869
  294loPI   C1B 4701   6.705  13.610   9.813 -0.0847 -0.1528  0.4397
  294loPI   C2B 4702   6.678  13.501   9.441  0.1305  0.3066  0.1935
  294loPI   C3B 4703   6.667  13.441   9.056  0.1506 -0.1293  0.0295
  294loPI   C4B 4704   6.755  13.433   8.601 -0.0563  0.2670 -0.2059
  295loPI    C1 4705  13.570   7.525  10.156 -0.1375  0.3413 -0.1059
  295loPI    C2 4706  13.234   7.373  10.309  0.0475  0.0527  0.0228
  295loPI    C3 4707  13.552   7.431  10.544  0.1005  0.2935 -0.1047
  295loPI   PO4 4708  13.599   7.496   9.939  0.1797 -0.4070  0.1999
  295loPI   GL1 4709  13.499   7.652   9.523 -0.0455  0.0804 -0.1628
  295loPI   GL2 4710  13.784   7.769   9.574 -0.0833 -0.0913  0.1854
  295loPI   C1A 4711  13.402   7.731   9.057 -0.2593  0.2181 -0.0996
  295loPI   C2A 4712  13.262   7.733   8.569  0.1680  0.3449 -0.0835
  295loPI   C3A 4713  13.116   7.604   8.128 -0.0129 -0.0300 -0.1378
  295loPI   C4A 4714  13.026   7.315   7.847  0.2655  0.0393  0.0607
  295loPI   C5A 4715  12.669   6.909   7.757 -0.0131  0.0357  0.2115
  295loPI   C6A 4716  12.307   6.763   7.540 -0.0199 -0.0839 -0.2236
  295loPI   C1B 4717  13.891   7.705   9.154  0.1394 -0.1435  0.1066
  295loPI   C2B 4718  13.819   7.669   8.768  0.3864  0.0392 -0.1976
  295loPI   C3B 4719  13.784   7.423   8.426 -0.1781  0.2165  0.1061
  295loPI   C4B 4720  13.447   7.228   8.142  0.0099  0.2153  0.1666
  296loPI    C1 4721  12.143  17.608  10.260 -0.0574 -0.2443 -0.0905
  296loPI    C2 4722  11.810  17.810  10.170 -0.1170 -0.2893  0.0257
  296loPI    C3 4723  11.993  17.872  10.521  0.1103 -0.1187 -0.1195
  296loPI   PO4 4724  12.272  17.507  10.039  0.0580 -0.0585  0.0613
  296loPI   GL1 4725  12.295  17.592   9.574  0.2688 -0.0576 -0.0565
  296loPI   GL2 4726  12.304  17.165   9.599 -0.1389 -0.3650  0.0090
  296loPI   C1A 4727  12.499  17.538   9.182 -0.2350 -0.2658 -0.1134
  296loPI   C2A 4728  12.559  17.418   8.811  0.0261  0.2264  0.0801
  296loPI   C3A 4729  12.652  17.323   8.441  0.1821  0.0861 -0.2713
  296loPI   C4A 4730  12.803  17.319   7.960 -0.2407  0.0554  0.1759
  296loPI   C5A 4731  13.022  17.330   7.513 -0.1853 -0.3124 -0.1478
  296loPI   C6A 4732  13.291  17.048   7.456  0.0153 -0.0325 -0.0696
  296loPI   C1B 4733  12.322  17.045   9.150  0.1870 -0.2272  0.1752
  296loPI   C2B 4734  12.286  17.056   8.570  0.1424  0.0771  0.0663
  296loPI   C3B 4735  12.413  17.041   8.108 -0.0472  0.1374  0.2846
  296loPI   C4B 4736  12.136  17.049   7.798  0.0646 -0.1370 -0.1333
  297loPI    C1 4737   2.583  18.432  10.080 -0.0681  0.0711 -0.0273
  297loPI    C2 4738   2.432  18.628  10.394  0.0800  0.1940 -0.0315
  297loPI    C3 4739   2.644  18.293  10.450 -0.2445 -0.0171 -0.0298
  297loPI   PO4 4740   2.521  18.645   9.839  0.2584  0.0003  0.0644
  297loPI   GL1 4741   2.418  18.965   9.536  0.0188  0.0892 -0.0716
  297loPI   GL2 4742   2.340  19.290   9.637 -0.0723  0.1404 -0.2271
  297loPI   C1A 4743   2.147  19.062   9.130  0.1979  0.2130  0.0298
  297loPI   C2A 4744   2.082  18.767   8.747 -0.3032  0.4585  0.1510
  297loPI   C3A 4745   2.168  18.463   8.487  0.1200 -0.1047 -0.0166
  297loPI   C4A 4746   2.149  17.984   8.233 -0.1408 -0.0949 -0.3695
  297loPI   C5A 4747   1.838  17.689   8.138 -0.0207 -0.0205 -0.0469
  297loPI   C6A 4748   1.510  17.606   7.861 -0.0005  0.0703  0.0759
  297loPI   C1B 4749   2.414  19.480   9.222  0.0703 -0.1707  0.2176
  297loPI   C2B 4750   2.285  19.893   9.093  0.3664 -0.1060  0.0865
  297loPI   C3B 4751   2.451  20.228   8.838  0.2181  0.2028 -0.0791
  297loPI   C4B 4752   2.702  20.489   8.975  0.0774  0.1258  0.1791
  298loPI    C1 4753  15.527   1.626  10.318  0.1195 -0.0448 -0.2271
  298loPI    C2 4754  15.631   2.011  10.353 -0.2412  0.0789 -0.4516
  298loPI    C3 4755  15.269   1.914  10.214 -0.3784 -0.3361  0.1552
  298loPI   PO4 4756  15.674   1.434  10.197  0.0387 -0.0081 -0.4791
  298loPI   GL1 4757  15.806   1.332   9.850  0.1511  0.0710  0.2992
  298loPI   GL2 4758  16.035   1.005   9.855  0.1118 -0.0586 -0.0020
  298loPI   C1A 4759  15.787   1.411   9.443 -0.3143 -0.4250  0.0021
  298loPI   C2A 4760  15.816   1.367   9.052  0.1437 -0.0620  0.0155
  298loPI   C3A 4761  15.936   1.281   8.655  0.3364 -0.5617  0.1534
  298loPI   C4A 4762  15.745   1.127   8.257 -0.0106 -0.1400  0.1651
  298loPI   C5A 4763  15.564   0.721   8.065  0.2190 -0.2266  0.1080
  298loPI   C6A 4764  15.312   0.519   7.757 -0.2686  0.0216  0.1320
  298loPI   C1B 4765  15.996   0.924   9.366  0.0793  0.1090  0.1014
  298loPI   C2B 4766  16.095   0.852   8.953  0.2746  0.2648  0.1884
  298loPI   C3B 4767  16.086   0.812   8.520 -0.0948 -0.2002 -0.0271
  298loPI   C4B 4768  16.048   0.819   7.961  0.1909  0.2299 -0.3765
  299loPI    C1 4769  14.228   3.207  10.211  0.1618  0.0639 -0.2160
  299loPI    C2 4770  14.266   3.531   9.980  0.1735  0.1249 -0.1290
  299loPI    C3 4771  14.462   3.509  10.328  0.0628  0.0848 -0.0685
  299loPI   PO4 4772  14.225   3.019  10.038 -0.5687 -0.0515 -0.1071
  299loPI   GL1 4773  14.348   3.042   9.621 -0.2829  0.2191  0.0342
  299loPI   GL2 4774  14.504   3.300   9.589  0.0678  0.0829  0.0705
  299loPI   C1A 4775  14.171   2.929   9.234  0.0325  0.2410  0.0041
  299loPI   C2A 4776  14.289   2.960   8.798 -0.0463  0.0481  0.0956
  299loPI   C3A 4777  14.111   2.856   8.454  0.0870 -0.1355  0.1056
  299loPI   C4A 4778  14.151   2.654   8.044  0.4514  0.2642 -0.0087
  299loPI   C5A 4779  13.945   2.533   7.655  0.0424  0.4217  0.3093
  299loPI   C6A 4780  13.991   2.597   7.246  0.0194 -0.0069  0.5141
  299loPI   C1B 4781  14.461   3.354   9.219 -0.4184 -0.2446  0.0831
  299loPI   C2B 4782  14.541   3.371   8.719 -0.3113  0.1182 -0.1488
  299loPI   C3B 4783  14.460   3.249   8.380  0.1567  0.2418 -0.0569
  299loPI   C4B 4784  14.470   3.032   8.128 -0.0750  0.0276  0.1833
  300loPI    C1 4785  16.030  12.237  10.434  0.0751  0.0887 -0.0616
  300loPI    C2 4786  15.932  12.619  10.369  0.1041  0.1288  0.1280
  300loPI    C3 4787  15.916  12.468  10.739  0.1977 -0.0237  0.0707
  300loPI   PO4 4788  16.230  12.158  10.278  0.3329 -0.2024 -0.0525
  300loPI   GL1 4789  16.511  11.836  10.045  0.2418  0.0029 -0.5308
  300loPI   GL2 4790  16.115  11.821   9.942 -0.2322 -0.2033 -0.0624
  300loPI   C1A 4791  16.745  11.941   9.759  0.0722  0.2185 -0.0981
  300loPI   C2A 4792  16.782  11.945   9.332 -0.1255 -0.1007  0.0665
  300loPI   C3A 4793  16.830  11.987   8.861  0.0126 -0.4133  0.0030
  300loPI   C4A 4794  16.788  12.147   8.414  0.0263  0.1196 -0.1383
  300loPI   C5A 4795  16.849  12.385   8.012 -0.1898 -0.1055  0.1018
  300loPI   C6A 4796  17.257  12.615   7.890 -0.1982 -0.2915 -0.3198
  300loPI   C1B 4797  16.270  11.936   9.488  0.0501  0.1384 -0.4668
  300loPI   C2B 4798  16.312  11.900   9.037  0.0006 -0.0024 -0.2504
  300loPI   C3B 4799  16.356  12.038   8.652  0.2341 -0.0322  0.0814
  300loPI   C4B 4800  16.276  12.156   8.141 -0.2553 -0.2525 -0.1409
  301loPI    C1 4801  12.481  13.904  10.821 -0.1371 -0.0118  0.0078
  301loPI    C2 4802  12.547  14.000  11.203 -0.0192 -0.1437  0.0211
  301loPI    C3 4803  12.487  13.618  11.100 -0.3248 -0.0781 -0.0540
  301loPI   PO4 4804  12.624  14.014  10.711  0.1572 -0.1070  0.1792
  301loPI   GL1 4805  12.737  13.971  10.355 -0.1092  0.1690  0.2905
  301loPI   GL2 4806  12.672  14.279  10.237  0.1897  0.1407  0.0096
  301loPI   C1A 4807  12.641  13.610  10.174  0.0538  0.2415  0.2947
  301loPI   C2A 4808  12.558  13.533   9.748 -0.1713  0.1453 -0.1792
  301loPI   C3A 4809  12.626  13.558   9.333 -0.3113  0.4965  0.0956
  301loPI   C4A 4810  12.630  13.565   8.984  0.0047  0.0463 -0.0235
  301loPI   C5A 4811  12.599  13.449   8.463  0.0101 -0.1449  0.1308
  301loPI   C6A 4812  12.908  13.571   8.047 -0.0409  0.2401 -0.0107
  301loPI   C1B 4813  12.716  14.475   9.785  0.0202 -0.1761 -0.0884
  301loPI   C2B 4814  12.533  14.374   9.369 -0.0543 -0.0547  0.1201
  301loPI   C3B 4815  12.496  14.463   8.878  0.0460 -0.1345 -0.0910
  301loPI   C4B 4816  12.610  14.511   8.452  0.3658  0.0777  0.0897
  302loPI    C1 4817   5.189  15.508  10.800 -0.1845  0.0179  0.0916
  302loPI    C2 4818   4.958  15.802  10.942 -0.0426  0.1249  0.1034
  302loPI    C3 4819   5.193  15.595  11.191 -0.3031 -0.1461  0.1306
  302loPI   PO4 4820   5.037  15.459  10.562  0.0852  0.0278  0.1504
  302loPI   GL1 4821   5.226  15.565  10.208 -0.2209 -0.1737 -0.0211
  302loPI   GL2 4822   4.910  15.788  10.067 -0.0988  0.0313  0.1503
  302loPI   C1A 4823   4.999  15.258   9.993  0.1319 -0.0491  0.0136
  302loPI   C2A 4824   4.870  15.091   9.614  0.2975 -0.0336 -0.2200
  302loPI   C3A 4825   4.875  15.040   9.156 -0.2931  0.1168 -0.3663
  302loPI   C4A 4826   4.876  15.071   8.709 -0.0021  0.2803  0.0323
  302loPI   C5A 4827   5.255  15.021   8.496  0.1443 -0.1740  0.1801
  302loPI   C6A 4828   5.405  14.830   8.156 -0.1062 -0.0617 -0.2505
  302loPI   C1B 4829   5.071  15.549   9.622  0.0546 -0.1562  0.0857
  302loPI   C2B 4830   5.374  15.766   9.296  0.1346 -0.0920 -0.2827
  302loPI   C3B 4831   5.511  15.856   8.876  0.2492 -0.0132 -0.4119
  302loPI   C4B 4832   5.784  15.741   8.713 -0.2542 -0.1947 -0.2932
  303loPI    C1 4833   9.206   2.470   9.810 -0.0994  0.0538 -0.0043
  303loPI    C2 4834   9.087   2.668  10.137  0.0666  0.2775 -0.0762
  303loPI    C3 4835   9.345   2.364  10.170 -0.2461  0.0187  0.0429
  303loPI   PO4 4836   9.212   2.592   9.649  0.0905  0.1881 -0.0862
  303loPI   GL1 4837   8.902   2.635   9.332 -0.0127  0.0022 -0.2383
  303loPI   GL2 4838   8.538   2.768   9.411 -0.1886  0.0264 -0.1153
  303loPI   C1A 4839   8.922   2.420   9.012 -0.0041 -0.0784  0.1849
  303loPI   C2A 4840   8.947   2.338   8.556 -0.1343 -0.1616  0.1914
  303loPI   C3A 4841   9.071   2.385   8.228 -0.2833 -0.2019  0.0007
  303loPI   C4A 4842   9.303   2.563   7.998 -0.3346  0.1628 -0.1361
  303loPI   C5A 4843   9.478   2.563   7.679  0.2809  0.0131  0.0729
  303loPI   C6A 4844   9.268   2.325   7.380 -0.1154  0.0423 -0.1863
  303loPI   C1B 4845   8.470   2.461   9.161 -0.3967  0.0592 -0.1884
  303loPI   C2B 4846   8.452   2.061   8.843 -0.0327 -0.3075  0.0422
  303loPI   C3B 4847   8.511   2.032   8.387 -0.1727 -0.0853 -0.2645
  303loPI   C4B 4848   8.488   1.983   7.964  0.0215  0.0486 -0.1558
  304loPI    C1 4849   7.486  10.803  10.935 -0.0017  0.0702  0.2566
  304loPI    C2 4850   7.853  10.653  10.884  0.0306  0.1757  0.1763
  304loPI    C3 4851   7.575  10.439  11.075  0.1049  0.0546  0.1501
  304loPI   PO4 4852   7.424  10.821  10.689  0.1283  0.0415  0.1809
  304loPI   GL1 4853   7.628  10.642  10.333  0.0362  0.1534 -0.1016
  304loPI   GL2 4854   7.535  10.454  10.278 -0.3441  0.1685 -0.0599
  304loPI   C1A 4855   8.009  10.776  10.021  0.0087  0.1367 -0.0595
  304loPI   C2A 4856   7.931  10.857   9.672 -0.0253  0.3248  0.1842
  304loPI   C3A 4857   7.938  10.944   9.218  0.0751  0.0528 -0.0534
  304loPI   C4A 4858   7.844  11.007   8.756 -0.0838  0.1669 -0.3069
  304loPI   C5A 4859   7.750  10.960   8.341 -0.2150 -0.3745 -0.0039
  304loPI   C6A 4860   7.337  10.854   8.167  0.1948 -0.0229  0.0056
  304loPI   C1B 4861   7.349  10.370   9.991  0.0165  0.0395 -0.4118
  304loPI   C2B 4862   7.243  10.437   9.549  0.1475  0.0364 -0.1850
  304loPI   C3B 4863   7.203  10.446   9.069  0.0721 -0.0150  0.1549
  304loPI   C4B 4864   7.193  10.492   8.667  0.0093 -0.0375 -0.2291
  305loPI    C1 4865   6.513  15.460  10.619  0.2275 -0.0009  0.2283
  305loPI    C2 4866   6.207  15.228  10.506  0.2339  0.0866  0.0256
  305loPI    C3 4867   6.271  15.300  10.895  0.1427 -0.1279  0.0818
  305loPI   PO4 4868   6.704  15.376  10.373 -0.1960  0.1064  0.1919
  305loPI   GL1 4869   6.633  15.225   9.932 -0.0571  0.0053 -0.1208
  305loPI   GL2 4870   6.394  15.106   9.975  0.2168 -0.0090  0.0823
  305loPI   C1A 4871   6.938  15.054   9.769 -0.3333 -0.1028  0.0623
  305loPI   C2A 4872   7.204  14.946   9.498  0.0842 -0.0904  0.1648
  305loPI   C3A 4873   7.418  14.894   9.117  0.2656  0.3039  0.2225
  305loPI   C4A 4874   7.503  14.923   8.705 -0.1569  0.2228 -0.1621
  305loPI   C5A 4875   7.457  14.995   8.342  0.1869 -0.2170  0.2501
  305loPI   C6A 4876   7.601  15.073   8.043  0.0585  0.2600 -0.1991
  305loPI   C1B 4877   6.346  14.862   9.642  0.0693 -0.0933  0.2788
  305loPI   C2B 4878   6.287  14.821   9.196  0.2725 -0.0540  0.0045
  305loPI   C3B 4879   6.270  15.073   8.879 -0.0544  0.0469 -0.0143
  305loPI   C4B 4880   6.219  15.462   8.651  0.1455 -0.1006 -0.1470
  306loPI    C1 4881  15.746   7.444  10.279 -0.1037  0.1512 -0.0243
  306loPI    C2 4882  15.892   7.406  10.650  0.0409 -0.1771 -0.1115
  306loPI    C3 4883  15.547   7.228  10.551 -0.1951  0.2247 -0.0325
  306loPI   PO4 4884  15.964   7.422  10.081 -0.1289 -0.1313 -0.1931
  306loPI   GL1 4885  16.093   7.720   9.780  0.0789  0.0592 -0.2656
  306loPI   GL2 4886  16.188   7.523   9.495  0.1615  0.3255  0.2551
  306loPI   C1A 4887  15.856   7.941   9.461 -0.0408 -0.1443 -0.0445
  306loPI   C2A 4888  15.915   8.012   9.035  0.3408 -0.3146 -0.1520
  306loPI   C3A 4889  15.858   7.994   8.599  0.1481 -0.0381 -0.3873
  306loPI   C4A 4890  15.994   7.848   8.139  0.0728  0.1242  0.0009
  306loPI   C5A 4891  16.337   7.904   7.798 -0.1841  0.4582  0.0894
  306loPI   C6A 4892  16.299   8.040   7.484 -0.1735  0.2593 -0.0144
  306loPI   C1B 4893  16.219   7.575   9.053  0.1562  0.0901 -0.0904
  306loPI   C2B 4894  16.248   7.536   8.625  0.1635  0.0800  0.1707
  306loPI   C3B 4895  16.297   7.475   8.130 -0.4345 -0.2478  0.0773
  306loPI   C4B 4896  16.277   7.429   7.680  0.0267 -0.3154  0.1919
  307loPI    C1 4897   9.887  14.576  11.000 -0.0881  0.1488  0.2959
  307loPI    C2 4898  10.235  14.547  11.194  0.0286  0.0952  0.0826
  307loPI    C3 4899  10.057  14.903  11.153 -0.1077  0.0768  0.4734
  307loPI   PO4 4900   9.882  14.517  10.728  0.3634  0.0925 -0.0752
  307loPI   GL1 4901  10.129  14.549  10.339 -0.1836  0.0933 -0.0667
  307loPI   GL2 4902  10.233  14.807  10.203 -0.0540  0.1829  0.4043
  307loPI   C1A 4903  10.094  14.338   9.938  0.0337 -0.0983  0.2711
  307loPI   C2A 4904   9.892  14.328   9.543 -0.0742 -0.1816  0.0553
  307loPI   C3A 4905   9.969  14.186   9.142 -0.4096 -0.0176 -0.1345
  307loPI   C4A 4906   9.969  14.149   8.663  0.1986  0.0309  0.3433
  307loPI   C5A 4907   9.995  14.044   8.225 -0.4008  0.1497  0.2654
  307loPI   C6A 4908   9.719  14.150   7.906  0.3609  0.1053  0.0690
  307loPI   C1B 4909  10.181  14.805   9.757 -0.2997  0.0127 -0.0246
  307loPI   C2B 4910  10.226  14.713   9.261  0.0315 -0.0414  0.2487
  307loPI   C3B 4911  10.182  14.610   8.926 -0.0984  0.1416  0.0343
  307loPI   C4B 4912  10.263  14.689   8.522 -0.0294  0.3168 -0.1177
  308loPI    C1 4913   0.405  16.823  10.709  0.2992 -0.2469  0.3244
  308loPI    C2 4914   0.701  17.010  10.903  0.0979 -0.0676  0.4619
  308loPI    C3 4915   0.332  17.002  11.059 -0.0298 -0.0627  0.1659
  308loPI   PO4 4916   0.353  16.900  10.507 -0.0322  0.2001 -0.1648
  308loPI   GL1 4917   0.485  16.823  10.069 -0.1127  0.0514  0.0254
  308loPI   GL2 4918   0.243  16.522  10.049  0.1568 -0.0877  0.1841
  308loPI   C1A 4919   0.561  16.916   9.595  0.0460  0.2176 -0.1056
  308loPI   C2A 4920   0.588  16.863   9.182  0.2232 -0.0324  0.1292
  308loPI   C3A 4921   0.753  16.868   8.746 -0.0157 -0.2162 -0.0441
  308loPI   C4A 4922   0.650  16.829   8.333 -0.0365 -0.1043  0.0292
  308loPI   C5A 4923   0.528  16.763   7.843  0.0570 -0.0789  0.1367
  308loPI   C6A 4924   0.468  16.673   7.493  0.1269 -0.0834 -0.1454
  308loPI   C1B 4925   0.308  16.466   9.502 -0.0946 -0.0977  0.1766
  308loPI   C2B 4926   0.358  16.446   9.043  0.2362 -0.0157 -0.0769
  308loPI   C3B 4927   0.375  16.558   8.632  0.0916 -0.0168  0.0741
  308loPI   C4B 4928   0.384  16.369   8.260 -0.3079 -0.0797  0.1332
  309loPI    C1 4929  12.399   6.409   9.703 -0.0603 -0.1207  0.0112
  309loPI    C2 4930  12.520   6.618  10.022  0.1045  0.0120 -0.1360
  309loPI    C3 4931  12.380   6.246  10.068 -0.2136  0.1594  0.1319
  309loPI   PO4 4932  12.253   6.692   9.579 -0.0636 -0.0757  0.1623
  309loPI   GL1 4933  12.168   7.039   9.434  0.2462 -0.1781 -0.1352
  309loPI   GL2 4934  12.385   7.169   9.211  0.1541  0.0350  0.4420
  309loPI   C1A 4935  12.004   6.884   8.997  0.1164  0.1031  0.2771
  309loPI   C2A 4936  12.127   6.837   8.488  0.1765  0.1575 -0.0319
  309loPI   C3A 4937  12.354   6.741   8.181  0.0389 -0.1898  0.3574
  309loPI   C4A 4938  12.622   6.402   8.091 -0.0968  0.1481 -0.2925
  309loPI   C5A 4939  12.913   6.174   7.832 -0.0499 -0.1853 -0.2078
  309loPI   C6A 4940  12.963   5.954   7.532 -0.0746 -0.1344 -0.1068
  309loPI   C1B 4941  12.459   7.166   8.725  0.0429  0.0339  0.3277
  309loPI   C2B 4942  12.719   6.848   8.539  0.0899 -0.2463  0.3602
  309loPI   C3B 4943  13.078   6.777   8.279 -0.0621  0.0342 -0.1798
  309loPI   C4B 4944  13.106   6.795   7.916 -0.2527  0.0426  0.0043
  310loPI    C1 4945  14.927  11.633  10.695 -0.2377 -0.0954 -0.1234
  310loPI    C2 4946  15.026  11.675  11.080  0.0666 -0.0945 -0.1988
  310loPI    C3 4947  14.692  11.480  10.979 -0.0933  0.0349  0.0690
  310loPI   PO4 4948  15.096  11.570  10.538  0.0719 -0.1278  0.2877
  310loPI   GL1 4949  15.414  11.777  10.244 -0.2331 -0.1440  0.0696
  310loPI   GL2 4950  15.630  11.998  10.070  0.2479  0.0093  0.3013
  310loPI   C1A 4951  15.240  11.885   9.770  0.1332 -0.2801  0.1705
  310loPI   C2A 4952  15.290  11.958   9.382 -0.0031 -0.0318 -0.1277
  310loPI   C3A 4953  15.308  12.014   8.855 -0.1310 -0.1101 -0.1957
  310loPI   C4A 4954  15.279  11.985   8.355 -0.0468 -0.0699 -0.1095
  310loPI   C5A 4955  15.038  12.135   8.017  0.1512  0.2198 -0.2580
  310loPI   C6A 4956  14.888  12.115   7.613  0.1486  0.0713 -0.0948
  310loPI   C1B 4957  15.791  11.951   9.572  0.2081 -0.1226  0.0632
  310loPI   C2B 4958  15.844  11.961   9.171 -0.1357  0.0537  0.0810
  310loPI   C3B 4959  15.882  11.963   8.723 -0.2393  0.1489 -0.4175
  310loPI   C4B 4960  15.781  12.026   8.349 -0.0763 -0.4447 -0.0645
  311loPI    C1 4961   9.735  15.294  10.442  0.1755 -0.0182 -0.0631
  311loPI    C2 4962   9.769  15.048  10.756 -0.1046 -0.1267 -0.1152
  311loPI    C3 4963   9.593  15.405  10.799  0.1309 -0.0125 -0.0825
  311loPI   PO4 4964  10.041  15.287  10.304 -0.3146 -0.1099  0.1764
  311loPI   GL1 4965  10.058  15.271   9.839  0.1043  0.1572 -0.2758
  311loPI   GL2 4966   9.824  15.478   9.889 -0.1623  0.2733 -0.2109
  311loPI   C1A 4967   9.948  15.138   9.411  0.1237 -0.3097  0.0993
  311loPI   C2A 4968   9.948  15.059   9.022 -0.0779 -0.0609  0.0979
  311loPI   C3A 4969   9.904  14.934   8.652  0.1428  0.1700  0.1486
  311loPI   C4A 4970  10.020  14.989   8.252  0.2094  0.0684 -0.3531
  311loPI   C5A 4971  10.217  14.909   7.887 -0.0302 -0.0140 -0.1247
  311loPI   C6A 4972  10.524  14.870   7.621  0.1640  0.0834  0.3602
  311loPI   C1B 4973   9.688  15.698   9.484  0.3421  0.5009  0.3401
  311loPI   C2B 4974   9.648  15.531   9.081  0.1757 -0.2910  0.0389
  311loPI   C3B 4975   9.685  15.469   8.674 -0.5390  0.2995  0.3920
  311loPI   C4B 4976   9.722  15.587   8.209 -0.0666  0.1534 -0.4574
  312loPI    C1 4977  17.462   1.464  10.489 -0.0902 -0.1625 -0.1253
  312loPI    C2 4978  17.673   1.218  10.723  0.0175  0.1468  0.1113
  312loPI    C3 4979  17.305   1.330  10.831  0.0018  0.1582  0.0470
  312loPI   PO4 4980  17.512   1.318  10.244 -0.2567 -0.2710 -0.2419
  312loPI   GL1 4981  17.367   1.474   9.811  0.2611  0.0432  0.0621
  312loPI   GL2 4982  17.156   1.187   9.935  0.2231  0.1257 -0.0368
  312loPI   C1A 4983  17.326   1.248   9.340 -0.1154 -0.1594 -0.0552
  312loPI   C2A 4984  17.435   1.218   8.921 -0.4292 -0.1381  0.4237
  312loPI   C3A 4985  17.451   1.090   8.506  0.0576 -0.0486 -0.2553
  312loPI   C4A 4986  17.406   1.183   8.128 -0.0718  0.1508 -0.2735
  312loPI   C5A 4987  17.143   1.484   7.807  0.1742 -0.1801 -0.0540
  312loPI   C6A 4988  17.085   1.996   7.763  0.1360  0.1359  0.0108
  312loPI   C1B 4989  17.380   0.872   9.687  0.0101 -0.0467  0.1118
  312loPI   C2B 4990  17.513   0.771   9.224  0.1339  0.0072 -0.0976
  312loPI   C3B 4991  17.603   0.684   8.762 -0.0412 -0.1467 -0.0957
  312loPI   C4B 4992  17.673   0.644   8.285  0.2687  0.2028  0.1864
  313loPI    C1 4993  16.387  12.999  10.617 -0.1075  0.0484  0.0666
  313loPI    C2 4994  16.201  12.847  10.936 -0.0649  0.2425  0.1855
  313loPI    C3 4995  16.601  12.852  10.921 -0.0658 -0.0798 -0.0241
  313loPI   PO4 4996  16.313  12.930  10.382  0.2862 -0.0654  0.0942
  313loPI   GL1 4997  16.395  12.662  10.127  0.1082 -0.2626 -0.0154
  313loPI   GL2 4998  16.552  12.409  10.045 -0.0587  0.0737  0.0203
  313loPI   C1A 4999  16.201  12.750   9.744 -0.1777 -0.1792  0.1206
  313loPI   C2A 5000  16.247  12.759   9.311 -0.0819 -0.2706  0.3581
  313loPI   C3A 5001  16.227  12.883   8.892 -0.1867 -0.2640  0.2236
  313loPI   C4A 5002  16.289  12.995   8.536  0.0594 -0.0029  0.0450
  313loPI   C5A 5003  16.481  13.163   8.201 -0.2915  0.1280  0.1038
  313loPI   C6A 5004  16.832  13.400   7.928 -0.2682 -0.1319 -0.0689
  313loPI   C1B 5005  16.496  12.354   9.650  0.0874  0.3930  0.0788
  313loPI   C2B 5006  16.592  12.418   9.135 -0.2495 -0.0279 -0.1347
  313loPI   C3B 5007  16.579  12.503   8.760 -0.1844 -0.2868  0.0804
  313loPI   C4B 5008  16.504  12.607   8.349 -0.2688  0.0043  0.0946
  314loPI    C1 5009   4.712  12.180  11.117 -0.1167  0.0302  0.1094
  314loPI    C2 5010   4.461  12.283  11.411  0.1301  0.2191  0.2580
  314loPI    C3 5011   4.754  12.020  11.482 -0.0433 -0.0275  0.0759
  314loPI   PO4 5012   4.500  12.221  10.884  0.2639 -0.0810 -0.0088
  314loPI   GL1 5013   4.436  12.144  10.448 -0.2827 -0.2473  0.1578
  314loPI   GL2 5014   4.315  12.326  10.257 -0.1839 -0.0135  0.2284
  314loPI   C1A 5015   4.591  12.007  10.039 -0.0737  0.1913 -0.0757
  314loPI   C2A 5016   4.500  11.953   9.631  0.0895  0.3097  0.0250
  314loPI   C3A 5017   4.433  11.912   9.165  0.2603  0.0858 -0.0263
  314loPI   C4A 5018   4.539  11.931   8.709  0.2685  0.1473 -0.0477
  314loPI   C5A 5019   4.628  12.032   8.317 -0.0249  0.3399  0.1077
  314loPI   C6A 5020   4.843  12.124   8.097  0.1844  0.1742  0.1259
  314loPI   C1B 5021   4.252  12.373   9.856  0.1326 -0.3335 -0.1211
  314loPI   C2B 5022   4.172  12.382   9.429  0.2158  0.0385  0.3288
  314loPI   C3B 5023   4.230  12.336   8.962  0.2004  0.0937  0.0254
  314loPI   C4B 5024   4.258  12.350   8.516  0.1116  0.0757  0.0954
  315loPI    C1 5025   5.330  12.393  10.654  0.0258  0.0004 -0.1369
  315loPI    C2 5026   5.000  12.171  10.699 -0.0819  0.1605 -0.1316
  315loPI    C3 5027   5.204  12.293  11.020  0.1051 -0.1188 -0.1417
  315loPI   PO4 5028   5.261  12.512  10.350 -0.0200 -0.0844 -0.2965
  315loPI   GL1 5029   5.276  12.564   9.972 -0.0158 -0.4183 -0.0318
  315loPI   GL2 5030   5.162  12.833  10.029  0.0485 -0.3056 -0.1556
  315loPI   C1A 5031   5.194  12.402   9.588 -0.3135 -0.0321 -0.0533
  315loPI   C2A 5032   5.189  12.528   9.175 -0.0987  0.0067 -0.0887
  315loPI   C3A 5033   5.268  12.510   8.702 -0.4770  0.3500 -0.0716
  315loPI   C4A 5034   5.202  12.398   8.205  0.1568  0.1237 -0.2290
  315loPI   C5A 5035   4.997  12.637   7.911  0.1714  0.0351 -0.4243
  315loPI   C6A 5036   4.923  12.876   7.676 -0.0742  0.0682  0.3838
  315loPI   C1B 5037   4.923  12.957   9.717  0.1635  0.2083 -0.1034
  315loPI   C2B 5038   4.908  12.941   9.225  0.3483 -0.1926 -0.0862
  315loPI   C3B 5039   4.952  12.908   8.806 -0.2703 -0.2610 -0.0366
  315loPI   C4B 5040   5.005  12.910   8.397 -0.2193 -0.0954 -0.1112
  316loPI    C1 5041   2.886  15.886  10.499  0.0306  0.0267  0.0910
  316loPI    C2 5042   2.748  16.219  10.670 -0.0560  0.0337  0.0086
  316loPI    C3 5043   2.851  15.906  10.896  0.0590  0.1284  0.0886
  316loPI   PO4 5044   2.781  15.918  10.249  0.0607  0.2154 -0.1388
  316loPI   GL1 5045   2.618  15.699   9.866  0.0444  0.1211  0.1974
  316loPI   GL2 5046   2.352  15.454   9.855  0.0631  0.0044  0.0258
  316loPI   C1A 5047   2.607  15.476   9.445  0.0435 -0.0344  0.0511
  316loPI   C2A 5048   2.542  15.294   9.079 -0.1950  0.1710  0.1105
  316loPI   C3A 5049   2.616  15.322   8.566 -0.2299  0.1913  0.0413
  316loPI   C4A 5050   2.461  15.438   8.218 -0.1098  0.0655  0.2830
  316loPI   C5A 5051   2.481  15.488   7.846 -0.0526 -0.0320  0.0621
  316loPI   C6A 5052   2.406  15.128   7.572  0.0025  0.0493  0.2029
  316loPI   C1B 5053   2.131  15.298   9.468 -0.2191 -0.0905 -0.0907
  316loPI   C2B 5054   2.054  15.278   8.956  0.0684 -0.0163 -0.2967
  316loPI   C3B 5055   2.074  15.154   8.429  0.0760 -0.0159  0.1010
  316loPI   C4B 5056   2.291  15.016   8.057  0.0395 -0.1292 -0.1066
  317loPI    C1 5057  13.930   8.019  10.101  0.0027 -0.0125 -0.1686
  317loPI    C2 5058  14.094   7.709   9.908  0.1689  0.0740 -0.1680
  317loPI    C3 5059  14.053   7.699  10.306  0.1342  0.0353 -0.1725
  317loPI   PO4 5060  13.715   8.074   9.956 -0.1070  0.0117  0.0375
  317loPI   GL1 5061  13.415   8.350   9.654  0.1124 -0.1057 -0.1490
  317loPI   GL2 5062  13.458   8.609   9.410  0.3722 -0.1110 -0.3966
  317loPI   C1A 5063  13.577   8.179   9.293 -0.1341  0.1798 -0.1474
  317loPI   C2A 5064  13.464   8.177   8.891  0.1544  0.2074 -0.0554
  317loPI   C3A 5065  13.333   8.305   8.453 -0.0622  0.3571 -0.0339
  317loPI   C4A 5066  13.475   8.462   8.198 -0.3604 -0.0792  0.0477
  317loPI   C5A 5067  13.640   8.701   7.787  0.0638 -0.0432  0.0303
  317loPI   C6A 5068  13.683   9.089   7.628 -0.1190  0.4778 -0.2232
  317loPI   C1B 5069  13.685   8.625   9.121 -0.1033  0.1053 -0.1044
  317loPI   C2B 5070  13.655   8.673   8.674 -0.2384  0.1293  0.0607
  317loPI   C3B 5071  13.574   8.919   8.324 -0.0548 -0.1073  0.0090
  317loPI   C4B 5072  13.675   9.361   8.034  0.1089 -0.1145 -0.1027
  318loPI    C1 5073   2.085  14.144  10.981 -0.1235  0.2701  0.1033
  318loPI    C2 5074   1.910  14.339  11.284 -0.1011  0.1468  0.1965
  318loPI    C3 5075   1.866  13.943  11.249  0.1390  0.1174  0.2077
  318loPI   PO4 5076   2.044  14.377  10.788 -0.3969  0.1510  0.1385
  318loPI   GL1 5077   2.224  14.395  10.382 -0.3218 -0.1227  0.0313
  318loPI   GL2 5078   2.010  14.254  10.287  0.0659 -0.1316 -0.3098
  318loPI   C1A 5079   2.183  14.584   9.923 -0.1038  0.1892 -0.1507
  318loPI   C2A 5080   2.038  14.409   9.514  0.0154  0.0467 -0.1573
  318loPI   C3A 5081   2.143  14.346   9.078  0.3416  0.1421 -0.0881
  318loPI   C4A 5082   2.068  14.253   8.663  0.1311 -0.0746  0.1454
  318loPI   C5A 5083   2.131  14.107   8.190 -0.1150 -0.0579  0.1307
  318loPI   C6A 5084   2.178  14.088   7.725  0.3510  0.0768 -0.1566
  318loPI   C1B 5085   1.962  14.125   9.904  0.3654 -0.0849  0.0337
  318loPI   C2B 5086   1.897  13.975   9.507  0.1463 -0.0765  0.0451
  318loPI   C3B 5087   1.950  13.864   9.030 -0.2390 -0.0333  0.2532
  318loPI   C4B 5088   1.837  13.844   8.622  0.0155  0.0175  0.4374
  319loPI    C1 5089  17.721  10.187  10.569  0.0070  0.1278 -0.0810
  319loPI    C2 5090  17.733  10.010  10.928 -0.1417 -0.2786 -0.2704
  319loPI    C3 5091  17.881  10.378  10.882 -0.1272 -0.2183  0.2074
  319loPI   PO4 5092  17.477  10.181  10.544  0.0061 -0.1596  0.2428
  319loPI   GL1 5093  17.358  10.047  10.218 -0.2452  0.0030  0.0465
  319loPI   GL2 5094  17.154  10.226  10.061  0.2202  0.0003  0.1842
  319loPI   C1A 5095  17.386   9.797   9.859  0.2142  0.0517 -0.2082
  319loPI   C2A 5096  17.314   9.782   9.463  0.1663 -0.0531 -0.0602
  319loPI   C3A 5097  17.252   9.911   9.146  0.0714 -0.1506  0.2484
  319loPI   C4A 5098  17.328   9.848   8.648 -0.1613  0.2335 -0.4640
  319loPI   C5A 5099  17.383  10.016   8.159  0.2337  0.1396 -0.2753
  319loPI   C6A 5100  17.358  10.385   8.033 -0.3638 -0.3284  0.1700
  319loPI   C1B 5101  17.046  10.128   9.713  0.1490 -0.1214 -0.0098
  319loPI   C2B 5102  16.896  10.285   9.259 -0.1642  0.1471  0.3222
  319loPI   C3B 5103  17.059  10.223   8.782  0.1905 -0.3662  0.0996
  319loPI   C4B 5104  17.077  10.286   8.443 -0.0766 -0.1192  0.4267
  320loPI    C1 5105  14.863   6.641  10.312 -0.1131  0.0297  0.1940
  320loPI    C2 5106  15.043   6.916  10.540 -0.0933  0.1443  0.0425
  320loPI    C3 5107  14.649   6.855  10.573 -0.0937  0.1738  0.0932
  320loPI   PO4 5108  15.071   6.720  10.084 -0.1747 -0.0181  0.3672
  320loPI   GL1 5109  15.258   6.858   9.688 -0.0660 -0.0629 -0.0148
  320loPI   GL2 5110  15.154   7.110   9.658  0.1490  0.1498  0.1731
  320loPI   C1A 5111  15.509   7.029   9.369  0.0978 -0.0139  0.0691
  320loPI   C2A 5112  15.500   6.987   8.960  0.1238 -0.1166 -0.1035
  320loPI   C3A 5113  15.401   7.112   8.548 -0.0769 -0.2479 -0.0369
  320loPI   C4A 5114  15.613   6.987   8.155 -0.0307 -0.1563 -0.1440
  320loPI   C5A 5115  15.707   7.014   7.661 -0.3254  0.1557 -0.1995
  320loPI   C6A 5116  15.753   6.687   7.452 -0.1086 -0.1842 -0.0204
  320loPI   C1B 5117  15.236   7.370   9.269  0.2960  0.0802  0.0467
  320loPI   C2B 5118  15.217   7.445   8.878 -0.1557 -0.0300 -0.1048
  320loPI   C3B 5119  15.115   7.500   8.419  0.0960 -0.0037 -0.0607
  320loPI   C4B 5120  15.138   7.450   8.048  0.2363 -0.1109  0.6109
  321loPI    C1 5121   7.236   4.633  10.341  0.1141 -0.0251 -0.2778
  321loPI    C2 5122   7.048   4.498  10.015 -0.2505 -0.1423 -0.0243
  321loPI    C3 5123   6.840   4.677  10.306  0.0969  0.1236  0.0668
  321loPI   PO4 5124   7.453   4.703  10.215 -0.2166 -0.0533 -0.0683
  321loPI   GL1 5125   7.359   4.854   9.738  0.0612 -0.0274  0.1035
  321loPI   GL2 5126   7.397   5.176   9.739 -0.0774 -0.2626  0.0391
  321loPI   C1A 5127   7.699   4.894   9.454 -0.2032  0.1346 -0.2510
  321loPI   C2A 5128   7.683   4.745   8.922  0.1522  0.0574  0.0505
  321loPI   C3A 5129   7.562   4.739   8.577  0.0069  0.4197  0.1492
  321loPI   C4A 5130   7.250   4.683   8.285 -0.1722  0.2567 -0.1188
  321loPI   C5A 5131   7.046   4.741   7.865  0.2018 -0.0712 -0.2068
  321loPI   C6A 5132   6.991   5.189   7.651 -0.0469 -0.0557 -0.0030
  321loPI   C1B 5133   7.216   4.977   9.243 -0.0337 -0.0024  0.0257
  321loPI   C2B 5134   7.179   4.871   8.875 -0.1401  0.2095  0.0239
  321loPI   C3B 5135   7.033   5.021   8.569 -0.3209  0.0792  0.0283
  321loPI   C4B 5136   6.912   5.097   8.195  0.0428 -0.1375  0.3939
  322loPI    C1 5137   3.402   0.667  10.098  0.1047 -0.2813 -0.1198
  322loPI    C2 5138   3.057   0.805  10.247  0.2668  0.1143 -0.0999
  322loPI    C3 5139   3.218   0.470  10.393 -0.0626 -0.0252 -0.0497
  322loPI   PO4 5140   3.550   0.921  10.059  0.1213  0.2382 -0.0131
  322loPI   GL1 5141   3.516   1.227   9.784  0.0631 -0.0050 -0.4241
  322loPI   GL2 5142   3.460   1.470   9.798 -0.1833  0.0402  0.0639
  322loPI   C1A 5143   3.455   0.977   9.356 -0.2788 -0.2053  0.1453
  322loPI   C2A 5144   3.582   0.930   8.909  0.0509  0.1054  0.1100
  322loPI   C3A 5145   3.656   1.080   8.530  0.0435  0.0782 -0.5477
  322loPI   C4A 5146   3.634   1.369   8.203 -0.0936  0.0473 -0.1928
  322loPI   C5A 5147   3.493   1.453   7.884  0.2812 -0.1702 -0.0750
  322loPI   C6A 5148   3.651   1.919   7.814  0.0980  0.0279 -0.1369
  322loPI   C1B 5149   3.434   1.442   9.315  0.2638  0.3066  0.0447
  322loPI   C2B 5150   3.367   1.382   8.915  0.0314  0.2078  0.1594
  322loPI   C3B 5151   3.282   1.420   8.517  0.0053  0.0614 -0.3273
  322loPI   C4B 5152   3.106   1.458   8.168  0.0044 -0.0469  0.0900
  323loPI    C1 5153  18.205  13.695  10.246  0.3861 -0.0726  0.0811
  323loPI    C2 5154  18.126  13.328  10.107 -0.1452  0.1132 -0.1300
  323loPI    C3 5155  18.032  13.424  10.484 -0.0700  0.0542 -0.0961
  323loPI   PO4 5156  18.116  13.831  10.123 -0.0127 -0.1555  0.4565
  323loPI   GL1 5157  17.836  13.946   9.685  0.1434  0.0442  0.0300
  323loPI   GL2 5158  17.968  13.585   9.645  0.0337 -0.2779  0.2041
  323loPI   C1A 5159  18.052  14.233   9.259 -0.1717  0.2031  0.1257
  323loPI   C2A 5160  18.281  14.570   9.013  0.1865  0.1463 -0.0909
  323loPI   C3A 5161  18.388  14.727   8.662 -0.1940  0.1917  0.3099
  323loPI   C4A 5162  18.477  14.423   8.311 -0.1535 -0.0118  0.1056
  323loPI   C5A 5163  18.453  14.276   7.954  0.0573  0.0416 -0.1035
  323loPI   C6A 5164  18.585  13.757   7.909 -0.0438 -0.5170  0.1565
  323loPI   C1B 5165  17.854  13.665   9.220 -0.2287 -0.2557 -0.2543
  323loPI   C2B 5166  17.895  13.575   8.840  0.0282 -0.1206  0.0563
  323loPI   C3B 5167  17.906  13.701   8.479 -0.0351 -0.1312 -0.0303
  323loPI   C4B 5168  18.088  13.773   8.118  0.3876 -0.2009  0.0340
  324loPI    C1 5169   5.780   6.122  10.408 -0.1650  0.1447 -0.0991
  324loPI    C2 5170   6.014   6.076  10.087 -0.0317 -0.3080  0.0551
  324loPI    C3 5171   6.178   6.116  10.449 -0.1786  0.2916  0.0651
  324loPI   PO4 5172   5.530   6.212  10.235  0.1590 -0.3183  0.0579
  324loPI   GL1 5173   5.467   6.024   9.867  0.0761 -0.1791 -0.1484
  324loPI   GL2 5174   5.791   6.107   9.635 -0.0248  0.0143  0.3812
  324loPI   C1A 5175   5.187   6.318   9.604  0.2197  0.2582  0.1030
  324loPI   C2A 5176   5.247   6.355   9.115  0.2529 -0.0765 -0.0842
  324loPI   C3A 5177   5.225   6.508   8.703 -0.0141  0.2272 -0.0276
  324loPI   C4A 5178   5.226   6.729   8.259 -0.0317  0.0335  0.1519
  324loPI   C5A 5179   5.061   6.890   7.800 -0.0530  0.0408  0.1806
  324loPI   C6A 5180   5.086   6.624   7.459  0.2564 -0.0640  0.0754
  324loPI   C1B 5181   5.705   6.099   9.129 -0.0288 -0.4947 -0.1917
  324loPI   C2B 5182   5.697   6.262   8.719 -0.3433 -0.0545 -0.2526
  324loPI   C3B 5183   5.549   6.318   8.265  0.0384 -0.0530 -0.0523
  324loPI   C4B 5184   5.496   6.558   7.872  0.1620  0.0387  0.1803
  325loPI    C1 5185   0.926  16.533  10.815 -0.1008  0.2677 -0.0612
  325loPI    C2 5186   0.624  16.277  10.872  0.1698 -0.0033  0.1943
  325loPI    C3 5187   0.672  16.588  11.119 -0.0412  0.1841  0.0042
  325loPI   PO4 5188   0.875  16.642  10.544  0.1377 -0.0746  0.2353
  325loPI   GL1 5189   1.164  16.787  10.188 -0.2399  0.0003  0.2315
  325loPI   GL2 5190   1.230  16.464   9.910 -0.1992 -0.1356  0.0436
  325loPI   C1A 5191   1.046  16.912   9.723  0.0555 -0.0449 -0.2552
  325loPI   C2A 5192   1.133  16.806   9.245  0.1950  0.0428 -0.0980
  325loPI   C3A 5193   1.334  16.641   8.883  0.1648  0.0887  0.0249
  325loPI   C4A 5194   1.243  16.737   8.447 -0.1252 -0.0639  0.2201
  325loPI   C5A 5195   1.216  16.972   8.016  0.1529 -0.1502  0.0290
  325loPI   C6A 5196   1.271  17.202   7.707  0.1702 -0.0110  0.1894
  325loPI   C1B 5197   1.299  16.393   9.447  0.1404  0.0968 -0.1952
  325loPI   C2B 5198   1.492  16.186   9.079 -0.0729 -0.2280  0.1018
  325loPI   C3B 5199   1.572  16.168   8.618 -0.0064  0.0271 -0.1984
  325loPI   C4B 5200   1.610  16.084   8.137  0.1619 -0.1534 -0.0662
  326loPI    C1 5201  17.543   3.407  10.484 -0.1283 -0.2220 -0.0838
  326loPI    C2 5202  17.588   3.046  10.652  0.0801 -0.1721 -0.0299
  326loPI    C3 5203  17.804   3.357  10.783  0.0686 -0.0785 -0.2288
  326loPI   PO4 5204  17.457   3.290  10.232  0.0934 -0.2401  0.1467
  326loPI   GL1 5205  17.641   3.153   9.869 -0.0568  0.1753 -0.0872
  326loPI   GL2 5206  17.761   3.531   9.875  0.0308 -0.1171 -0.0689
  326loPI   C1A 5207  17.502   3.159   9.507 -0.1814  0.1844 -0.2528
  326loPI   C2A 5208  17.187   2.982   9.178 -0.0355 -0.0075  0.0858
  326loPI   C3A 5209  17.021   2.959   8.802 -0.0105 -0.0743 -0.1596
  326loPI   C4A 5210  16.930   3.190   8.485 -0.3618  0.0472  0.4822
  326loPI   C5A 5211  17.078   3.354   8.100  0.2960 -0.1114 -0.1911
  326loPI   C6A 5212  17.406   3.707   7.866 -0.0264 -0.1321  0.1971
  326loPI   C1B 5213  17.945   3.471   9.405  0.0433 -0.2345 -0.1595
  326loPI   C2B 5214  18.113   3.200   9.060 -0.1294 -0.1569  0.2259
  326loPI   C3B 5215  17.945   2.926   8.752  0.0788 -0.0008 -0.0158
  326loPI   C4B 5216  17.515   2.986   8.671  0.2441  0.2494  0.3669
  327loPI    C1 5217  10.057   2.551  10.022 -0.0230  0.1771 -0.0097
  327loPI    C2 5218   9.689   2.592   9.870 -0.0296 -0.0296 -0.0529
  327loPI    C3 5219   9.765   2.706  10.246 -0.2051 -0.2322  0.0460
  327loPI   PO4 5220  10.202   2.664   9.817 -0.0340 -0.0223  0.0328
  327loPI   GL1 5221  10.202   2.681   9.448  0.0363  0.1779  0.0652
  327loPI   GL2 5222  10.140   2.849   9.266  0.2006  0.0238 -0.0690
  327loPI   C1A 5223   9.899   2.478   9.041  0.1581  0.1331  0.1809
  327loPI   C2A 5224   9.825   2.463   8.585  0.2111  0.0211  0.1843
  327loPI   C3A 5225   9.525   2.292   8.367  0.1070 -0.1219 -0.0378
  327loPI   C4A 5226   9.500   2.087   8.004  0.1410 -0.2000 -0.1761
  327loPI   C5A 5227   9.502   1.832   7.660 -0.3693 -0.0829  0.1813
  327loPI   C6A 5228   9.745   1.532   7.533 -0.2198 -0.1145 -0.1529
  327loPI   C1B 5229  10.274   2.829   8.927  0.1631  0.1521  0.0522
  327loPI   C2B 5230  10.274   2.868   8.492 -0.0084  0.1311 -0.1755
  327loPI   C3B 5231   9.924   2.774   8.140  0.0808 -0.0424  0.1203
  327loPI   C4B 5232   9.907   2.363   7.835  0.3445  0.0875 -0.1323
  328loPI    C1 5233   0.919   6.938  11.014 -0.2547 -0.1393  0.0799
  328loPI    C2 5234   0.539   7.051  11.070 -0.2165 -0.1083  0.2841
  328loPI    C3 5235   0.768   6.956  11.384 -0.0443 -0.0927  0.1649
  328loPI   PO4 5236   0.868   6.907  10.743 -0.1068 -0.3007 -0.3450
  328loPI   GL1 5237   0.862   6.819  10.317 -0.1227 -0.0335  0.0968
  328loPI   GL2 5238   1.089   7.043  10.305  0.1125 -0.2585  0.0710
  328loPI   C1A 5239   0.779   6.757   9.846 -0.1100  0.0940 -0.0050
  328loPI   C2A 5240   0.754   6.952   9.455  0.0608 -0.3179  0.0307
  328loPI   C3A 5241   0.879   6.921   8.974  0.0740 -0.1001 -0.0331
  328loPI   C4A 5242   0.887   7.022   8.497  0.1149  0.0996  0.0194
  328loPI   C5A 5243   0.917   6.864   8.096  0.2885  0.3788 -0.1122
  328loPI   C6A 5244   0.634   6.554   7.958  0.1271  0.0223 -0.1320
  328loPI   C1B 5245   0.942   7.189   9.870  0.0477  0.2672 -0.1728
  328loPI   C2B 5246   0.998   7.404   9.449  0.1566  0.0094 -0.0484
  328loPI   C3B 5247   1.005   7.368   8.981 -0.0508 -0.0334  0.2043
  328loPI   C4B 5248   1.156   7.512   8.559 -0.0556 -0.1951  0.0379
  329loPI    C1 5249   0.279   9.726  10.866  0.0952 -0.0302 -0.0472
  329loPI    C2 5250   0.456   9.777  11.221 -0.0147  0.0808 -0.0081
  329loPI    C3 5251   0.064   9.849  11.180 -0.0309 -0.0674 -0.1184
  329loPI   PO4 5252   0.332   9.548  10.753 -0.3326 -0.2744 -0.0899
  329loPI   GL1 5253   0.380   9.387  10.426 -0.1206 -0.1229  0.1397
  329loPI   GL2 5254   0.474   9.117  10.360  0.1979 -0.1149  0.1840
  329loPI   C1A 5255   0.456   9.616  10.023 -0.0493 -0.0885 -0.1441
  329loPI   C2A 5256   0.265   9.600   9.611 -0.1218 -0.1163 -0.0273
  329loPI   C3A 5257   0.165   9.596   9.122  0.2590  0.1348  0.0724
  329loPI   C4A 5258   0.063   9.539   8.775  0.2625 -0.4506 -0.2017
  329loPI   C5A 5259  -0.114   9.492   8.362  0.0524  0.1190 -0.1981
  329loPI   C6A 5260  -0.289   9.539   7.945 -0.3189  0.3570  0.0351
  329loPI   C1B 5261   0.420   9.106   9.984 -0.1265  0.0824  0.0693
  329loPI   C2B 5262   0.525   9.147   9.523 -0.3165 -0.1041  0.1117
  329loPI   C3B 5263   0.380   9.153   9.127  0.1491  0.0276 -0.0916
  329loPI   C4B 5264   0.396   9.218   8.762  0.1869  0.0857 -0.0780
  330loPI    C1 5265   5.155  11.554  10.884 -0.0493  0.0762  0.0561
  330loPI    C2 5266   5.089  11.815  11.180  0.0434  0.0987  0.0570
  330loPI    C3 5267   5.108  11.424  11.259  0.4088  0.1286  0.1373
  330loPI   PO4 5268   5.309  11.766  10.697 -0.1935 -0.2646 -0.0541
  330loPI   GL1 5269   5.154  11.949  10.294 -0.1190  0.3189 -0.0830
  330loPI   GL2 5270   5.415  12.039  10.148 -0.1209 -0.4166 -0.0649
  330loPI   C1A 5271   5.022  11.949   9.798 -0.0660 -0.0033 -0.0512
  330loPI   C2A 5272   4.973  11.982   9.384  0.2048  0.1402 -0.1264
  330loPI   C3A 5273   5.024  12.022   9.035  0.2977  0.0937  0.0637
  330loPI   C4A 5274   5.436  12.025   8.965  0.0956 -0.2483  0.1061
  330loPI   C5A 5275   5.506  12.067   8.549 -0.4664 -0.3303 -0.0810
  330loPI   C6A 5276   5.838  12.101   8.226  0.0573 -0.0365  0.1805
  330loPI   C1B 5277   5.543  12.092   9.748 -0.1460 -0.1368  0.1473
  330loPI   C2B 5278   5.668  12.064   9.408  0.1939  0.2324 -0.0113
  330loPI   C3B 5279   6.017  12.141   9.196  0.0965  0.0305  0.2509
  330loPI   C4B 5280   5.946  12.134   8.695  0.0442 -0.1458 -0.1023
  331loPI    C1 5281  16.718  15.978  10.696 -0.0883  0.0152 -0.0375
  331loPI    C2 5282  17.081  16.138  10.645  0.0202 -0.1449  0.2139
  331loPI    C3 5283  16.966  16.014  11.008 -0.2378 -0.2126  0.1111
  331loPI   PO4 5284  16.532  16.144  10.583 -0.1936 -0.1224  0.2970
  331loPI   GL1 5285  16.612  16.427  10.319  0.1958  0.0763 -0.1193
  331loPI   GL2 5286  16.913  16.398  10.276  0.0032  0.0245  0.1707
  331loPI   C1A 5287  16.513  16.392   9.911  0.2038 -0.0902  0.3212
  331loPI   C2A 5288  16.496  16.235   9.489  0.0776 -0.0368  0.0433
  331loPI   C3A 5289  16.569  16.135   9.044 -0.4918 -0.1341  0.0198
  331loPI   C4A 5290  16.563  16.037   8.641 -0.0430 -0.0400 -0.0266
  331loPI   C5A 5291  16.753  16.133   8.278  0.0431 -0.5340  0.3782
  331loPI   C6A 5292  17.197  16.086   8.202  0.2537 -0.0708  0.2199
  331loPI   C1B 5293  17.202  16.508   9.884 -0.1173 -0.0154  0.1580
  331loPI   C2B 5294  17.358  16.661   9.455 -0.0759 -0.1897 -0.2007
  331loPI   C3B 5295  17.352  16.550   9.030  0.0140 -0.2057 -0.0267
  331loPI   C4B 5296  17.501  16.471   8.600  0.1011  0.1855  0.0891
  332loPI    C1 5297   2.272   7.582  10.726 -0.0812  0.1801 -0.2796
  332loPI    C2 5298   2.065   7.241  10.707  0.0606  0.0750  0.0031
  332loPI    C3 5299   1.947   7.533  10.954  0.0098  0.1834 -0.1479
  332loPI   PO4 5300   2.310   7.623  10.470 -0.3954 -0.0551 -0.2500
  332loPI   GL1 5301   2.150   7.383  10.195 -0.0548 -0.1688  0.0504
  332loPI   GL2 5302   2.068   7.098  10.194  0.2980 -0.0864 -0.0868
  332loPI   C1A 5303   2.174   7.314   9.759 -0.0992  0.1536 -0.1543
  332loPI   C2A 5304   2.259   7.191   9.315 -0.1829 -0.2100  0.2756
  332loPI   C3A 5305   2.349   7.134   8.928  0.3564 -0.4380 -0.2567
  332loPI   C4A 5306   2.339   7.379   8.413  0.0806  0.0528 -0.1364
  332loPI   C5A 5307   2.228   7.243   7.971 -0.1596 -0.1387 -0.0864
  332loPI   C6A 5308   2.176   7.108   7.490  0.2880  0.1370 -0.1252
  332loPI   C1B 5309   2.399   6.928   9.998  0.0763 -0.0449 -0.0275
  332loPI   C2B 5310   2.400   6.790   9.570  0.1655 -0.2340  0.3915
  332loPI   C3B 5311   2.246   6.691   9.255 -0.0959  0.2029  0.0096
  332loPI   C4B 5312   2.167   6.693   8.738  0.3784  0.0609  0.4378
  333loPI    C1 5313   0.428   2.301  10.669 -0.1054  0.0237 -0.0514
  333loPI    C2 5314   0.374   1.934  10.818  0.0666 -0.0429 -0.1501
  333loPI    C3 5315   0.110   2.224  10.899  0.1275 -0.0904  0.2381
  333loPI   PO4 5316   0.604   2.187  10.474  0.0535  0.4032  0.1829
  333loPI   GL1 5317   0.595   2.129  10.112  0.1182  0.0959  0.1257
  333loPI   GL2 5318   0.758   2.371  10.009  0.0373 -0.0686 -0.2725
  333loPI   C1A 5319   0.558   2.043   9.706 -0.0079 -0.0151 -0.4924
  333loPI   C2A 5320   0.542   1.980   9.216 -0.1973  0.2106  0.1154
  333loPI   C3A 5321   0.396   1.997   8.788  0.3617 -0.3687  0.2156
  333loPI   C4A 5322   0.489   1.979   8.404  0.1806 -0.1280 -0.0440
  333loPI   C5A 5323   0.315   1.924   7.964 -0.1401  0.1227 -0.1299
  333loPI   C6A 5324   0.080   1.765   7.791 -0.1209  0.2135 -0.0136
  333loPI   C1B 5325   0.759   2.454   9.584  0.0153 -0.0160 -0.2972
  333loPI   C2B 5326   0.780   2.441   9.092  0.1172 -0.0617 -0.0828
  333loPI   C3B 5327   0.636   2.448   8.657  0.1532 -0.1858  0.0262
  333loPI   C4B 5328   0.790   2.385   8.293 -0.2126  0.2631 -0.1155
  334loPI    C1 5329   9.612  17.332  10.325  0.0235  0.0574 -0.2644
  334loPI    C2 5330   9.498  17.130  10.651  0.1922  0.0066 -0.2360
  334loPI    C3 5331   9.396  17.515  10.608  0.1389  0.0035 -0.1408
  334loPI   PO4 5332   9.755  17.207  10.235  0.0169  0.1758 -0.3479
  334loPI   GL1 5333   9.775  16.892   9.892 -0.1642 -0.1674 -0.0739
  334loPI   GL2 5334   9.499  17.045   9.835 -0.0235 -0.4259 -0.0096
  334loPI   C1A 5335   9.851  16.744   9.470  0.2986  0.2325  0.1155
  334loPI   C2A 5336  10.069  16.522   9.250  0.0728  0.1354 -0.1248
  334loPI   C3A 5337  10.058  16.574   8.707  0.2971 -0.0919 -0.0716
  334loPI   C4A 5338   9.950  16.446   8.261  0.0885 -0.0687  0.2759
  334loPI   C5A 5339   9.797  16.627   7.974 -0.2793 -0.2648 -0.0614
  334loPI   C6A 5340   9.519  16.462   7.607  0.1524  0.0689  0.0715
  334loPI   C1B 5341   9.368  17.370   9.530 -0.2177  0.2292  0.0082
  334loPI   C2B 5342   9.199  17.476   9.192 -0.2284 -0.3374 -0.0565
  334loPI   C3B 5343   9.203  17.418   8.730  0.1041 -0.2658 -0.1320
  334loPI   C4B 5344   9.209  17.312   8.355  0.2354 -0.1906  0.2645
  335loPI    C1 5345   4.819   7.287  10.466 -0.2194 -0.1717 -0.0613
  335loPI    C2 5346   4.543   7.410  10.728 -0.0692 -0.0597  0.0457
  335loPI    C3 5347   4.692   7.040  10.754 -0.1182 -0.0781  0.0647
  335loPI   PO4 5348   4.695   7.339  10.174  0.1602 -0.1440  0.3029
  335loPI   GL1 5349   4.404   7.122   9.902 -0.0844 -0.2660  0.0204
  335loPI   GL2 5350   4.610   7.275   9.640 -0.2752  0.1832  0.1550
  335loPI   C1A 5351   4.386   6.837   9.586 -0.3242  0.2434 -0.2628
  335loPI   C2A 5352   4.427   6.914   9.154 -0.0375  0.0740  0.0714
  335loPI   C3A 5353   3.995   6.788   8.966 -0.1510  0.0775 -0.0572
  335loPI   C4A 5354   3.632   7.052   8.944 -0.0809 -0.2502  0.0961
  335loPI   C5A 5355   3.337   7.249   9.067 -0.0452  0.0328  0.0769
  335loPI   C6A 5356   2.831   7.267   9.060 -0.0263  0.1651 -0.2735
  335loPI   C1B 5357   4.796   7.310   9.190  0.1123 -0.1360  0.1829
  335loPI   C2B 5358   4.590   7.329   8.828 -0.1033  0.0121  0.6261
  335loPI   C3B 5359   4.682   7.236   8.373 -0.0538 -0.0224  0.0684
  335loPI   C4B 5360   4.824   7.356   7.924 -0.0942 -0.0046 -0.0808
  336loPI    C1 5361  11.847   7.528  10.020  0.0151  0.0479  0.0283
  336loPI    C2 5362  12.050   7.832   9.857 -0.0940 -0.0183 -0.2361
  336loPI    C3 5363  12.051   7.781  10.254  0.0797  0.2144 -0.2045
  336loPI   PO4 5364  11.883   7.338   9.846 -0.2221  0.2375  0.0353
  336loPI   GL1 5365  11.761   7.304   9.363 -0.3823  0.0165 -0.4517
  336loPI   GL2 5366  12.000   7.610   9.400  0.0267  0.1535 -0.1869
  336loPI   C1A 5367  11.691   7.289   8.962  0.0707 -0.0615 -0.1862
  336loPI   C2A 5368  11.819   7.205   8.627 -0.1751  0.3028 -0.1050
  336loPI   C3A 5369  12.050   7.261   8.219  0.2051 -0.1132  0.0136
  336loPI   C4A 5370  12.274   7.119   7.851 -0.3235  0.3154  0.1423
  336loPI   C5A 5371  12.135   7.213   7.415 -0.2500 -0.0735 -0.3390
  336loPI   C6A 5372  11.856   7.570   7.302 -0.3777  0.2232 -0.1829
  336loPI   C1B 5373  12.154   7.586   9.009 -0.0130  0.0097  0.0409
  336loPI   C2B 5374  12.157   7.626   8.530 -0.0193 -0.0732 -0.3644
  336loPI   C3B 5375  12.461   7.506   8.162 -0.0435 -0.0389 -0.0880
  336loPI   C4B 5376  12.714   7.180   8.181  0.0929 -0.1280  0.2005
  337loPI    C1 5377  15.177  13.750  10.799 -0.0709  0.2865 -0.3062
  337loPI    C2 5378  15.415  14.003  10.997 -0.0489  0.0352 -0.0033
  337loPI    C3 5379  15.566  13.773  10.707  0.0644 -0.0729  0.1401
  337loPI   PO4 5380  14.978  13.909  10.792 -0.0134 -0.1461 -0.4168
  337loPI   GL1 5381  15.051  14.164  10.451  0.2261  0.2126 -0.1650
  337loPI   GL2 5382  15.438  14.206  10.416 -0.0838  0.1764  0.0526
  337loPI   C1A 5383  15.094  14.118   9.928  0.0977 -0.2973  0.0752
  337loPI   C2A 5384  15.108  13.821   9.727 -0.0559  0.1308  0.0536
  337loPI   C3A 5385  15.239  13.782   9.265 -0.1383 -0.0990  0.1208
  337loPI   C4A 5386  15.266  13.782   8.799  0.1295  0.0572 -0.2388
  337loPI   C5A 5387  15.253  13.940   8.348  0.4040  0.1799 -0.1935
  337loPI   C6A 5388  15.316  14.339   8.223  0.0604 -0.1156 -0.1400
  337loPI   C1B 5389  15.572  14.387  10.046 -0.4211 -0.1597 -0.2961
  337loPI   C2B 5390  15.674  14.537   9.681  0.0541 -0.3803 -0.0741
  337loPI   C3B 5391  15.735  14.421   9.246 -0.2008  0.0417 -0.0643
  337loPI   C4B 5392  15.484  14.230   8.824  0.0062  0.1770  0.1417
  338loPI    C1 5393   4.380   7.928  10.736  0.0081  0.3847 -0.0129
  338loPI    C2 5394   4.318   8.111  11.086 -0.0460  0.0181  0.1741
  338loPI    C3 5395   4.319   7.712  11.066  0.1090  0.0331 -0.2190
  338loPI   PO4 5396   4.437   8.103  10.536 -0.2921 -0.1459 -0.1507
  338loPI   GL1 5397   4.214   8.186  10.113 -0.0110 -0.0466 -0.3389
  338loPI   GL2 5398   3.904   8.353  10.072  0.0621  0.0463 -0.2005
  338loPI   C1A 5399   4.414   8.109   9.749  0.2149 -0.1450  0.1026
  338loPI   C2A 5400   4.579   8.152   9.417 -0.0976  0.0368 -0.2491
  338loPI   C3A 5401   4.455   8.276   9.072 -0.1330  0.0327 -0.2047
  338loPI   C4A 5402   4.494   8.327   8.605  0.0476 -0.0802  0.0903
  338loPI   C5A 5403   4.430   8.095   8.202 -0.0237 -0.1461 -0.1095
  338loPI   C6A 5404   4.127   7.968   7.913 -0.2497 -0.2296  0.0254
  338loPI   C1B 5405   4.161   8.565   9.778 -0.0673  0.1634 -0.2855
  338loPI   C2B 5406   4.153   8.610   9.397 -0.0446 -0.0575  0.3832
  338loPI   C3B 5407   4.097   8.700   8.997 -0.2152 -0.4127  0.1969
  338loPI   C4B 5408   4.127   8.755   8.634  0.0059  0.0363  0.1929
  339loPI    C1 5409  14.690  14.510  10.939 -0.0729  0.1404  0.0581
  339loPI    C2 5410  15.082  14.454  10.877 -0.0742  0.2712 -0.0747
  339loPI    C3 5411  14.955  14.629  11.214 -0.0469 -0.1564  0.1646
  339loPI   PO4 5412  14.612  14.345  10.644  0.1343 -0.0888  0.3331
  339loPI   GL1 5413  14.519  14.548  10.267  0.3912  0.1319  0.1808
  339loPI   GL2 5414  14.800  14.454  10.141  0.1846  0.1589  0.1309
  339loPI   C1A 5415  14.191  14.466   9.928  0.0000  0.0547  0.0527
  339loPI   C2A 5416  14.168  14.703   9.616 -0.1080  0.3673  0.4052
  339loPI   C3A 5417  14.151  14.592   9.237 -0.0050 -0.0185  0.0001
  339loPI   C4A 5418  14.076  14.527   8.843 -0.0726  0.0851 -0.0288
  339loPI   C5A 5419  14.067  14.553   8.461  0.0910 -0.2567  0.3880
  339loPI   C6A 5420  14.292  14.380   8.143 -0.0180 -0.2344 -0.0947
  339loPI   C1B 5421  14.698  14.581   9.681 -0.0080 -0.0131 -0.0975
  339loPI   C2B 5422  14.732  14.639   9.362  0.0428 -0.3440 -0.3909
  339loPI   C3B 5423  14.636  14.620   8.958 -0.0916 -0.0899 -0.1526
  339loPI   C4B 5424  14.548  14.715   8.505  0.1884  0.0629  0.1130
  340loPI    C1 5425   1.082   1.734  10.643  0.1377 -0.1451  0.0364
  340loPI    C2 5426   0.908   2.033  10.845 -0.1817 -0.2905 -0.0170
  340loPI    C3 5427   1.083   1.732  11.043  0.0166 -0.1417  0.0371
  340loPI   PO4 5428   1.008   1.849  10.355 -0.2616  0.1030  0.1927
  340loPI   GL1 5429   0.763   1.696  10.002  0.0436 -0.0438 -0.1464
  340loPI   GL2 5430   1.080   1.609   9.876  0.0536  0.3199 -0.1196
  340loPI   C1A 5431   0.638   1.539   9.580  0.0425  0.2282  0.3337
  340loPI   C2A 5432   0.689   1.491   9.091  0.2718  0.0354  0.1657
  340loPI   C3A 5433   0.729   1.467   8.714  0.2590  0.2039 -0.2201
  340loPI   C4A 5434   0.510   1.483   8.280  0.0631 -0.1813 -0.0892
  340loPI   C5A 5435   0.351   1.365   8.049  0.1965 -0.1019  0.4032
  340loPI   C6A 5436   0.237   0.980   7.859  0.3193 -0.2796 -0.3358
  340loPI   C1B 5437   1.252   1.556   9.576 -0.0069 -0.0732  0.3461
  340loPI   C2B 5438   1.185   1.526   9.050 -0.1875  0.0261  0.1190
  340loPI   C3B 5439   1.227   1.355   8.668 -0.0113 -0.0830 -0.0496
  340loPI   C4B 5440   0.998   1.298   8.224 -0.1245  0.0341  0.1349
  341loPI    C1 5441  14.083   1.661  10.435 -0.1807  0.1309  0.1165
  341loPI    C2 5442  14.402   1.425  10.483 -0.2914 -0.0828 -0.1687
  341loPI    C3 5443  14.425   1.813  10.575 -0.0350 -0.1528  0.0766
  341loPI   PO4 5444  14.010   1.604  10.251  0.1242 -0.4968  0.0616
  341loPI   GL1 5445  14.154   1.557   9.885  0.1954 -0.1319 -0.0636
  341loPI   GL2 5446  13.955   1.732   9.662 -0.0251 -0.0772  0.3430
  341loPI   C1A 5447  14.309   1.430   9.449  0.1996 -0.1926 -0.2338
  341loPI   C2A 5448  14.353   1.496   9.064 -0.4079  0.0943  0.0527
  341loPI   C3A 5449  14.348   1.549   8.624 -0.1964 -0.0329 -0.1248
  341loPI   C4A 5450  14.286   1.608   8.185 -0.0788 -0.0830 -0.2526
  341loPI   C5A 5451  14.370   1.325   7.818 -0.0645 -0.0205  0.2495
  341loPI   C6A 5452  14.285   0.959   7.624 -0.1661  0.2743  0.0229
  341loPI   C1B 5453  13.846   1.570   9.214  0.1467 -0.2978 -0.1775
  341loPI   C2B 5454  13.820   1.498   8.785  0.0689 -0.0666  0.0796
  341loPI   C3B 5455  13.819   1.506   8.400 -0.1593  0.0671 -0.0228
  341loPI   C4B 5456  13.802   1.617   7.983  0.0796 -0.1783  0.1667
  342loPI    C1 5457  17.082   0.408  10.805 -0.1643 -0.2197 -0.0127
  342loPI    C2 5458  16.731   0.389  10.996 -0.1308 -0.0385  0.0693
  342loPI    C3 5459  16.938   0.732  10.990  0.0022 -0.1195 -0.0553
  342loPI   PO4 5460  17.089   0.307  10.637 -0.1228 -0.0397 -0.1515
  342loPI   GL1 5461  17.293   0.127  10.328 -0.0035  0.1381  0.0677
  342loPI   GL2 5462  17.225   0.384  10.167 -0.0035 -0.0397 -0.2256
  342loPI   C1A 5463  17.544   0.072   9.906  0.2618  0.0506  0.0309
  342loPI   C2A 5464  17.511  -0.130   9.473  0.1851  0.1302 -0.0676
  342loPI   C3A 5465  17.527  -0.130   9.039 -0.0469  0.3824  0.0145
  342loPI   C4A 5466  17.406  -0.229   8.632 -0.1601 -0.0403  0.3745
  342loPI   C5A 5467  17.470  -0.273   8.151  0.1645  0.0989  0.1246
  342loPI   C6A 5468  17.616  -0.699   7.881 -0.2497  0.0262  0.1005
  342loPI   C1B 5469  17.189   0.382   9.663 -0.2407 -0.1030 -0.3244
  342loPI   C2B 5470  17.265   0.317   9.212 -0.2125 -0.2191  0.1486
  342loPI   C3B 5471  17.318   0.258   8.813 -0.0091  0.0742 -0.0287
  342loPI   C4B 5472  17.241   0.150   8.336 -0.1478 -0.0434 -0.1739
  343loPI    C1 5473   3.245   5.894  10.691  0.0951  0.0782 -0.1960
  343loPI    C2 5474   3.016   5.705  10.422 -0.1031 -0.0654  0.0688
  343loPI    C3 5475   2.858   5.826  10.770  0.1695  0.0453  0.1565
  343loPI   PO4 5476   3.461   5.810  10.636 -0.0338  0.1807 -0.0561
  343loPI   GL1 5477   3.482   5.695  10.167 -0.3224 -0.0080 -0.0774
  343loPI   GL2 5478   3.314   5.395  10.028 -0.3111  0.1214 -0.0252
  343loPI   C1A 5479   3.633   5.818   9.764 -0.3121  0.0239  0.0653
  343loPI   C2A 5480   3.950   5.574   9.376 -0.3000 -0.0950  0.0901
  343loPI   C3A 5481   3.941   5.757   9.017  0.1950  0.0098  0.1159
  343loPI   C4A 5482   3.841   5.542   8.702 -0.1037  0.2123  0.2683
  343loPI   C5A 5483   3.794   5.435   8.274  0.0174 -0.1167  0.1632
  343loPI   C6A 5484   3.899   5.615   7.859  0.2667 -0.0243  0.1486
  343loPI   C1B 5485   3.295   5.491   9.654  0.0444  0.0518 -0.2978
  343loPI   C2B 5486   3.338   5.466   9.217  0.1513  0.1686  0.0239
  343loPI   C3B 5487   3.347   5.598   8.856  0.1435  0.0533  0.1514
  343loPI   C4B 5488   3.303   5.685   8.397 -0.0680 -0.2120  0.0269
  344loPI    C1 5489   2.915  17.895  10.700  0.0950  0.1007  0.1614
  344loPI    C2 5490   3.279  17.817  10.847  0.1761 -0.0183 -0.0965
  344loPI    C3 5491   3.130  18.188  10.868  0.2372 -0.0067  0.1688
  344loPI   PO4 5492   2.831  17.840  10.439  0.2374  0.1924  0.1073
  344loPI   GL1 5493   3.048  17.674  10.035 -0.0211  0.2658 -0.2894
  344loPI   GL2 5494   3.056  17.419   9.871 -0.0803 -0.0956 -0.1070
  344loPI   C1A 5495   3.132  17.855   9.663  0.1391 -0.0755 -0.0732
  344loPI   C2A 5496   3.167  17.843   9.241  0.0518 -0.0292 -0.2235
  344loPI   C3A 5497   3.306  17.587   8.879  0.0063  0.3601  0.2635
  344loPI   C4A 5498   3.500  17.346   8.589  0.0675  0.1450 -0.0246
  344loPI   C5A 5499   3.753  17.203   8.235  0.0775 -0.0312 -0.0509
  344loPI   C6A 5500   4.065  17.161   7.883 -0.1030 -0.2129  0.2848
  344loPI   C1B 5501   3.246  17.409   9.511 -0.0310 -0.2789  0.0061
  344loPI   C2B 5502   3.604  17.495   9.281  0.0821  0.1769  0.2434
  344loPI   C3B 5503   3.826  17.542   8.883 -0.1807 -0.1197 -0.0729
  344loPI   C4B 5504   4.037  17.661   8.524 -0.3238  0.0850 -0.1394
  345loPI    C1 5505   9.664  13.017  10.821 -0.0518 -0.0974  0.0160
  345loPI    C2 5506   9.406  12.751  10.670 -0.0525 -0.0901  0.0045
  345loPI    C3 5507   9.416  12.818  11.064 -0.0295 -0.1315  0.0110
  345loPI   PO4 5508   9.778  13.027  10.565 -0.0318  0.2167 -0.2214
  345loPI   GL1 5509   9.633  13.182  10.167  0.2360 -0.2799 -0.1953
  345loPI   GL2 5510   9.661  12.781  10.086  0.0847 -0.2834 -0.1457
  345loPI   C1A 5511   9.468  13.363   9.737  0.2257  0.0054  0.1784
  345loPI   C2A 5512   9.433  13.211   9.245 -0.2515 -0.1756 -0.1146
  345loPI   C3A 5513   9.471  13.256   8.793 -0.0295  0.2459 -0.0173
  345loPI   C4A 5514   9.465  13.275   8.302 -0.1871 -0.2696 -0.3786
  345loPI   C5A 5515   9.557  13.654   8.128  0.1376  0.2679 -0.0884
  345loPI   C6A 5516   9.794  13.714   7.731  0.0985  0.5284  0.2046
  345loPI   C1B 5517   9.726  12.900   9.612 -0.0851 -0.0723  0.0392
  345loPI   C2B 5518   9.749  12.799   9.160  0.4661  0.0353  0.1332
  345loPI   C3B 5519   9.784  12.874   8.711 -0.0116 -0.0774 -0.2865
  345loPI   C4B 5520   9.881  12.888   8.177 -0.0349  0.0244  0.0643
  346loPI    C1 5521  15.907   1.556  10.639  0.2057  0.0231  0.0244
  346loPI    C2 5522  15.780   1.895  10.808 -0.0827  0.0382 -0.2164
  346loPI    C3 5523  15.587   1.552  10.879  0.1307 -0.0542 -0.0759
  346loPI   PO4 5524  16.090   1.679  10.486 -0.0950  0.1315 -0.0360
  346loPI   GL1 5525  16.008   1.844  10.056  0.3305  0.0524 -0.0033
  346loPI   GL2 5526  16.210   1.607   9.990 -0.0264 -0.0983  0.0948
  346loPI   C1A 5527  16.085   1.849   9.568 -0.2263  0.0627  0.1498
  346loPI   C2A 5528  16.134   1.727   9.127  0.1130 -0.1683 -0.0231
  346loPI   C3A 5529  16.202   1.728   8.705  0.4682  0.2131 -0.0213
  346loPI   C4A 5530  16.080   1.662   8.303 -0.3850  0.2198 -0.0257
  346loPI   C5A 5531  16.018   1.428   7.965  0.1295  0.0396 -0.1281
  346loPI   C6A 5532  15.850   1.487   7.595 -0.1567  0.0806 -0.0495
  346loPI   C1B 5533  16.274   1.316   9.622  0.1082  0.0542  0.5210
  346loPI   C2B 5534  16.319   1.268   9.200 -0.0773 -0.0011 -0.0949
  346loPI   C3B 5535  16.424   1.238   8.732  0.2876  0.2284  0.1588
  346loPI   C4B 5536  16.338   1.155   8.240  0.1112 -0.0701  0.1010
  347loPI    C1 5537  17.998  17.048  11.018  0.2244  0.0969  0.0200
  347loPI    C2 5538  18.198  17.394  11.003 -0.0932  0.2767 -0.1928
  347loPI    C3 5539  17.909  17.341  11.275  0.1305  0.0768  0.0111
  347loPI   PO4 5540  18.060  16.934  10.752  0.1360  0.0444  0.1552
  347loPI   GL1 5541  17.958  16.774  10.295 -0.2265  0.2018  0.0011
  347loPI   GL2 5542  18.035  17.035  10.250  0.1631  0.2431 -0.0456
  347loPI   C1A 5543  18.167  16.652   9.925  0.0152  0.3692  0.1231
  347loPI   C2A 5544  18.385  16.546   9.595  0.0334  0.1875 -0.0662
  347loPI   C3A 5545  18.347  16.436   9.183  0.0176 -0.0666 -0.1958
  347loPI   C4A 5546  18.432  16.499   8.769  0.1145  0.1271 -0.0453
  347loPI   C5A 5547  18.417  16.563   8.524 -0.2717 -0.0660  0.1348
  347loPI   C6A 5548  18.572  16.667   8.053  0.2084  0.1278 -0.1365
  347loPI   C1B 5549  18.086  17.083   9.793 -0.0695 -0.1238  0.0465
  347loPI   C2B 5550  18.132  16.963   9.333 -0.2640  0.0069 -0.1419
  347loPI   C3B 5551  18.149  16.984   8.845 -0.0762  0.1196  0.2650
  347loPI   C4B 5552  18.229  17.038   8.340 -0.1839  0.2884  0.3270
  348loPI    C1 5553   1.393   5.346  10.916 -0.0289  0.1302  0.0309
  348loPI    C2 5554   1.024   5.193  10.885  0.0302 -0.0364  0.1365
  348loPI    C3 5555   1.090   5.513  11.117 -0.1120  0.2146 -0.1619
  348loPI   PO4 5556   1.469   5.425  10.649  0.2145  0.1956  0.4107
  348loPI   GL1 5557   1.408   5.525  10.104  0.2822  0.1456 -0.0338
  348loPI   GL2 5558   1.377   5.764  10.037 -0.1891 -0.0272 -0.3518
  348loPI   C1A 5559   1.649   5.356   9.796  0.2752  0.3500  0.0578
  348loPI   C2A 5560   1.938   5.424   9.374 -0.0531  0.1588 -0.1501
  348loPI   C3A 5561   2.094   5.326   9.011 -0.4915  0.1774 -0.2593
  348loPI   C4A 5562   2.142   5.382   8.543 -0.4173 -0.1483  0.2315
  348loPI   C5A 5563   2.098   5.385   8.108 -0.0796  0.1223 -0.0105
  348loPI   C6A 5564   2.260   5.336   7.695 -0.1368 -0.2452  0.0273
  348loPI   C1B 5565   1.239   6.032   9.784 -0.2794  0.0528 -0.1369
  348loPI   C2B 5566   1.335   6.149   9.275 -0.0291  0.0373  0.0239
  348loPI   C3B 5567   1.523   6.088   8.916  0.0844  0.0297  0.0156
  348loPI   C4B 5568   1.482   6.235   8.484 -0.0225  0.2911 -0.1001
  349loPI    C1 5569  15.316   2.399  10.696  0.0263  0.2817  0.2514
  349loPI    C2 5570  15.297   2.012  10.794 -0.0294  0.1933 -0.0938
  349loPI    C3 5571  15.113   2.285  11.021  0.0687  0.0276  0.1915
  349loPI   PO4 5572  15.275   2.405  10.370 -0.1846  0.0828 -0.2760
  349loPI   GL1 5573  15.374   2.390  10.007  0.1539  0.1811  0.0322
  349loPI   GL2 5574  15.768   2.290   9.969 -0.0142 -0.5014  0.4865
  349loPI   C1A 5575  15.319   2.535   9.482  0.0352 -0.1022  0.1580
  349loPI   C2A 5576  15.182   2.778   9.133 -0.3423  0.1364 -0.0794
  349loPI   C3A 5577  15.282   2.745   8.726  0.1102  0.0418  0.0059
  349loPI   C4A 5578  15.530   2.773   8.343  0.1363 -0.2488 -0.2064
  349loPI   C5A 5579  15.492   2.806   7.890 -0.1190 -0.0358  0.0712
  349loPI   C6A 5580  15.430   2.496   7.667  0.0207 -0.1143  0.1176
  349loPI   C1B 5581  15.717   2.186   9.450 -0.1585  0.3132  0.1397
  349loPI   C2B 5582  15.556   1.827   9.148 -0.3150 -0.0782 -0.0898
  349loPI   C3B 5583  15.716   1.823   8.740  0.1213 -0.2004  0.1925
  349loPI   C4B 5584  15.817   2.051   8.394  0.0061 -0.2201  0.0422
  350loPI    C1 5585   5.748   1.277  10.520 -0.0264  0.1104  0.0078
  350loPI    C2 5586   5.548   1.418  10.836  0.2249  0.2508  0.1071
  350loPI    C3 5587   5.930   1.305  10.875  0.2420  0.2203 -0.1353
  350loPI   PO4 5588   5.561   1.107  10.378 -0.1151 -0.2733  0.2372
  350loPI   GL1 5589   5.720   1.050   9.908 -0.2811 -0.0011  0.1290
  350loPI   GL2 5590   5.419   0.897   9.728  0.0021 -0.0681 -0.3641
  350loPI   C1A 5591   5.781   1.077   9.435 -0.2335 -0.1049  0.2807
  350loPI   C2A 5592   5.815   1.148   8.995 -0.3454  0.1569 -0.0769
  350loPI   C3A 5593   5.954   1.161   8.534 -0.0451  0.1624 -0.1801
  350loPI   C4A 5594   5.894   1.424   8.180 -0.1985  0.4351  0.3325
  350loPI   C5A 5595   5.872   1.794   7.959 -0.1864  0.0209  0.0782
  350loPI   C6A 5596   5.636   2.156   7.926  0.0816  0.2121  0.1031
  350loPI   C1B 5597   5.365   0.837   9.347  0.0037  0.0320 -0.1847
  350loPI   C2B 5598   5.400   0.814   8.930  0.1887  0.2660  0.1982
  350loPI   C3B 5599   5.518   0.804   8.501 -0.1617 -0.1816 -0.0050
  350loPI   C4B 5600   5.465   0.550   8.151 -0.1697 -0.0058  0.1415
  351loPI    C1 5601   6.024  16.571  10.089 -0.0825  0.0733  0.0887
  351loPI    C2 5602   6.128  16.832  10.373  0.1581  0.0243  0.0475
  351loPI    C3 5603   6.382  16.749  10.075 -0.0810  0.0539 -0.1677
  351loPI   PO4 5604   5.817  16.572   9.947  0.1456 -0.1496  0.2043
  351loPI   GL1 5605   5.451  16.546   9.656 -0.0277  0.1619  0.0516
  351loPI   GL2 5606   5.697  16.173   9.609 -0.2022  0.1469 -0.1086
  351loPI   C1A 5607   5.209  16.431   9.298 -0.0281 -0.0360 -0.0656
  351loPI   C2A 5608   5.424  16.340   8.916 -0.0284 -0.0696  0.1157
  351loPI   C3A 5609   5.601  16.211   8.498 -0.1690 -0.2421 -0.1545
  351loPI   C4A 5610   5.560  15.992   8.147 -0.1844 -0.1024  0.1902
  351loPI   C5A 5611   5.636  16.257   7.759  0.1282 -0.1339 -0.0121
  351loPI   C6A 5612   5.609  16.101   7.342  0.1239 -0.1983 -0.1023
  351loPI   C1B 5613   5.735  16.324   9.272  0.0198 -0.0869  0.1296
  351loPI   C2B 5614   5.953  16.293   8.860  0.0262  0.1753 -0.1077
  351loPI   C3B 5615   6.025  15.997   8.431  0.4138 -0.2325  0.0645
  351loPI   C4B 5616   5.908  15.603   8.198  0.2529 -0.0336  0.0174
  352loPI    C1 5617   6.403   3.468  10.281 -0.0564 -0.2857 -0.0370
  352loPI    C2 5618   6.693   3.489  10.556 -0.1543  0.2021  0.0397
  352loPI    C3 5619   6.335   3.338  10.653 -0.1567  0.2798  0.1526
  352loPI   PO4 5620   6.572   3.358  10.064  0.1756  0.1743 -0.1411
  352loPI   GL1 5621   6.494   3.334   9.632 -0.0226  0.0545  0.0173
  352loPI   GL2 5622   6.172   3.506   9.633  0.1592 -0.0999 -0.2481
  352loPI   C1A 5623   6.379   3.408   9.180 -0.0764 -0.0748  0.0242
  352loPI   C2A 5624   6.123   3.656   8.919 -0.0537  0.2080  0.3135
  352loPI   C3A 5625   6.177   3.889   8.509 -0.0470 -0.0884 -0.0996
  352loPI   C4A 5626   6.111   3.972   8.106 -0.1597  0.1356 -0.0155
  352loPI   C5A 5627   5.697   4.046   7.908  0.0271  0.2640  0.0712
  352loPI   C6A 5628   5.325   4.231   7.817 -0.0251 -0.1769 -0.0375
  352loPI   C1B 5629   6.149   3.076   9.438  0.3030 -0.0970 -0.0187
  352loPI   C2B 5630   6.039   3.117   8.974 -0.4399 -0.1623 -0.1088
  352loPI   C3B 5631   6.202   3.368   8.520 -0.1172 -0.0677 -0.1181
  352loPI   C4B 5632   6.146   3.415   8.088  0.0513  0.1562 -0.4327
  353loPI    C1 5633  16.936   5.511  10.531 -0.0658 -0.2119 -0.2473
  353loPI    C2 5634  16.765   5.272  10.802 -0.0732  0.0442 -0.0215
  353loPI    C3 5635  17.163   5.272  10.757 -0.0854 -0.1307 -0.1406
  353loPI   PO4 5636  16.723   5.560  10.363 -0.1458  0.0592 -0.1287
  353loPI   GL1 5637  16.754   5.306   9.983  0.0920  0.1041 -0.2844
  353loPI   GL2 5638  16.477   5.087   9.817  0.2270  0.0692  0.1228
  353loPI   C1A 5639  16.811   5.362   9.497  0.1118 -0.0446 -0.1691
  353loPI   C2A 5640  16.656   5.323   9.088  0.1075 -0.1687  0.1898
  353loPI   C3A 5641  16.615   5.306   8.615 -0.0569  0.1818 -0.0437
  353loPI   C4A 5642  16.622   5.422   8.135  0.1015 -0.0508  0.0954
  353loPI   C5A 5643  16.583   5.680   7.731 -0.0623 -0.0413  0.0756
  353loPI   C6A 5644  16.231   6.014   7.669  0.1975 -0.1967 -0.0494
  353loPI   C1B 5645  16.532   4.908   9.362 -0.1243 -0.1538 -0.1899
  353loPI   C2B 5646  16.489   4.871   8.856 -0.0224 -0.0028  0.0062
  353loPI   C3B 5647  16.512   4.836   8.408  0.0800 -0.1113 -0.2018
  353loPI   C4B 5648  16.960   5.040   8.163 -0.2017 -0.0184  0.0359
  354loPI    C1 5649   1.421   3.759  10.484 -0.1581 -0.2502 -0.1556
  354loPI    C2 5650   1.725   3.750  10.744 -0.1078  0.1704 -0.1922
  354loPI    C3 5651   1.441   3.468  10.758  0.1241 -0.0577  0.0338
  354loPI   PO4 5652   1.523   3.788  10.196  0.2822  0.0536  0.0866
  354loPI   GL1 5653   1.274   3.788   9.918  0.0437  0.1104  0.0439
  354loPI   GL2 5654   0.970   3.950   9.953  0.0833 -0.1660  0.1531
  354loPI   C1A 5655   1.567   3.677   9.609  0.0159 -0.0384  0.0523
  354loPI   C2A 5656   1.790   3.590   9.245  0.0267  0.0793 -0.1064
  354loPI   C3A 5657   1.805   3.562   8.838  0.1607 -0.3019 -0.2885
  354loPI   C4A 5658   1.597   3.391   8.531 -0.0078  0.2559 -0.0575
  354loPI   C5A 5659   1.504   3.366   8.067  0.1126  0.0821 -0.1284
  354loPI   C6A 5660   1.391   3.816   7.943  0.1073  0.1429  0.0404
  354loPI   C1B 5661   1.118   3.976   9.473  0.0409 -0.0581 -0.0947
  354loPI   C2B 5662   1.460   4.001   9.250 -0.0629  0.1831  0.1335
  354loPI   C3B 5663   1.522   3.973   8.855 -0.0872  0.1506 -0.2892
  354loPI   C4B 5664   1.351   3.884   8.482 -0.3694  0.2127 -0.2210
  355loPI    C1 5665   9.433   2.999   9.999 -0.0035  0.0202 -0.0498
  355loPI    C2 5666   9.412   3.100  10.385 -0.1973 -0.1793 -0.0060
  355loPI    C3 5667   9.725   3.216  10.165 -0.0647 -0.0999  0.2205
  355loPI   PO4 5668   9.290   3.069   9.867 -0.1891  0.0152  0.1310
  355loPI   GL1 5669   9.314   3.040   9.473 -0.4150 -0.2676 -0.1533
  355loPI   GL2 5670   9.544   2.877   9.361 -0.0395  0.0348 -0.1628
  355loPI   C1A 5671   9.230   2.960   8.981  0.3089  0.2874 -0.1861
  355loPI   C2A 5672   8.982   3.016   8.616  0.2100 -0.1820  0.0183
  355loPI   C3A 5673   9.028   2.926   8.173 -0.1019 -0.1210 -0.1864
  355loPI   C4A 5674   8.671   3.035   7.970 -0.1195  0.1950  0.3790
  355loPI   C5A 5675   8.532   3.469   8.036 -0.0864 -0.0219  0.1264
  355loPI   C6A 5676   8.489   3.812   8.221 -0.0187 -0.0129 -0.0681
  355loPI   C1B 5677   9.726   2.992   8.957  0.0803  0.1185 -0.1217
  355loPI   C2B 5678   9.857   3.268   8.646 -0.2082 -0.0024 -0.1709
  355loPI   C3B 5679  10.128   3.271   8.166  0.0385 -0.0132 -0.2557
  355loPI   C4B 5680  10.110   3.476   7.755  0.0079 -0.2925  0.2379
  356loPI    C1 5681   2.965  10.755  10.945 -0.0722 -0.1395 -0.1465
  356loPI    C2 5682   3.021  10.382  11.080  0.1715 -0.0107  0.1181
  356loPI    C3 5683   2.863  10.661  11.320  0.0757  0.0811 -0.0493
  356loPI   PO4 5684   2.865  10.740  10.696 -0.2687  0.1634 -0.0800
  356loPI   GL1 5685   2.544  10.807  10.387 -0.0120 -0.0580  0.0464
  356loPI   GL2 5686   2.207  10.716  10.390  0.2557 -0.0489 -0.0180
  356loPI   C1A 5687   2.597  10.745   9.865  0.0835 -0.0636 -0.2440
  356loPI   C2A 5688   2.498  10.783   9.438 -0.0509  0.3318 -0.1559
  356loPI   C3A 5689   2.558  10.899   9.016  0.0170  0.1787  0.2200
  356loPI   C4A 5690   2.506  10.870   8.517  0.3405 -0.0158 -0.0060
  356loPI   C5A 5691   2.213  10.855   8.202 -0.1748  0.2180 -0.1639
  356loPI   C6A 5692   1.801  10.589   8.106  0.1607 -0.0996  0.0284
  356loPI   C1B 5693   2.101  10.598  10.026  0.2752 -0.1506 -0.5424
  356loPI   C2B 5694   2.010  10.778   9.658  0.1388  0.5065 -0.0413
  356loPI   C3B 5695   1.997  10.752   9.199 -0.1768 -0.2161 -0.0793
  356loPI   C4B 5696   2.098  10.814   8.753  0.1632 -0.1937  0.1108
  357loPI    C1 5697   8.616   7.895  10.544  0.2786 -0.0293  0.2393
  357loPI    C2 5698   8.514   7.560  10.738  0.0069 -0.0848  0.0072
  357loPI    C3 5699   8.410   7.917  10.886  0.0327 -0.1154  0.0993
  357loPI   PO4 5700   8.485   7.818  10.286 -0.0207  0.0723 -0.2771
  357loPI   GL1 5701   8.400   7.965   9.812 -0.1004 -0.1773  0.0690
  357loPI   GL2 5702   8.742   7.898   9.512 -0.1037 -0.0330 -0.1936
  357loPI   C1A 5703   8.442   8.287   9.361 -0.1541  0.0873 -0.0025
  357loPI   C2A 5704   8.568   8.411   8.916  0.0409  0.1418 -0.0863
  357loPI   C3A 5705   8.661   8.225   8.621 -0.0926  0.0276  0.1229
  357loPI   C4A 5706   8.649   7.881   8.371 -0.1753  0.0448 -0.0055
  357loPI   C5A 5707   8.604   7.519   8.123 -0.0148 -0.0774 -0.4183
  357loPI   C6A 5708   8.480   7.193   8.213 -0.0449 -0.1644  0.0188
  357loPI   C1B 5709   8.757   7.959   9.125  0.1576 -0.2024  0.2150
  357loPI   C2B 5710   8.482   7.830   8.894  0.0999 -0.0576 -0.0178
  357loPI   C3B 5711   8.233   7.622   8.630 -0.4476 -0.0188 -0.1245
  357loPI   C4B 5712   7.917   7.463   8.446 -0.0756 -0.1644 -0.1122
  358loPI    C1 5713  17.945  17.918  10.456 -0.0482  0.0569 -0.1741
  358loPI    C2 5714  18.040  17.929  10.845 -0.1185 -0.2426 -0.1457
  358loPI    C3 5715  18.070  18.260  10.622 -0.1161 -0.0589  0.1229
  358loPI   PO4 5716  17.746  17.779  10.496 -0.1117  0.1233 -0.0761
  358loPI   GL1 5717  17.505  17.561  10.204  0.0920  0.0989  0.4085
  358loPI   GL2 5718  17.579  17.266  10.131 -0.1348 -0.2528  0.1273
  358loPI   C1A 5719  17.407  17.531   9.711 -0.2432 -0.0917 -0.3612
  358loPI   C2A 5720  17.398  17.436   9.277  0.0578 -0.0545  0.1414
  358loPI   C3A 5721  17.423  17.479   8.901  0.3194 -0.2893  0.2707
  358loPI   C4A 5722  17.327  17.422   8.498 -0.1588  0.0555 -0.1163
  358loPI   C5A 5723  17.172  17.019   8.375  0.0356  0.0608 -0.0993
  358loPI   C6A 5724  16.986  16.583   8.250  0.1052 -0.0828 -0.2548
  358loPI   C1B 5725  17.651  17.085   9.673  0.0724  0.3129 -0.0642
  358loPI   C2B 5726  17.614  16.969   9.189 -0.2278  0.0097 -0.2941
  358loPI   C3B 5727  17.675  17.014   8.664  0.0858  0.1023 -0.1748
  358loPI   C4B 5728  17.653  16.826   8.232 -0.2893 -0.0512 -0.0024
  359loPI    C1 5729   5.691  15.340  10.617  0.1051 -0.2207 -0.0655
  359loPI    C2 5730   5.792  15.035  10.856 -0.1462 -0.1941  0.0782
  359loPI    C3 5731   5.693  15.389  11.014  0.1689 -0.0269 -0.0887
  359loPI   PO4 5732   5.547  15.257  10.465  0.2664  0.2656  0.0162
  359loPI   GL1 5733   5.660  15.181  10.001 -0.1749  0.0292  0.0277
  359loPI   GL2 5734   5.833  14.908   9.891  0.0579  0.0049 -0.1313
  359loPI   C1A 5735   5.440  15.203   9.606 -0.3332  0.1332 -0.5996
  359loPI   C2A 5736   5.347  15.261   9.267 -0.1535  0.0709 -0.1145
  359loPI   C3A 5737   5.233  15.427   8.892  0.1911  0.2225 -0.0963
  359loPI   C4A 5738   5.331  15.514   8.374 -0.1534  0.0629 -0.1148
  359loPI   C5A 5739   5.372  15.481   7.971 -0.0576 -0.1581  0.1131
  359loPI   C6A 5740   5.581  15.544   7.620  0.2001  0.1457  0.0433
  359loPI   C1B 5741   5.733  14.758   9.508 -0.1066  0.1385 -0.2184
  359loPI   C2B 5742   5.767  14.648   9.093  0.1752 -0.2625 -0.0419
  359loPI   C3B 5743   5.916  14.738   8.648 -0.1422  0.0273 -0.5478
  359loPI   C4B 5744   5.919  14.677   8.192  0.2739 -0.0487  0.5191
  360loPI    C1 5745   0.254   0.207  11.013 -0.2286 -0.0715  0.1350
  360loPI    C2 5746   0.484  -0.097  11.131  0.1109  0.1486  0.0544
  360loPI    C3 5747   0.090  -0.108  11.196  0.1712 -0.1297  0.4050
  360loPI   PO4 5748   0.382   0.241  10.763  0.0323 -0.1372 -0.0113
  360loPI   GL1 5749   0.378   0.170  10.323  0.1095 -0.3218 -0.0786
  360loPI   GL2 5750   0.751   0.203  10.284 -0.2155 -0.0092  0.2465
  360loPI   C1A 5751   0.136   0.355  10.035 -0.1964 -0.0636 -0.0021
  360loPI   C2A 5752  -0.135   0.369   9.610 -0.0557 -0.1683  0.1036
  360loPI   C3A 5753  -0.281   0.204   9.202  0.1865 -0.0322 -0.2634
  360loPI   C4A 5754  -0.306   0.186   8.759  0.0554  0.1203  0.2682
  360loPI   C5A 5755  -0.297   0.238   8.334  0.1310 -0.0368 -0.0797
  360loPI   C6A 5756  -0.226   0.120   7.916 -0.0411 -0.1997 -0.2808
  360loPI   C1B 5757   0.537   0.021   9.864 -0.2614 -0.0104  0.1020
  360loPI   C2B 5758   0.460  -0.196   9.559  0.1601  0.3006  0.2331
  360loPI   C3B 5759   0.392  -0.263   9.125  0.0916  0.0731  0.2538
  360loPI   C4B 5760   0.392  -0.300   8.696 -0.0164  0.3524  0.0334
  361loPI    C1 5761   3.999  16.890  10.397  0.1420  0.0099  0.0886
  361loPI    C2 5762   3.678  17.129  10.391 -0.0210 -0.2078  0.0177
  361loPI    C3 5763   3.908  17.111  10.718 -0.0897 -0.0625  0.0747
  361loPI   PO4 5764   4.083  16.823  10.127  0.2183  0.2682 -0.1027
  361loPI   GL1 5765   4.293  16.784   9.860  0.0123  0.3403  0.2672
  361loPI   GL2 5766   4.111  16.565   9.591 -0.1076 -0.1787 -0.2061
  361loPI   C1A 5767   4.447  16.905   9.489  0.0775 -0.0852  0.1509
  361loPI   C2A 5768   4.307  16.788   9.130 -0.0698 -0.1135  0.0208
  361loPI   C3A 5769   4.270  16.687   8.757  0.2006  0.1107 -0.1538
  361loPI   C4A 5770   4.377  16.796   8.376 -0.2620 -0.2364  0.1225
  361loPI   C5A 5771   4.109  16.729   8.088 -0.0517 -0.2522 -0.0328
  361loPI   C6A 5772   3.625  16.652   8.048  0.0897 -0.0028  0.0725
  361loPI   C1B 5773   4.037  16.362   9.166 -0.1467  0.0115  0.0058
  361loPI   C2B 5774   4.055  16.243   8.778  0.1016 -0.1387  0.0389
  361loPI   C3B 5775   4.023  16.329   8.389 -0.0372 -0.1036  0.2343
  361loPI   C4B 5776   4.144  16.269   7.943 -0.0067 -0.0167  0.0621
  362loPI    C1 5777  10.756  16.952  10.235 -0.2507 -0.0615 -0.0542
  362loPI    C2 5778  11.138  17.048  10.168 -0.2000 -0.2450 -0.0339
  362loPI    C3 5779  11.036  16.860  10.506 -0.3082 -0.1979 -0.0401
  362loPI   PO4 5780  10.691  16.779   9.996  0.0375 -0.0652  0.0588
  362loPI   GL1 5781  10.838  16.697   9.608  0.1535  0.1682 -0.0003
  362loPI   GL2 5782  10.877  17.062   9.645  0.2270  0.1277 -0.3135
  362loPI   C1A 5783  10.528  16.601   9.333 -0.1117 -0.3014 -0.2455
  362loPI   C2A 5784  10.461  16.675   8.952 -0.1268  0.0927 -0.3227
  362loPI   C3A 5785  10.564  16.523   8.601  0.1145  0.0390 -0.0397
  362loPI   C4A 5786  10.502  16.667   8.240  0.2168 -0.1493 -0.1755
  362loPI   C5A 5787  10.333  16.442   7.926 -0.0503  0.1725  0.1011
  362loPI   C6A 5788  10.038  16.293   7.684 -0.1829 -0.0422  0.1753
  362loPI   C1B 5789  10.868  17.360   9.390 -0.1027 -0.1713  0.0626
  362loPI   C2B 5790  10.947  17.590   9.072 -0.1500 -0.0084 -0.1524
  362loPI   C3B 5791  11.031  17.448   8.727 -0.0822 -0.0084 -0.0276
  362loPI   C4B 5792  11.058  17.329   8.250  0.1497  0.0375  0.0426
  363loPI    C1 5793  14.583  12.875  10.819 -0.0670 -0.0103  0.1556
  363loPI    C2 5794  14.790  12.534  10.796 -0.1000 -0.0313  0.1686
  363loPI    C3 5795  14.825  12.767  11.119  0.2159  0.1677 -0.0038
  363loPI   PO4 5796  14.342  12.762  10.795  0.0881  0.5089  0.2474
  363loPI   GL1 5797  13.998  12.774  10.509  0.2714 -0.0125  0.0140
  363loPI   GL2 5798  13.841  13.032  10.313 -0.1248  0.0335 -0.0459
  363loPI   C1A 5799  14.115  12.652  10.089  0.0241 -0.0320 -0.0799
  363loPI   C2A 5800  14.226  12.785   9.628 -0.1946  0.0415  0.1679
  363loPI   C3A 5801  14.179  12.788   9.271  0.1335 -0.1332  0.3672
  363loPI   C4A 5802  14.213  12.857   8.851  0.2548 -0.1224  0.0332
  363loPI   C5A 5803  14.244  12.849   8.316 -0.2553  0.0077 -0.1520
  363loPI   C6A 5804  14.423  12.883   7.926 -0.1094 -0.2346 -0.0590
  363loPI   C1B 5805  13.676  12.887   9.866 -0.0652 -0.2152  0.0126
  363loPI   C2B 5806  13.692  12.729   9.453  0.5487 -0.0213  0.1642
  363loPI   C3B 5807  13.698  12.700   9.040  0.1996  0.0531 -0.0619
  363loPI   C4B 5808  13.764  12.847   8.671 -0.0262 -0.1419  0.1307
  364loPI    C1 5809  10.803   4.743   9.989 -0.1014  0.0151  0.0514
  364loPI    C2 5810  11.027   4.558  10.263  0.1032  0.1252 -0.0387
  364loPI    C3 5811  10.696   4.753  10.374 -0.1187 -0.2938  0.0567
  364loPI   PO4 5812  11.029   4.850   9.820  0.2145  0.1027 -0.2041
  364loPI   GL1 5813  11.069   4.977   9.467  0.0928  0.0419  0.0573
  364loPI   GL2 5814  11.309   5.190   9.319 -0.1713 -0.0367  0.0245
  364loPI   C1A 5815  10.768   4.919   9.084  0.1423 -0.1134  0.1474
  364loPI   C2A 5816  10.802   5.062   8.649 -0.4185 -0.1539 -0.0179
  364loPI   C3A 5817  10.438   5.153   8.410  0.2815 -0.0687  0.2331
  364loPI   C4A 5818  10.097   5.227   8.145 -0.1617  0.1831  0.3372
  364loPI   C5A 5819   9.737   5.039   8.037 -0.0980 -0.1104 -0.1022
  364loPI   C6A 5820   9.585   4.717   7.719  0.2050 -0.2181  0.1155
  364loPI   C1B 5821  11.295   4.927   8.981  0.1585  0.0881 -0.0704
  364loPI   C2B 5822  11.319   4.925   8.596 -0.0295 -0.1989  0.2302
  364loPI   C3B 5823  11.319   4.976   8.196  0.2920 -0.2841  0.1345
  364loPI   C4B 5824  11.560   4.965   7.740  0.1468 -0.1890  0.1465
  365loPI    C1 5825  11.383   9.626  10.541  0.1163 -0.1107  0.1327
  365loPI    C2 5826  10.988   9.563  10.541  0.0972 -0.0150 -0.2452
  365loPI    C3 5827  11.233   9.292  10.702 -0.1226 -0.0593  0.0227
  365loPI   PO4 5828  11.510   9.708  10.260 -0.1732 -0.1822 -0.3095
  365loPI   GL1 5829  11.604   9.557   9.869  0.1527 -0.3466  0.1624
  365loPI   GL2 5830  11.627   9.239   9.625  0.0169  0.0395 -0.2972
  365loPI   C1A 5831  11.357   9.687   9.491  0.0040  0.1854  0.1151
  365loPI   C2A 5832  11.382   9.858   9.166 -0.0672  0.0509 -0.1106
  365loPI   C3A 5833  11.234   9.790   8.737  0.0244 -0.1651  0.3312
  365loPI   C4A 5834  11.225   9.820   8.269 -0.2359 -0.1581  0.0841
  365loPI   C5A 5835  11.212   9.811   7.942  0.3646  0.1629 -0.2316
  365loPI   C6A 5836  11.013  10.040   7.662  0.3964 -0.1859 -0.1186
  365loPI   C1B 5837  11.616   9.353   9.163 -0.2392 -0.0285  0.2234
  365loPI   C2B 5838  11.554   9.420   8.623  0.2615  0.1447 -0.1778
  365loPI   C3B 5839  11.482   9.367   8.215 -0.1324  0.2257  0.0400
  365loPI   C4B 5840  11.510   9.461   7.761 -0.3674 -0.1207  0.0591
  366loPI    C1 5841  11.111   1.630  10.238  0.0515  0.2911 -0.0371
  366loPI    C2 5842  10.891   1.471  10.532  0.2445  0.0376 -0.0259
  366loPI    C3 5843  11.132   1.781  10.608  0.1189  0.1225  0.0292
  366loPI   PO4 5844  11.016   1.651  10.028 -0.0831 -0.0846 -0.0133
  366loPI   GL1 5845  11.048   1.317   9.655 -0.1823 -0.1471  0.1310
  366loPI   GL2 5846  11.318   1.637   9.614  0.0692  0.2299  0.3310
  366loPI   C1A 5847  11.265   1.266   9.288  0.0681 -0.0688 -0.4531
  366loPI   C2A 5848  11.362   1.379   8.943 -0.0135 -0.2035 -0.0231
  366loPI   C3A 5849  11.404   1.385   8.535 -0.2703 -0.1080 -0.0888
  366loPI   C4A 5850  11.387   1.229   8.196  0.2822  0.1243  0.0848
  366loPI   C5A 5851  11.488   1.146   7.724  0.3591  0.4036  0.1933
  366loPI   C6A 5852  11.488   1.129   7.308  0.0895 -0.0333 -0.2239
  366loPI   C1B 5853  11.629   1.714   9.194  0.1370 -0.0387 -0.1899
  366loPI   C2B 5854  11.727   1.728   8.772  0.2487 -0.0663 -0.2123
  366loPI   C3B 5855  11.711   1.754   8.349 -0.1389  0.0843 -0.2990
  366loPI   C4B 5856  11.655   1.768   7.916 -0.1106  0.2062 -0.1320
  367loPI    C1 5857   8.367   5.627  10.033  0.0364  0.2267  0.1825
  367loPI    C2 5858   8.018   5.806  10.114 -0.0106  0.1528  0.1454
  367loPI    C3 5859   8.322   5.832  10.373 -0.0766  0.1324  0.2252
  367loPI   PO4 5860   8.323   5.640   9.741 -0.0217 -0.0987  0.3045
  367loPI   GL1 5861   8.254   5.624   9.337 -0.3637  0.0811  0.2900
  367loPI   GL2 5862   8.494   5.374   9.316 -0.0958  0.1543 -0.1101
  367loPI   C1A 5863   8.000   5.488   9.014  0.0556  0.3127  0.4157
  367loPI   C2A 5864   8.076   5.503   8.535  0.2636  0.2702 -0.1693
  367loPI   C3A 5865   8.265   5.713   8.222 -0.1668  0.0049 -0.1135
  367loPI   C4A 5866   8.557   5.525   7.877 -0.2476 -0.3193  0.0704
  367loPI   C5A 5867   8.600   5.428   7.433 -0.2046  0.1880 -0.0365
  367loPI   C6A 5868   8.744   5.733   7.039  0.0684  0.3082  0.2372
  367loPI   C1B 5869   8.496   5.312   8.895  0.0754 -0.0652  0.1809
  367loPI   C2B 5870   8.589   5.390   8.480  0.1561  0.0395 -0.0627
  367loPI   C3B 5871   8.905   5.518   8.215  0.4653  0.2767 -0.0966
  367loPI   C4B 5872   9.300   5.725   7.967  0.1512 -0.4886 -0.0977
  368loPI    C1 5873   1.491   8.638  10.792  0.2419 -0.0990  0.0140
  368loPI    C2 5874   1.402   9.026  10.761 -0.1306 -0.1966 -0.1936
  368loPI    C3 5875   1.472   8.865  11.121  0.0415  0.0636 -0.1078
  368loPI   PO4 5876   1.334   8.539  10.627 -0.2519  0.0523 -0.1081
  368loPI   GL1 5877   1.182   8.475  10.122  0.0227  0.1493  0.1794
  368loPI   GL2 5878   1.174   8.759   9.935  0.0894 -0.3336 -0.0578
  368loPI   C1A 5879   1.024   8.202   9.790  0.2361 -0.0800  0.0777
  368loPI   C2A 5880   1.032   8.267   9.327  0.5419  0.1610  0.0412
  368loPI   C3A 5881   0.961   8.279   8.935 -0.0867  0.1921 -0.0442
  368loPI   C4A 5882   0.954   8.449   8.671 -0.0715  0.3496  0.1269
  368loPI   C5A 5883   1.171   8.630   8.323 -0.1999 -0.1505 -0.1816
  368loPI   C6A 5884   1.018   8.717   7.870  0.2065 -0.0083 -0.4771
  368loPI   C1B 5885   1.223   8.945   9.511 -0.2983  0.1863  0.0570
  368loPI   C2B 5886   0.978   9.160   9.275 -0.2600 -0.2889  0.1900
  368loPI   C3B 5887   0.919   9.205   8.875 -0.1816  0.1987 -0.0543
  368loPI   C4B 5888   0.974   9.315   8.412 -0.1796 -0.0846 -0.1178
  369loPI    C1 5889   2.976   6.831  10.713  0.0874  0.0158  0.1366
  369loPI    C2 5890   2.737   6.783  11.030 -0.2419  0.2965 -0.0612
  369loPI    C3 5891   3.131   6.832  11.082 -0.2524  0.0562  0.2832
  369loPI   PO4 5892   2.900   6.719  10.510 -0.2287  0.0865 -0.0766
  369loPI   GL1 5893   2.501   6.487  10.266  0.0987 -0.2638 -0.2736
  369loPI   GL2 5894   2.664   6.179  10.283  0.0193 -0.0561 -0.0423
  369loPI   C1A 5895   2.384   6.413   9.851  0.1622 -0.0791 -0.3782
  369loPI   C2A 5896   2.097   6.263   9.486  0.2751 -0.1671 -0.1532
  369loPI   C3A 5897   2.020   6.274   9.036 -0.3558 -0.0872 -0.1548
  369loPI   C4A 5898   1.969   6.180   8.551  0.2588 -0.0677 -0.0545
  369loPI   C5A 5899   1.817   6.174   8.119  0.2770 -0.0184  0.0419
  369loPI   C6A 5900   1.801   5.952   7.662 -0.1257  0.0176  0.0523
  369loPI   C1B 5901   2.940   6.407   9.973  0.3683 -0.2441 -0.0910
  369loPI   C2B 5902   2.892   6.668   9.554 -0.3016  0.0718 -0.1943
  369loPI   C3B 5903   2.747   6.827   9.190 -0.3008  0.0032 -0.0709
  369loPI   C4B 5904   2.686   6.748   8.754  0.0069  0.0139 -0.0293
  370loPI    C1 5905  10.023   9.004  10.226 -0.0510  0.2099  0.0758
  370loPI    C2 5906   9.890   8.893  10.587  0.0008 -0.0096  0.0291
  370loPI    C3 5907  10.244   8.762  10.455  0.0007  0.1031 -0.0854
  370loPI   PO4 5908   9.804   9.076  10.086  0.1407  0.1786 -0.0839
  370loPI   GL1 5909   9.773   9.095   9.689 -0.1179 -0.1139 -0.0724
  370loPI   GL2 5910   9.918   8.803   9.690 -0.0223 -0.0752 -0.1473
  370loPI   C1A 5911   9.630   9.255   9.319 -0.2940 -0.2311 -0.0161
  370loPI   C2A 5912   9.541   9.336   8.848 -0.3009  0.0595 -0.0414
  370loPI   C3A 5913   9.473   9.369   8.439 -0.1171 -0.0084  0.1782
  370loPI   C4A 5914   9.382   9.382   7.961 -0.0145 -0.1165  0.2021
  370loPI   C5A 5915   9.165   9.677   7.827 -0.1461  0.2701  0.0733
  370loPI   C6A 5916   8.751   9.654   7.663  0.1785 -0.0373 -0.2646
  370loPI   C1B 5917   9.881   8.862   9.226 -0.0481  0.4171  0.2255
  370loPI   C2B 5918   9.809   8.920   8.809  0.0594 -0.0743  0.1317
  370loPI   C3B 5919   9.749   8.904   8.317 -0.0859  0.0521 -0.2340
  370loPI   C4B 5920   9.758   8.801   7.904 -0.1890 -0.0146  0.1553
  371loPI    C1 5921  12.378   5.028   9.667  0.1377  0.1212  0.1177
  371loPI    C2 5922  12.504   4.963  10.041 -0.0649 -0.1067  0.1487
  371loPI    C3 5923  12.262   5.272   9.962  0.4282  0.2797  0.1041
  371loPI   PO4 5924  12.267   4.794   9.624 -0.2396 -0.2336  0.0313
  371loPI   GL1 5925  12.106   4.788   9.268  0.1898 -0.4098 -0.0465
  371loPI   GL2 5926  11.756   4.904   9.118  0.0035 -0.0396 -0.3267
  371loPI   C1A 5927  12.450   4.964   8.973 -0.1628 -0.2539 -0.2601
  371loPI   C2A 5928  12.350   4.894   8.541 -0.0088 -0.1881  0.0570
  371loPI   C3A 5929  12.407   4.863   8.160  0.0714  0.0096 -0.1620
  371loPI   C4A 5930  12.481   5.054   7.634  0.1474 -0.3596 -0.1169
  371loPI   C5A 5931  12.354   5.393   7.463  0.1837 -0.3052  0.0511
  371loPI   C6A 5932  11.950   5.368   7.481 -0.0017  0.1114 -0.4901
  371loPI   C1B 5933  11.845   4.893   8.700  0.2739 -0.0981  0.0023
  371loPI   C2B 5934  11.899   4.986   8.252 -0.3196 -0.0465  0.2735
  371loPI   C3B 5935  12.020   4.944   7.868 -0.2146  0.0746  0.2371
  371loPI   C4B 5936  11.966   4.772   7.402 -0.1530  0.0887 -0.0173
  372loPI    C1 5937  10.669   8.619  10.282 -0.0419 -0.0478  0.0058
  372loPI    C2 5938  10.825   8.277  10.418 -0.1206 -0.0729  0.0331
  372loPI    C3 5939  10.710   8.561  10.675  0.3050  0.1364  0.0003
  372loPI   PO4 5940  10.778   8.616  10.039 -0.0030 -0.1117  0.0283
  372loPI   GL1 5941  10.842   8.608   9.635  0.1227  0.0652  0.0271
  372loPI   GL2 5942  10.596   8.424   9.548  0.3702 -0.1659 -0.0231
  372loPI   C1A 5943  10.887   8.825   9.208  0.2356 -0.1230 -0.0794
  372loPI   C2A 5944  10.807   8.837   8.793  0.0625 -0.0164  0.0838
  372loPI   C3A 5945  10.745   9.000   8.382 -0.0459 -0.0734 -0.0374
  372loPI   C4A 5946  10.761   8.989   7.929 -0.0654  0.2913  0.0658
  372loPI   C5A 5947  10.665   8.871   7.466 -0.1247 -0.3249 -0.0702
  372loPI   C6A 5948  10.854   8.842   7.079 -0.1670 -0.2198 -0.3154
  372loPI   C1B 5949  10.629   8.434   9.139 -0.0751  0.1280 -0.0189
  372loPI   C2B 5950  10.557   8.417   8.699  0.0039 -0.1630  0.2197
  372loPI   C3B 5951  10.539   8.596   8.317 -0.0297 -0.1228 -0.3449
  372loPI   C4B 5952  10.466   8.623   7.855  0.2669  0.1201 -0.2096
  373loPI    C1 5953  14.926   3.837  10.091 -0.0074  0.0002 -0.2622
  373loPI    C2 5954  15.314   3.777  10.015  0.0063  0.0037 -0.1952
  373loPI    C3 5955  15.200   3.938  10.363 -0.0569 -0.0213 -0.2041
  373loPI   PO4 5956  14.810   3.634   9.904  0.1603  0.0801  0.2004
  373loPI   GL1 5957  14.867   3.709   9.483  0.0361 -0.0922 -0.0347
  373loPI   GL2 5958  15.151   3.781   9.560 -0.1701  0.3215 -0.1855
  373loPI   C1A 5959  14.855   3.865   9.006  0.1049  0.3593  0.3443
  373loPI   C2A 5960  14.846   3.735   8.586  0.4244 -0.0362  0.1673
  373loPI   C3A 5961  14.812   3.934   8.193 -0.1351  0.2698  0.1010
  373loPI   C4A 5962  14.580   3.981   7.839  0.2214 -0.4653  0.1683
  373loPI   C5A 5963  14.317   3.819   7.693 -0.0876  0.1075 -0.4144
  373loPI   C6A 5964  14.349   3.394   7.794 -0.0319  0.2687 -0.1058
  373loPI   C1B 5965  15.327   3.592   9.245 -0.0114 -0.0081 -0.1487
  373loPI   C2B 5966  15.673   3.584   9.011 -0.0323  0.3232 -0.0711
  373loPI   C3B 5967  15.937   3.619   8.697 -0.0396  0.0502 -0.3089
  373loPI   C4B 5968  15.986   3.799   8.329 -0.1325 -0.1558  0.3849
  374loPI    C1 5969  14.249   5.097   9.931  0.2992  0.0745 -0.0694
  374loPI    C2 5970  14.060   4.842  10.175  0.0057  0.2961 -0.0588
  374loPI    C3 5971  14.410   5.001  10.284  0.0225  0.1628  0.0846
  374loPI   PO4 5972  14.077   5.193   9.771 -0.1249  0.0199  0.1490
  374loPI   GL1 5973  14.117   5.264   9.270  0.2349  0.0086 -0.0021
  374loPI   GL2 5974  14.406   5.157   9.443 -0.1987  0.1148  0.0080
  374loPI   C1A 5975  13.951   5.248   8.845  0.2534  0.1526 -0.0993
  374loPI   C2A 5976  13.685   5.242   8.565 -0.0474  0.2840  0.2757
  374loPI   C3A 5977  13.593   5.010   8.270 -0.1344  0.0730  0.1945
  374loPI   C4A 5978  13.525   5.087   7.846 -0.0743  0.1115 -0.3807
  374loPI   C5A 5979  13.559   5.070   7.385  0.1758  0.1325 -0.0817
  374loPI   C6A 5980  13.695   5.259   6.997 -0.0709 -0.2510  0.1508
  374loPI   C1B 5981  14.607   5.158   8.998  0.0194  0.0690 -0.1860
  374loPI   C2B 5982  14.596   5.164   8.695  0.2604 -0.0581 -0.4280
  374loPI   C3B 5983  14.569   4.833   8.397  0.1717  0.1329  0.1602
  374loPI   C4B 5984  14.427   4.879   7.913  0.0006 -0.1088 -0.1452
  375loPI    C1 5985  15.416   7.740  10.538  0.1178  0.0438  0.1300
  375loPI    C2 5986  15.710   8.005  10.486  0.1370 -0.0283 -0.1429
  375loPI    C3 5987  15.461   8.042  10.796  0.2530  0.2013 -0.0747
  375loPI   PO4 5988  15.298   7.780  10.286  0.2206 -0.0403  0.1885
  375loPI   GL1 5989  15.249   7.595   9.886  0.1733  0.2148  0.0083
  375loPI   GL2 5990  15.557   7.434   9.724 -0.3309  0.1968  0.0836
  375loPI   C1A 5991  15.360   7.819   9.532 -0.3673 -0.1145 -0.0152
  375loPI   C2A 5992  15.429   7.906   9.100 -0.2613  0.1017 -0.1898
  375loPI   C3A 5993  15.277   7.868   8.700  0.0027  0.1868  0.0408
  375loPI   C4A 5994  15.387   7.841   8.200  0.1030  0.3346  0.0088
  375loPI   C5A 5995  15.293   8.032   7.764  0.1649 -0.1953 -0.2401
  375loPI   C6A 5996  15.036   7.947   7.465 -0.1192 -0.0966 -0.1321
  375loPI   C1B 5997  15.731   7.477   9.293  0.0227 -0.1451 -0.3530
  375loPI   C2B 5998  15.721   7.474   8.859 -0.1877 -0.1004 -0.1972
  375loPI   C3B 5999  15.770   7.491   8.389  0.1422 -0.0622 -0.0758
  375loPI   C4B 6000  15.770   7.433   7.924  0.1964 -0.2352  0.0067
  376loPI    C1 6001   1.806  13.652  10.880 -0.0779 -0.1255 -0.1427
  376loPI    C2 6002   1.760  13.309  10.680  0.0329 -0.2149 -0.0167
  376loPI    C3 6003   1.760  13.309  11.080 -0.1901 -0.0369 -0.0143
  376loPI   PO4 6004   1.946  13.814  10.623 -0.3230  0.2287  0.1677
  376loPI   GL1 6005   1.863  13.677  10.337 -0.1372 -0.1473 -0.1210
  376loPI   GL2 6006   1.731  13.727  10.133  0.0476 -0.0620  0.0268
  376loPI   C1A 6007   2.053  13.185  10.093  0.0663  0.0099 -0.2442
  376loPI   C2A 6008   1.915  13.041   9.645 -0.4471 -0.0521  0.0026
  376loPI   C3A 6009   2.032  13.034   9.213 -0.0427 -0.1513 -0.0129
  376loPI   C4A 6010   1.987  13.013   8.769  0.1608 -0.4754  0.0847
  376loPI   C5A 6011   2.183  13.062   8.291 -0.1428  0.0214  0.2836
  376loPI   C6A 6012   2.211  13.060   7.820  0.0629 -0.2090  0.3829
  376loPI   C1B 6013   1.724  13.487   9.804  0.1772  0.2798 -0.1826
  376loPI   C2B 6014   1.704  13.469   9.304 -0.2904 -0.4218  0.2939
  376loPI   C3B 6015   1.716  13.432   8.926  0.0108 -0.1138  0.1622
  376loPI   C4B 6016   1.653  13.331   8.486  0.2880 -0.0230 -0.1891
  377loPI    C1 6017  18.060   5.179  10.344 -0.0494  0.2182  0.0407
  377loPI    C2 6018  18.315   5.392  10.567  0.2613 -0.3026  0.2008
  377loPI    C3 6019  18.088   5.110  10.737 -0.0103 -0.2318 -0.0361
  377loPI   PO4 6020  17.904   5.408  10.198 -0.2087 -0.0901 -0.0315
  377loPI   GL1 6021  17.749   5.440   9.815  0.0853  0.1513  0.1548
  377loPI   GL2 6022  17.899   5.204   9.782  0.0505  0.1085  0.1918
  377loPI   C1A 6023  17.808   5.372   9.359  0.2234  0.1623 -0.2301
  377loPI   C2A 6024  17.698   5.392   8.889 -0.0895  0.0765 -0.1403
  377loPI   C3A 6025  17.668   5.368   8.469 -0.1215  0.0401  0.2153
  377loPI   C4A 6026  17.933   5.167   8.220  0.2117  0.1352  0.2443
  377loPI   C5A 6027  17.921   4.817   7.943 -0.1606  0.1343 -0.0446
  377loPI   C6A 6028  18.083   4.378   7.829  0.0430 -0.0607  0.0639
  377loPI   C1B 6029  18.265   5.419   9.530 -0.0605 -0.4460 -0.0853
  377loPI   C2B 6030  18.276   5.426   9.066  0.0317  0.1413  0.0183
  377loPI   C3B 6031  18.263   5.477   8.622 -0.1325 -0.5807 -0.3826
  377loPI   C4B 6032  18.321   5.515   8.136  0.1419 -0.0325  0.2379
  378loPI    C1 6033   7.007  12.570  10.756 -0.2856 -0.1169 -0.2267
  378loPI    C2 6034   7.029  12.197  10.896 -0.2521 -0.0241  0.0195
  378loPI    C3 6035   6.912  12.494  11.137 -0.1443  0.1462 -0.1367
  378loPI   PO4 6036   7.253  12.619  10.655  0.2059 -0.3416  0.0235
  378loPI   GL1 6037   7.335  12.653  10.223  0.1114 -0.4903  0.1401
  378loPI   GL2 6038   7.564  12.833  10.244 -0.1221 -0.0338 -0.1950
  378loPI   C1A 6039   7.242  12.525   9.882  0.1138 -0.0600 -0.1732
  378loPI   C2A 6040   7.221  12.661   9.440  0.2006  0.1370 -0.0882
  378loPI   C3A 6041   7.204  12.626   8.992 -0.3108 -0.0388  0.1961
  378loPI   C4A 6042   7.255  12.689   8.540 -0.0199  0.2250 -0.3509
  378loPI   C5A 6043   7.216  12.810   8.056 -0.0923 -0.0707  0.2230
  378loPI   C6A 6044   7.297  13.228   7.916  0.1274 -0.1076  0.0224
  378loPI   C1B 6045   7.749  12.787   9.789 -0.0822 -0.3400 -0.0294
  378loPI   C2B 6046   7.727  12.670   9.318 -0.0941 -0.1198 -0.4588
  378loPI   C3B 6047   7.792  12.642   8.910 -0.0518 -0.2805  0.0054
  378loPI   C4B 6048   7.720  12.624   8.478  0.4242 -0.4959  0.0154
  379loPI    C1 6049  16.436  16.841  11.181  0.2520  0.1535 -0.1916
  379loPI    C2 6050  16.197  17.117  11.344  0.2168  0.0681 -0.0972
  379loPI    C3 6051  16.581  17.096  11.453  0.2079  0.0496 -0.0694
  379loPI   PO4 6052  16.502  16.911  10.873 -0.0076 -0.1801 -0.0385
  379loPI   GL1 6053  16.642  17.162  10.518 -0.0812  0.2726  0.0411
  379loPI   GL2 6054  16.770  16.866  10.468  0.1513 -0.3084 -0.1509
  379loPI   C1A 6055  16.537  17.188  10.139  0.0522 -0.2313 -0.0284
  379loPI   C2A 6056  16.515  17.204   9.749  0.1212  0.0193  0.1320
  379loPI   C3A 6057  16.574  17.038   9.320 -0.2363 -0.1005  0.1227
  379loPI   C4A 6058  16.636  17.050   8.845  0.2900  0.1373  0.0468
  379loPI   C5A 6059  16.693  16.988   8.486 -0.1175 -0.0326 -0.2305
  379loPI   C6A 6060  16.692  16.978   8.031  0.1497  0.1035  0.3989
  379loPI   C1B 6061  16.785  16.801  10.017  0.1538 -0.1531 -0.0069
  379loPI   C2B 6062  16.781  16.681   9.598  0.1703 -0.0935 -0.1391
  379loPI   C3B 6063  16.881  16.626   9.170  0.0507 -0.2516 -0.0390
  379loPI   C4B 6064  16.849  16.580   8.757  0.0988  0.0030  0.1030
  380loPI    C1 6065   4.569  13.111  10.949  0.0517  0.0217 -0.0203
  380loPI    C2 6066   4.665  13.487  11.047  0.1477 -0.0111  0.0111
  380loPI    C3 6067   4.331  13.322  11.192 -0.1148  0.2032 -0.3330
  380loPI   PO4 6068   4.663  13.128  10.658 -0.0674 -0.1802 -0.1195
  380loPI   GL1 6069   4.614  13.383  10.253 -0.0063 -0.2626  0.0574
  380loPI   GL2 6070   4.792  13.291  10.057 -0.2724 -0.1550  0.4068
  380loPI   C1A 6071   4.237  13.274   9.918 -0.1397 -0.0234 -0.0162
  380loPI   C2A 6072   4.084  13.256   9.577 -0.0143 -0.1968  0.2738
  380loPI   C3A 6073   4.056  13.237   9.142 -0.1491  0.1259 -0.2131
  380loPI   C4A 6074   4.140  13.325   8.759 -0.0139  0.4146 -0.0943
  380loPI   C5A 6075   4.176  13.313   8.369  0.0632  0.1324  0.1681
  380loPI   C6A 6076   4.129  13.283   7.921  0.0753 -0.0928  0.0346
  380loPI   C1B 6077   4.607  13.308   9.517  0.0298  0.3178  0.2266
  380loPI   C2B 6078   4.542  13.357   9.028  0.0687 -0.2341 -0.0583
  380loPI   C3B 6079   4.662  13.287   8.591 -0.1881  0.0676  0.1493
  380loPI   C4B 6080   4.592  13.367   8.106 -0.1322  0.1793 -0.0623
  381loPI    C1 6081   9.775   2.109  10.084  0.0269 -0.0007 -0.0385
  381loPI    C2 6082  10.162   2.060  10.172  0.0257  0.1501  0.0552
  381loPI    C3 6083   9.928   2.278  10.413 -0.2181 -0.2940  0.2326
  381loPI   PO4 6084   9.832   2.021   9.784 -0.1045  0.1275 -0.2046
  381loPI   GL1 6085  10.017   2.256   9.461  0.1448 -0.0377  0.0667
  381loPI   GL2 6086   9.645   2.399   9.433 -0.0307  0.0700 -0.1715
  381loPI   C1A 6087  10.334   2.379   9.082  0.0917  0.1890  0.2922
  381loPI   C2A 6088  10.393   2.341   8.673 -0.1266  0.2326 -0.0844
  381loPI   C3A 6089  10.404   2.495   8.258 -0.1864  0.1940  0.1109
  381loPI   C4A 6090  10.388   2.612   7.916  0.4267 -0.1702 -0.0000
  381loPI   C5A 6091  10.556   2.736   7.540 -0.1895 -0.3035 -0.0897
  381loPI   C6A 6092  10.874   2.814   7.192  0.2927  0.1139 -0.0300
  381loPI   C1B 6093   9.419   2.530   8.938  0.4634 -0.1174  0.1191
  381loPI   C2B 6094   9.369   2.741   8.577  0.1138  0.0445  0.0235
  381loPI   C3B 6095   9.549   2.941   8.387  0.1043 -0.1800 -0.1469
  381loPI   C4B 6096   9.612   3.391   8.268 -0.1405 -0.0539 -0.2898
  382loPI    C1 6097   4.915  14.987  10.837  0.0869  0.4149  0.3919
  382loPI    C2 6098   5.075  15.001  10.471 -0.0213 -0.0435  0.3212
  382loPI    C3 6099   5.310  14.952  10.791  0.0536  0.1431  0.2960
  382loPI   PO4 6100   4.706  14.796  10.688  0.0915 -0.0600  0.1051
  382loPI   GL1 6101   4.630  14.744  10.256  0.3225 -0.1028  0.2131
  382loPI   GL2 6102   4.792  14.407  10.308  0.1729 -0.1579  0.1465
  382loPI   C1A 6103   4.653  14.702   9.829  0.1815 -0.1039  0.1352
  382loPI   C2A 6104   4.760  14.634   9.390 -0.3592 -0.2102  0.1689
  382loPI   C3A 6105   4.696  14.655   8.890 -0.1758  0.1257 -0.2641
  382loPI   C4A 6106   4.908  14.687   8.446 -0.0814  0.0050 -0.0893
  382loPI   C5A 6107   4.855  15.017   8.210  0.1835  0.0534  0.0031
  382loPI   C6A 6108   4.838  15.424   8.123  0.0484  0.0219  0.3241
  382loPI   C1B 6109   4.888  14.251   9.936  0.0853  0.3279 -0.1014
  382loPI   C2B 6110   5.043  14.209   9.543 -0.0941  0.0044 -0.0888
  382loPI   C3B 6111   5.113  14.258   9.130 -0.4089 -0.0903 -0.0109
  382loPI   C4B 6112   5.031  14.263   8.707  0.0095  0.2311  0.0237
  383loPI    C1 6113   4.829   4.666  10.658  0.3017 -0.0690  0.0509
  383loPI    C2 6114   4.454   4.646  10.797  0.2031  0.0121 -0.1972
  383loPI    C3 6115   4.759   4.520  11.024  0.0268 -0.0535  0.0067
  383loPI   PO4 6116   4.793   4.591  10.392  0.3195  0.1151 -0.1716
  383loPI   GL1 6117   4.520   4.625   9.945  0.0226 -0.1909  0.0004
  383loPI   GL2 6118   4.690   4.830   9.866 -0.0141  0.0926 -0.1624
  383loPI   C1A 6119   4.645   4.390   9.458 -0.0041  0.2761 -0.1711
  383loPI   C2A 6120   4.791   4.478   9.175 -0.0756 -0.0737 -0.0272
  383loPI   C3A 6121   4.832   4.609   8.798 -0.0896 -0.1267  0.1132
  383loPI   C4A 6122   4.720   4.684   8.397 -0.2772  0.0673  0.1095
  383loPI   C5A 6123   4.382   4.859   8.129  0.0313  0.3152  0.0603
  383loPI   C6A 6124   4.227   5.212   7.970 -0.1169  0.0393  0.1537
  383loPI   C1B 6125   4.810   4.949   9.464  0.1585  0.0568 -0.0747
  383loPI   C2B 6126   4.758   5.110   9.060 -0.2395  0.2637 -0.0530
  383loPI   C3B 6127   4.772   5.205   8.683  0.0493 -0.0757  0.2268
  383loPI   C4B 6128   4.716   5.163   8.281 -0.3012  0.2231  0.2264
  384loPI    C1 6129   7.645   7.726  10.291  0.1383  0.0282  0.0488
  384loPI    C2 6130   7.555   7.605  10.662  0.2365  0.0928  0.0943
  384loPI    C3 6131   7.917   7.757  10.583  0.3112 -0.1713 -0.0877
  384loPI   PO4 6132   7.453   7.868  10.228 -0.1073 -0.2996 -0.1850
  384loPI   GL1 6133   7.169   8.054   9.906 -0.1522 -0.3101  0.1698
  384loPI   GL2 6134   6.891   8.102   9.980  0.1186  0.0733  0.1458
  384loPI   C1A 6135   7.031   7.837   9.548  0.1707 -0.2968  0.1443
  384loPI   C2A 6136   7.047   7.908   9.097 -0.2752 -0.0201 -0.2494
  384loPI   C3A 6137   7.149   8.074   8.687  0.1961 -0.1876  0.0502
  384loPI   C4A 6138   7.215   8.109   8.204 -0.2356 -0.0032  0.0884
  384loPI   C5A 6139   7.385   8.368   7.899  0.0706 -0.4194  0.0622
  384loPI   C6A 6140   7.746   8.661   7.780  0.2940 -0.2985  0.1748
  384loPI   C1B 6141   6.883   8.298   9.585 -0.0712  0.1895 -0.2684
  384loPI   C2B 6142   6.876   8.358   9.191  0.1646 -0.3418 -0.1664
  384loPI   C3B 6143   6.933   8.473   8.783  0.1207  0.3903  0.3057
  384loPI   C4B 6144   6.822   8.474   8.292 -0.0189 -0.3256 -0.0622
  385loPI    C1 6145   4.316   3.641  10.549 -0.1851 -0.1707 -0.1257
  385loPI    C2 6146   4.060   3.876  10.748  0.0130  0.0125 -0.0837
  385loPI    C3 6147   4.391   3.743  10.928  0.0766 -0.0126 -0.2175
  385loPI   PO4 6148   4.306   3.819  10.300 -0.1294 -0.1821 -0.2814
  385loPI   GL1 6149   4.099   3.775   9.878 -0.0260  0.0416 -0.0757
  385loPI   GL2 6150   4.390   3.661   9.876  0.2490 -0.0683 -0.0964
  385loPI   C1A 6151   4.263   3.996   9.404 -0.2607 -0.1316  0.0169
  385loPI   C2A 6152   4.338   4.086   9.022 -0.0134 -0.0181  0.0310
  385loPI   C3A 6153   4.250   4.362   8.745 -0.1547 -0.2049  0.0810
  385loPI   C4A 6154   4.289   4.432   8.391  0.0804 -0.1814  0.0159
  385loPI   C5A 6155   4.150   4.366   8.066  0.0262 -0.0157  0.1958
  385loPI   C6A 6156   3.939   4.318   7.686 -0.1751  0.3528  0.1079
  385loPI   C1B 6157   4.705   3.784   9.649  0.3038  0.0875 -0.1135
  385loPI   C2B 6158   4.823   3.977   9.254  0.1719  0.0417 -0.0795
  385loPI   C3B 6159   4.822   4.070   8.807 -0.0354  0.1188  0.2265
  385loPI   C4B 6160   4.635   4.077   8.362 -0.0411  0.0153  0.0723
  386loPI    C1 6161  16.937   6.504  10.780  0.0800 -0.2727 -0.3000
  386loPI    C2 6162  17.080   6.824  10.974 -0.3050 -0.1201 -0.2599
  386loPI    C3 6163  17.216   6.458  11.063 -0.2094 -0.0153  0.0362
  386loPI   PO4 6164  16.941   6.663  10.460  0.1833 -0.1664 -0.0823
  386loPI   GL1 6165  17.089   6.868  10.111  0.1403 -0.1168 -0.1100
  386loPI   GL2 6166  17.387   7.127  10.045 -0.1765  0.0865 -0.0040
  386loPI   C1A 6167  16.912   6.785   9.779 -0.0901  0.0676 -0.1352
  386loPI   C2A 6168  16.705   6.674   9.356  0.2354 -0.4382  0.0269
  386loPI   C3A 6169  16.871   6.699   9.006 -0.1117  0.1761  0.1638
  386loPI   C4A 6170  16.770   6.722   8.644  0.0011  0.2605 -0.4041
  386loPI   C5A 6171  16.780   6.832   8.136  0.3726  0.0741 -0.1949
  386loPI   C6A 6172  16.707   7.274   7.881  0.0467 -0.0485 -0.0937
  386loPI   C1B 6173  17.506   7.217   9.659 -0.1127 -0.1251 -0.2194
  386loPI   C2B 6174  17.496   7.227   9.185  0.1626  0.0329 -0.1794
  386loPI   C3B 6175  17.545   7.206   8.770 -0.1124  0.1625  0.0315
  386loPI   C4B 6176  17.555   7.240   8.285  0.1574  0.3820 -0.1910
  387loPI    C1 6177  10.716  13.202  10.865 -0.0546 -0.0716 -0.0574
  387loPI    C2 6178  10.677  13.554  11.050 -0.1373 -0.0954 -0.0290
  387loPI    C3 6179  10.763  13.225  11.261 -0.0595 -0.0923 -0.0555
  387loPI   PO4 6180  10.657  13.278  10.581 -0.2551 -0.1851  0.0902
  387loPI   GL1 6181  10.769  13.296  10.186  0.0915  0.3206  0.2384
  387loPI   GL2 6182  10.713  12.969  10.172 -0.1864  0.3141 -0.2656
  387loPI   C1A 6183  10.677  13.561   9.921  0.1355  0.0783  0.0722
  387loPI   C2A 6184  10.571  13.417   9.455  0.1351  0.0679  0.3014
  387loPI   C3A 6185  10.483  13.351   9.035 -0.1087  0.0774 -0.3939
  387loPI   C4A 6186  10.510  13.306   8.695 -0.1627 -0.1079 -0.1202
  387loPI   C5A 6187  10.423  13.176   8.230 -0.2714  0.0937 -0.1005
  387loPI   C6A 6188  10.252  12.943   7.841 -0.0456  0.0375  0.0650
  387loPI   C1B 6189  10.839  12.948   9.771 -0.0577  0.2239  0.2696
  387loPI   C2B 6190  10.796  12.991   9.368 -0.3163 -0.1406 -0.0640
  387loPI   C3B 6191  10.835  12.939   8.955  0.1343  0.3193  0.0706
  387loPI   C4B 6192  10.774  12.930   8.486 -0.1582  0.1445  0.2141
  388loPI    C1 6193  10.647   2.419  10.420  0.0138 -0.1985  0.0998
  388loPI    C2 6194  10.340   2.309  10.651  0.0771 -0.2544  0.1575
  388loPI    C3 6195  10.603   2.580  10.783  0.0000 -0.1362  0.0707
  388loPI   PO4 6196  10.606   2.469  10.198 -0.1186 -0.3942  0.0707
  388loPI   GL1 6197  10.739   2.617   9.732  0.0918  0.2680  0.0476
  388loPI   GL2 6198  10.932   2.806   9.548  0.3197  0.1107 -0.1608
  388loPI   C1A 6199  10.702   2.302   9.379 -0.0443 -0.1045  0.1894
  388loPI   C2A 6200  10.842   2.317   8.962  0.2693 -0.1783  0.1320
  388loPI   C3A 6201  10.951   2.280   8.465  0.0269 -0.0113 -0.0803
  388loPI   C4A 6202  10.946   2.212   8.088 -0.1166 -0.1121  0.1988
  388loPI   C5A 6203  10.925   2.107   7.710  0.1739  0.1311  0.2129
  388loPI   C6A 6204  10.719   1.724   7.612  0.1351  0.1414 -0.1439
  388loPI   C1B 6205  11.116   2.552   9.262 -0.3935 -0.2179 -0.1256
  388loPI   C2B 6206  11.301   2.657   8.962 -0.2552 -0.2203  0.1804
  388loPI   C3B 6207  11.250   2.665   8.546 -0.0649  0.0899  0.1351
  388loPI   C4B 6208  11.291   2.619   8.166 -0.1879 -0.0732 -0.2475
  389loPI    C1 6209  18.460  17.605  10.628  0.1501 -0.0341 -0.0612
  389loPI    C2 6210  18.429  17.958  10.443  0.1013 -0.0394 -0.0630
  389loPI    C3 6211  18.782  17.839  10.588  0.0616  0.1331  0.1824
  389loPI   PO4 6212  18.231  17.463  10.501  0.2687 -0.0376 -0.0947
  389loPI   GL1 6213  18.062  17.603  10.090 -0.0543 -0.0248 -0.1725
  389loPI   GL2 6214  18.367  17.564  10.012 -0.0466 -0.2475 -0.1217
  389loPI   C1A 6215  17.942  17.546   9.664  0.3660 -0.4584 -0.0601
  389loPI   C2A 6216  17.889  17.388   9.287 -0.1868 -0.1534 -0.0111
  389loPI   C3A 6217  17.905  17.457   8.851 -0.2176 -0.1395  0.1074
  389loPI   C4A 6218  17.851  17.429   8.427 -0.0623  0.3191 -0.1400
  389loPI   C5A 6219  18.046  17.393   7.990  0.0383 -0.0474 -0.4171
  389loPI   C6A 6220  18.158  17.011   7.796  0.0130  0.0473  0.1032
  389loPI   C1B 6221  18.393  17.494   9.525  0.2214 -0.0171  0.0598
  389loPI   C2B 6222  18.390  17.396   9.062 -0.1131  0.0509 -0.4438
  389loPI   C3B 6223  18.450  17.381   8.627 -0.3320 -0.1798  0.1305
  389loPI   C4B 6224  18.533  17.435   8.216  0.5008 -0.1473  0.0707
  390loPI    C1 6225   9.826   3.722   9.953  0.3036 -0.1378 -0.0712
  390loPI    C2 6226   9.731   3.976  10.247 -0.1024 -0.4373  0.0659
  390loPI    C3 6227   9.799   4.114   9.877  0.3303 -0.0658  0.2742
  390loPI   PO4 6228  10.048   3.541   9.850 -0.0790  0.0796  0.0097
  390loPI   GL1 6229  10.127   3.398   9.431  0.1099  0.1526 -0.0038
  390loPI   GL2 6230   9.821   3.317   9.309  0.1720  0.0006 -0.0883
  390loPI   C1A 6231  10.213   3.330   9.071  0.0098 -0.0476  0.0220
  390loPI   C2A 6232  10.580   3.240   8.785 -0.1866 -0.1068  0.0235
  390loPI   C3A 6233  10.623   3.246   8.415 -0.2603  0.0447 -0.1762
  390loPI   C4A 6234  10.533   3.111   7.954 -0.0838 -0.1294 -0.1929
  390loPI   C5A 6235  10.582   3.245   7.572 -0.1455  0.0832  0.2794
  390loPI   C6A 6236  10.466   3.650   7.415 -0.0086  0.2771 -0.2256
  390loPI   C1B 6237   9.434   3.425   9.086 -0.0323 -0.0260 -0.0727
  390loPI   C2B 6238   9.310   3.491   8.677  0.0464 -0.1927  0.1321
  390loPI   C3B 6239   9.093   3.511   8.377 -0.3820 -0.0314  0.1090
  390loPI   C4B 6240   9.025   3.417   7.996 -0.2238 -0.2164 -0.0395
  391loPI    C1 6241   1.617   4.720  10.322 -0.0542  0.0933  0.1781
  391loPI    C2 6242   1.710   5.101  10.243 -0.3153  0.1096 -0.0660
  391loPI    C3 6243   1.984   4.814  10.194 -0.1624  0.2470 -0.0253
  391loPI   PO4 6244   1.385   4.711  10.203  0.0544  0.0694  0.0159
  391loPI   GL1 6245   1.318   4.970   9.855 -0.3555  0.1442  0.2310
  391loPI   GL2 6246   1.595   4.850   9.788 -0.0608  0.0434 -0.0121
  391loPI   C1A 6247   1.199   5.278   9.456  0.0923 -0.1090 -0.1237
  391loPI   C2A 6248   1.399   5.600   9.400 -0.0571  0.0415  0.0378
  391loPI   C3A 6249   1.301   5.696   9.000  0.0700  0.0553 -0.1393
  391loPI   C4A 6250   1.301   5.727   8.653 -0.1920 -0.4157 -0.3070
  391loPI   C5A 6251   1.293   5.813   8.281  0.3859 -0.4075  0.0190
  391loPI   C6A 6252   1.317   6.005   7.876  0.4090 -0.4714  0.0339
  391loPI   C1B 6253   1.591   4.908   9.356 -0.0001  0.2285  0.1272
  391loPI   C2B 6254   1.540   5.261   9.041 -0.0399  0.2638 -0.2014
  391loPI   C3B 6255   1.620   5.328   8.690 -0.0374 -0.0633  0.1869
  391loPI   C4B 6256   1.673   5.237   8.290  0.0938  0.0511 -0.4305
  392loPI    C1 6257  13.540   1.385  10.318 -0.0624  0.1749  0.3246
  392loPI    C2 6258  13.545   1.690  10.060 -0.2535 -0.0700  0.0238
  392loPI    C3 6259  13.275   1.682  10.355 -0.1981  0.0875  0.0797
  392loPI   PO4 6260  13.534   1.170  10.208 -0.0363  0.2548  0.3143
  392loPI   GL1 6261  13.627   1.155   9.780  0.2574  0.3027 -0.0693
  392loPI   GL2 6262  13.828   1.158   9.773  0.1153  0.1013 -0.0168
  392loPI   C1A 6263  13.459   1.133   9.424  0.1470  0.1535  0.1679
  392loPI   C2A 6264  13.525   1.117   9.034  0.1673 -0.0315  0.3394
  392loPI   C3A 6265  13.471   1.085   8.603 -0.0754 -0.3049 -0.2808
  392loPI   C4A 6266  13.488   1.116   8.157  0.0520  0.2639 -0.0762
  392loPI   C5A 6267  13.458   1.001   7.761 -0.2615  0.0789 -0.2741
  392loPI   C6A 6268  13.341   0.983   7.329  0.0631 -0.0057  0.0293
  392loPI   C1B 6269  13.978   1.060   9.410  0.0969  0.1192 -0.0962
  392loPI   C2B 6270  13.996   0.984   9.001 -0.1232 -0.1517  0.0251
  392loPI   C3B 6271  13.976   1.054   8.519  0.3096  0.0982  0.1270
  392loPI   C4B 6272  14.024   1.043   8.106  0.0356  0.1668  0.3178
  393loPI    C1 6273   1.463   0.164  10.608 -0.0453  0.0225  0.0249
  393loPI    C2 6274   1.431   0.037  10.986 -0.1654  0.2131  0.0801
  393loPI    C3 6275   1.515   0.421  10.910 -0.0744  0.1610 -0.0869
  393loPI   PO4 6276   1.288   0.043  10.431 -0.3298  0.0774  0.0549
  393loPI   GL1 6277   1.088  -0.123  10.032  0.1467  0.3054  0.1356
  393loPI   GL2 6278   0.803  -0.394  10.049  0.1853 -0.1606 -0.0436
  393loPI   C1A 6279   1.008  -0.217   9.609 -0.1322 -0.0985  0.1427
  393loPI   C2A 6280   0.851  -0.323   9.212  0.0664  0.0351 -0.3399
  393loPI   C3A 6281   0.925  -0.352   8.754 -0.1079  0.0611  0.1540
  393loPI   C4A 6282   1.050  -0.331   8.300  0.1030  0.3601 -0.3054
  393loPI   C5A 6283   1.161   0.051   8.094  0.2407  0.0221 -0.0293
  393loPI   C6A 6284   1.076   0.412   8.265  0.2381  0.3469  0.2797
  393loPI   C1B 6285   0.659  -0.650   9.743 -0.0278 -0.1295 -0.4169
  393loPI   C2B 6286   0.649  -0.800   9.332  0.0099 -0.0679 -0.0558
  393loPI   C3B 6287   0.584  -0.722   8.964 -0.1075  0.1480  0.2247
  393loPI   C4B 6288   0.679  -0.790   8.481  0.2899  0.0703 -0.1245
  394loPI    C1 6289  10.847  17.433  10.501 -0.0029 -0.2520  0.0553
  394loPI    C2 6290  10.467  17.333  10.423 -0.1066  0.0839  0.1170
  394loPI    C3 6291  10.550  17.683  10.599  0.2499  0.1333 -0.1375
  394loPI   PO4 6292  10.936  17.491  10.291  0.2678 -0.2112 -0.3405
  394loPI   GL1 6293  10.999  17.561   9.802  0.1250 -0.1125 -0.0183
  394loPI   GL2 6294  11.245  17.400   9.845 -0.0164 -0.2083 -0.0538
  394loPI   C1A 6295  11.088  17.848   9.455 -0.0849 -0.1690  0.0216
  394loPI   C2A 6296  11.245  18.003   9.082 -0.0111 -0.0513  0.0535
  394loPI   C3A 6297  11.055  18.279   8.921  0.2138  0.0877 -0.1782
  394loPI   C4A 6298  11.100  18.534   8.597  0.1354 -0.0790  0.5248
  394loPI   C5A 6299  11.056  18.302   8.186 -0.1472 -0.0667  0.1690
  394loPI   C6A 6300  11.307  18.279   7.762 -0.0956  0.3336 -0.1046
  394loPI   C1B 6301  11.412  17.471   9.417 -0.1386  0.2496  0.1596
  394loPI   C2B 6302  11.583  17.344   9.072  0.0550  0.0846 -0.0466
  394loPI   C3B 6303  11.529  17.535   8.727  0.0434 -0.1926  0.2171
  394loPI   C4B 6304  11.549  17.466   8.316 -0.1382  0.0342  0.0110
  395loPI    C1 6305   7.491   2.943  10.351 -0.1913 -0.1879 -0.1259
  395loPI    C2 6306   7.561   2.569  10.475 -0.1691 -0.0452  0.3097
  395loPI    C3 6307   7.237   2.764  10.604 -0.1471  0.1091  0.1346
  395loPI   PO4 6308   7.495   3.005  10.063  0.0568 -0.0284  0.0754
  395loPI   GL1 6309   7.896   2.991   9.656  0.0136 -0.0138 -0.0962
  395loPI   GL2 6310   8.017   2.743   9.388  0.1404  0.2448  0.4142
  395loPI   C1A 6311   7.723   3.069   9.215  0.0500 -0.1315 -0.1013
  395loPI   C2A 6312   7.634   3.077   8.810  0.0140 -0.0162 -0.0231
  395loPI   C3A 6313   7.670   3.164   8.294 -0.1186 -0.1963 -0.0888
  395loPI   C4A 6314   7.468   3.034   8.048  0.2916 -0.1902  0.2244
  395loPI   C5A 6315   7.218   2.692   7.740 -0.0188  0.1132 -0.1871
  395loPI   C6A 6316   7.391   2.314   7.676  0.1514 -0.0022 -0.2289
  395loPI   C1B 6317   8.060   2.655   8.900  0.1884  0.2509  0.0517
  395loPI   C2B 6318   8.027   2.784   8.448 -0.2129  0.2163 -0.1563
  395loPI   C3B 6319   8.166   3.048   8.085 -0.1213  0.1821 -0.1004
  395loPI   C4B 6320   8.154   3.100   7.722  0.2666 -0.0665 -0.3484
  396loPI    C1 6321   0.161   3.854  10.537 -0.3392  0.2479  0.1849
  396loPI    C2 6322   0.448   4.130  10.570 -0.1298  0.0535  0.0278
  396loPI    C3 6323   0.463   3.799  10.794 -0.1092 -0.0609 -0.1413
  396loPI   PO4 6324   0.039   3.988  10.344  0.1524 -0.0701  0.2579
  396loPI   GL1 6325   0.147   3.843   9.908  0.2201 -0.1755 -0.0354
  396loPI   GL2 6326  -0.035   4.082   9.824 -0.1213  0.1107 -0.1815
  396loPI   C1A 6327  -0.002   3.611   9.672  0.1113 -0.2299  0.0322
  396loPI   C2A 6328  -0.116   3.525   9.208  0.0661 -0.3810 -0.0448
  396loPI   C3A 6329   0.049   3.556   8.764 -0.1874 -0.5425  0.2139
  396loPI   C4A 6330   0.372   3.339   8.502  0.1833 -0.1281 -0.1993
  396loPI   C5A 6331   0.747   3.376   8.325  0.0416 -0.3232  0.0142
  396loPI   C6A 6332   1.099   3.413   8.400  0.1357  0.0366 -0.2391
  396loPI   C1B 6333  -0.016   4.008   9.356  0.1341  0.1302 -0.2364
  396loPI   C2B 6334   0.288   3.925   9.089  0.2139 -0.0650 -0.4683
  396loPI   C3B 6335   0.428   4.158   8.781  0.2294  0.2075  0.1439
  396loPI   C4B 6336   0.551   4.370   8.407 -0.0665  0.1604  0.0360
  397loPI    C1 6337   0.723   8.548  10.800 -0.2416 -0.0297  0.1792
  397loPI    C2 6338   0.955   8.858  10.903 -0.0900 -0.1040  0.0645
  397loPI    C3 6339   0.780   8.637  11.186  0.0305 -0.0853  0.1544
  397loPI   PO4 6340   0.551   8.635  10.575 -0.0894 -0.2198 -0.0024
  397loPI   GL1 6341   0.531   8.571  10.242  0.0485 -0.3774  0.2543
  397loPI   GL2 6342   0.585   8.182  10.199  0.0641 -0.1259 -0.0064
  397loPI   C1A 6343   0.725   8.665   9.890  0.0134  0.1230  0.0832
  397loPI   C2A 6344   0.780   8.674   9.417  0.0072 -0.2027 -0.2887
  397loPI   C3A 6345   0.667   8.729   9.066  0.2540  0.0426 -0.0429
  397loPI   C4A 6346   0.688   8.850   8.615  0.2235  0.0802 -0.1505
  397loPI   C5A 6347   0.658   8.959   8.265 -0.1798 -0.0059 -0.2079
  397loPI   C6A 6348   0.780   9.185   7.833  0.0612  0.2855  0.2505
  397loPI   C1B 6349   0.462   8.230   9.748 -0.1535 -0.0422 -0.0270
  397loPI   C2B 6350   0.498   8.264   9.268  0.0527  0.0278 -0.2755
  397loPI   C3B 6351   0.494   8.364   8.751 -0.1223  0.2790 -0.0826
  397loPI   C4B 6352   0.500   8.373   8.249 -0.1629 -0.1309 -0.3779
  398loPI    C1 6353  16.457   8.025  10.466  0.0519 -0.1118 -0.2705
  398loPI    C2 6354  16.162   7.860  10.252 -0.1749 -0.0393 -0.0190
  398loPI    C3 6355  16.146   7.856  10.652  0.2165 -0.1225  0.0002
  398loPI   PO4 6356  16.646   7.941  10.396  0.1888 -0.2193 -0.0030
  398loPI   GL1 6357  16.705   7.796   9.980 -0.1364  0.1253 -0.0187
  398loPI   GL2 6358  16.556   7.495   9.909 -0.1574 -0.0583 -0.0431
  398loPI   C1A 6359  17.034   7.927   9.621 -0.1710  0.0375 -0.1040
  398loPI   C2A 6360  16.998   8.033   9.140  0.4907  0.0431  0.1412
  398loPI   C3A 6361  16.960   8.105   8.648 -0.0992  0.0443  0.0664
  398loPI   C4A 6362  17.017   8.112   8.286  0.0020 -0.1828  0.0376
  398loPI   C5A 6363  17.335   7.904   7.946  0.1404 -0.1354  0.2299
  398loPI   C6A 6364  17.598   7.477   7.848 -0.1873  0.0525  0.3602
  398loPI   C1B 6365  16.675   7.596   9.360  0.1420  0.1968 -0.3042
  398loPI   C2B 6366  16.723   7.623   8.915  0.1152  0.0559  0.2255
  398loPI   C3B 6367  16.808   7.702   8.543  0.0051 -0.0045 -0.0867
  398loPI   C4B 6368  16.747   7.779   8.046  0.0329  0.0919  0.4073
  399loPI    C1 6369   3.068   3.129  10.711 -0.2935  0.1758  0.0969
  399loPI    C2 6370   2.925   2.841  10.950 -0.3575  0.0797 -0.0557
  399loPI    C3 6371   2.771   3.210  10.967 -0.3424  0.0804  0.0709
  399loPI   PO4 6372   3.096   3.039  10.499  0.1031  0.0552 -0.1642
  399loPI   GL1 6373   2.960   2.864  10.091  0.0048  0.1443 -0.1169
  399loPI   GL2 6374   3.220   2.687   9.893 -0.2700  0.2069  0.0709
  399loPI   C1A 6375   2.703   2.659   9.868  0.0922  0.3171  0.0813
  399loPI   C2A 6376   2.600   2.518   9.488 -0.2010  0.1471  0.0237
  399loPI   C3A 6377   2.656   2.649   9.084  0.2337  0.1930 -0.1039
  399loPI   C4A 6378   2.890   2.771   8.802  0.1603  0.0161 -0.2524
  399loPI   C5A 6379   2.894   2.857   8.421 -0.0566 -0.0802 -0.1593
  399loPI   C6A 6380   2.875   2.769   8.067 -0.0724  0.2181 -0.0062
  399loPI   C1B 6381   2.999   2.789   9.469  0.1828 -0.2002 -0.3663
  399loPI   C2B 6382   3.001   3.032   9.189  0.1155  0.1580 -0.0088
  399loPI   C3B 6383   3.130   3.178   8.778 -0.1941 -0.3003  0.0707
  399loPI   C4B 6384   3.258   3.184   8.414  0.1794  0.2187 -0.1929
  400loPI    C1 6385   0.382  13.361  10.722 -0.3217 -0.1091 -0.0711
  400loPI    C2 6386   0.462  13.133  11.041 -0.3324 -0.0594 -0.0329
  400loPI    C3 6387   0.242  13.464  11.082 -0.1870  0.0414 -0.0608
  400loPI   PO4 6388   0.494  13.215  10.525  0.1554  0.1146 -0.1012
  400loPI   GL1 6389   0.661  12.937  10.147 -0.1620  0.0908 -0.0310
  400loPI   GL2 6390   0.485  12.872  10.026 -0.0934  0.3001 -0.1532
  400loPI   C1A 6391   0.946  12.928   9.847 -0.0018 -0.0050  0.0285
  400loPI   C2A 6392   0.908  12.862   9.420 -0.0153 -0.0669 -0.0431
  400loPI   C3A 6393   0.991  12.906   8.984  0.2783 -0.1846  0.1181
  400loPI   C4A 6394   0.924  12.832   8.639 -0.1066  0.1100 -0.1586
  400loPI   C5A 6395   0.994  12.909   8.157  0.2345  0.3137  0.1286
  400loPI   C6A 6396   0.940  13.101   7.819 -0.2088 -0.0961  0.0703
  400loPI   C1B 6397   0.455  12.839   9.559  0.0464 -0.1948  0.0254
  400loPI   C2B 6398   0.496  12.831   9.122  0.1526  0.0531 -0.0845
  400loPI   C3B 6399   0.414  12.827   8.713 -0.1198  0.0537 -0.0050
  400loPI   C4B 6400   0.511  12.778   8.288 -0.0376  0.0891 -0.2199
  401loPI    C1 6401  17.238   5.858  10.367 -0.0286  0.0314 -0.1361
  401loPI    C2 6402  17.435   5.688  10.671  0.0240 -0.0191 -0.1982
  401loPI    C3 6403  17.419   5.505  10.315 -0.4432 -0.1941 -0.0950
  401loPI   PO4 6404  17.323   6.126  10.339  0.1973  0.2242  0.0537
  401loPI   GL1 6405  17.169   6.292   9.992  0.0953 -0.0018  0.1370
  401loPI   GL2 6406  16.884   6.357  10.089 -0.0209  0.1268 -0.6123
  401loPI   C1A 6407  17.145   6.350   9.570 -0.1391 -0.0548  0.1862
  401loPI   C2A 6408  17.176   6.189   9.133 -0.2243  0.1140  0.1672
  401loPI   C3A 6409  17.129   6.247   8.730  0.1818 -0.0051 -0.1231
  401loPI   C4A 6410  17.029   6.464   8.312 -0.0982  0.0801  0.1542
  401loPI   C5A 6411  17.003   6.375   7.860 -0.2374 -0.2236 -0.1355
  401loPI   C6A 6412  16.864   6.790   7.690 -0.1354 -0.1962 -0.0514
  401loPI   C1B 6413  16.681   6.317   9.719  0.4051 -0.0660 -0.0343
  401loPI   C2B 6414  16.649   6.189   9.356  0.0440  0.0160  0.3545
  401loPI   C3B 6415  16.652   6.225   8.948  0.0597  0.3004  0.3051
  401loPI   C4B 6416  16.625   6.281   8.593  0.1709  0.1988 -0.0882
  402loPI    C1 6417  15.942   4.313  10.118 -0.0885  0.1258  0.2839
  402loPI    C2 6418  15.776   4.383  10.475  0.2135  0.2088  0.4119
  402loPI    C3 6419  16.097   4.147  10.448 -0.0992 -0.1990  0.1296
  402loPI   PO4 6420  15.947   4.597  10.013 -0.2247  0.0961 -0.4285
  402loPI   GL1 6421  16.173   4.666   9.689  0.1576  0.2033  0.0390
  402loPI   GL2 6422  16.349   4.396   9.673 -0.0995  0.1434 -0.3731
  402loPI   C1A 6423  16.024   4.787   9.307  0.3351  0.2711 -0.0374
  402loPI   C2A 6424  15.947   4.824   8.879 -0.1439 -0.2720 -0.0147
  402loPI   C3A 6425  16.060   4.825   8.557  0.0414 -0.1668  0.4390
  402loPI   C4A 6426  16.070   4.712   8.120  0.0412 -0.1394 -0.2445
  402loPI   C5A 6427  16.325   4.483   7.815  0.1608  0.1844  0.0152
  402loPI   C6A 6428  16.491   4.387   7.406  0.2835 -0.0390 -0.2773
  402loPI   C1B 6429  16.246   4.302   9.358  0.0423  0.1746 -0.0301
  402loPI   C2B 6430  16.349   4.426   9.044  0.0211 -0.2715  0.3149
  402loPI   C3B 6431  16.368   4.418   8.638 -0.0442 -0.6176  0.1289
  402loPI   C4B 6432  16.521   4.338   8.207 -0.3035  0.1074 -0.0082
  403loPI    C1 6433  11.783  18.315  10.339 -0.0738 -0.0048  0.0716
  403loPI    C2 6434  11.999  18.518  10.607  0.1718 -0.0758 -0.0703
  403loPI    C3 6435  11.692  18.292  10.728 -0.0921  0.3577  0.0917
  403loPI   PO4 6436  12.018  18.325  10.155 -0.1277  0.2721 -0.0324
  403loPI   GL1 6437  12.228  18.019   9.958  0.0135 -0.0247  0.2158
  403loPI   GL2 6438  12.079  18.089   9.676 -0.0816 -0.1143 -0.2396
  403loPI   C1A 6439  12.564  18.066   9.611  0.0248 -0.0251  0.0832
  403loPI   C2A 6440  12.834  17.931   9.338  0.1845 -0.0788  0.1950
  403loPI   C3A 6441  12.888  17.894   8.896 -0.1874 -0.1148 -0.0419
  403loPI   C4A 6442  12.857  17.817   8.458  0.0557  0.1393 -0.0493
  403loPI   C5A 6443  12.993  17.812   8.117 -0.1781  0.3357  0.1113
  403loPI   C6A 6444  13.280  17.581   7.895 -0.1481  0.2174  0.2861
  403loPI   C1B 6445  12.213  18.059   9.276 -0.1414 -0.0650  0.0571
  403loPI   C2B 6446  12.419  17.996   8.852  0.0209 -0.1280 -0.0375
  403loPI   C3B 6447  12.400  17.935   8.444  0.1855  0.2056 -0.3325
  403loPI   C4B 6448  12.469  17.721   7.999 -0.0945 -0.0993  0.1136
  404loPI    C1 6449  13.910   8.463  10.690  0.0003 -0.3776 -0.0456
  404loPI    C2 6450  14.110   8.807  10.731 -0.1218 -0.2889 -0.1829
  404loPI    C3 6451  14.192   8.497  10.971 -0.1576 -0.0966  0.0830
  404loPI   PO4 6452  13.838   8.387  10.414  0.1184  0.2240  0.2803
  404loPI   GL1 6453  13.971   8.464   9.988 -0.1160 -0.0881 -0.0275
  404loPI   GL2 6454  14.127   8.213   9.647 -0.1277  0.0416  0.1970
  404loPI   C1A 6455  13.878   8.825   9.703  0.3223 -0.0409 -0.1380
  404loPI   C2A 6456  13.970   9.038   9.360  0.6520 -0.1552  0.1675
  404loPI   C3A 6457  13.920   9.251   9.006  0.2517  0.2312  0.0974
  404loPI   C4A 6458  13.938   9.186   8.556 -0.1439 -0.0196  0.0246
  404loPI   C5A 6459  14.030   9.072   8.150  0.0695  0.0190  0.0476
  404loPI   C6A 6460  14.155   9.199   7.754  0.2449  0.0701 -0.3548
  404loPI   C1B 6461  14.039   8.277   9.214  0.0971 -0.3862  0.0525
  404loPI   C2B 6462  14.002   8.276   8.770  0.1391 -0.0804 -0.2106
  404loPI   C3B 6463  13.793   8.085   8.489 -0.2359  0.0357 -0.0201
  404loPI   C4B 6464  13.535   7.879   8.231 -0.1704  0.0771 -0.2573
  405loPI    C1 6465   5.761  12.800  10.580 -0.1205 -0.2426  0.0338
  405loPI    C2 6466   5.700  12.622  10.933  0.1308 -0.0915  0.1564
  405loPI    C3 6467   5.460  12.919  10.815 -0.0238 -0.2190  0.1468
  405loPI   PO4 6468   5.757  12.604  10.424 -0.2452 -0.0498  0.1673
  405loPI   GL1 6469   5.761  12.455   9.957 -0.0722  0.1590  0.0099
  405loPI   GL2 6470   5.934  12.105  10.021  0.2829 -0.0014  0.1747
  405loPI   C1A 6471   5.750  12.521   9.499  0.0651 -0.1695  0.1094
  405loPI   C2A 6472   5.669  12.522   9.056 -0.1044  0.2346  0.2808
  405loPI   C3A 6473   5.754  12.650   8.632 -0.0387 -0.0910  0.1071
  405loPI   C4A 6474   5.726  12.657   8.271 -0.2114 -0.2571 -0.1211
  405loPI   C5A 6475   5.523  12.539   7.812  0.2265  0.3651  0.1945
  405loPI   C6A 6476   5.106  12.359   7.550  0.2505  0.1327 -0.3149
  405loPI   C1B 6477   6.122  11.974   9.614 -0.0721  0.0845  0.0304
  405loPI   C2B 6478   6.489  12.169   9.283 -0.0525 -0.2385 -0.2497
  405loPI   C3B 6479   6.476  12.168   8.836  0.0334 -0.2449 -0.0367
  405loPI   C4B 6480   6.386  12.164   8.355  0.2274  0.0188  0.1425
  406loPI    C1 6481  10.344  10.398  10.537 -0.0014 -0.0946 -0.1630
  406loPI    C2 6482  10.353  10.798  10.528  0.2764 -0.0887  0.1523
  406loPI    C3 6483  10.058  10.609  10.721  0.0897 -0.0410 -0.0816
  406loPI   PO4 6484  10.386  10.276  10.258 -0.1507  0.0755  0.0632
  406loPI   GL1 6485  10.203  10.270   9.867 -0.0381 -0.3595  0.0889
  406loPI   GL2 6486  10.376  10.698   9.944 -0.0263  0.0595 -0.1622
  406loPI   C1A 6487  10.054  10.268   9.366 -0.1092 -0.2371 -0.2968
  406loPI   C2A 6488  10.061  10.166   8.986  0.1417 -0.1315 -0.3073
  406loPI   C3A 6489   9.928  10.176   8.566 -0.2826 -0.1097  0.1784
  406loPI   C4A 6490   9.886  10.428   8.178 -0.1501 -0.0996 -0.1118
  406loPI   C5A 6491  10.186  10.483   7.995 -0.0869  0.0755  0.1909
  406loPI   C6A 6492  10.400  10.790   7.794 -0.0786  0.0541 -0.2272
  406loPI   C1B 6493  10.284  10.640   9.589 -0.1825  0.0273  0.0742
  406loPI   C2B 6494  10.256  10.693   9.139 -0.1179  0.0411  0.0944
  406loPI   C3B 6495  10.236  10.617   8.717  0.0115 -0.3317  0.0151
  406loPI   C4B 6496  10.147  10.804   8.417 -0.0289 -0.1231  0.0331
  407loPI    C1 6497   5.715   5.500  10.459  0.1508  0.0030 -0.1121
  407loPI    C2 6498   5.963   5.732  10.671  0.2752 -0.0413 -0.2085
  407loPI    C3 6499   6.040   5.341  10.629  0.1492 -0.0698 -0.1765
  407loPI   PO4 6500   5.668   5.668  10.180 -0.2134  0.0086 -0.1648
  407loPI   GL1 6501   5.852   5.651   9.754  0.4592 -0.0465 -0.0460
  407loPI   GL2 6502   5.489   5.439   9.783 -0.2844 -0.0739  0.1346
  407loPI   C1A 6503   5.734   5.559   9.314 -0.0906 -0.1727 -0.0410
  407loPI   C2A 6504   5.681   5.611   8.916 -0.0759 -0.0161 -0.2192
  407loPI   C3A 6505   5.651   5.792   8.580 -0.2246  0.0915 -0.1327
  407loPI   C4A 6506   5.492   5.860   8.125 -0.0507  0.0540 -0.0415
  407loPI   C5A 6507   5.446   5.572   7.776 -0.2863 -0.0600  0.2305
  407loPI   C6A 6508   5.556   5.080   7.698 -0.0552 -0.0483 -0.0646
  407loPI   C1B 6509   5.269   5.286   9.464 -0.0185 -0.0989 -0.0387
  407loPI   C2B 6510   5.245   5.361   8.995 -0.0193 -0.1589  0.5540
  407loPI   C3B 6511   5.206   5.456   8.573 -0.1064  0.2924 -0.0471
  407loPI   C4B 6512   5.299   5.388   8.200  0.2958  0.2184  0.1116
  408loPI    C1 6513  14.937  10.282  10.688 -0.0632 -0.1007 -0.0381
  408loPI    C2 6514  14.905  10.643  10.857 -0.0945 -0.0436 -0.1642
  408loPI    C3 6515  14.738  10.325  11.032  0.0695 -0.0254  0.0301
  408loPI   PO4 6516  14.861  10.339  10.435 -0.0753 -0.0615  0.1685
  408loPI   GL1 6517  14.984  10.467   9.976  0.0220 -0.1702 -0.0227
  408loPI   GL2 6518  14.816  10.105   9.967  0.0176 -0.0260  0.2127
  408loPI   C1A 6519  15.063  10.527   9.552 -0.1474  0.1338  0.2237
  408loPI   C2A 6520  15.088  10.574   9.130 -0.1091  0.0448  0.2244
  408loPI   C3A 6521  15.152  10.578   8.731  0.0246 -0.1458  0.1755
  408loPI   C4A 6522  15.135  10.586   8.301  0.2364 -0.0385  0.2238
  408loPI   C5A 6523  15.235  10.699   7.941  0.0138 -0.0083 -0.1285
  408loPI   C6A 6524  15.593  10.765   7.574  0.0692  0.0142  0.0769
  408loPI   C1B 6525  14.904  10.078   9.582 -0.4077 -0.1255  0.1648
  408loPI   C2B 6526  14.837  10.088   9.158  0.2975 -0.2195 -0.2452
  408loPI   C3B 6527  14.952  10.112   8.689  0.0415  0.1268 -0.2108
  408loPI   C4B 6528  14.887  10.093   8.303 -0.0038  0.3307 -0.0032
  409loPI    C1 6529  17.787   8.638  10.718 -0.1215 -0.2200 -0.2493
  409loPI    C2 6530  17.480   8.521  10.946 -0.0814 -0.0674 -0.1150
  409loPI    C3 6531  17.705   8.832  11.059  0.0979 -0.1533 -0.2330
  409loPI   PO4 6532  17.662   8.620  10.469 -0.0758 -0.0049  0.0922
  409loPI   GL1 6533  17.612   8.872  10.043 -0.0529 -0.1050  0.0049
  409loPI   GL2 6534  17.892   8.773  10.041 -0.0933  0.0245 -0.0556
  409loPI   C1A 6535  17.451   8.908   9.599  0.0774 -0.0052  0.2408
  409loPI   C2A 6536  17.354   8.933   9.086  0.1669  0.0130 -0.1747
  409loPI   C3A 6537  17.453   9.052   8.646 -0.0981  0.1909  0.0804
  409loPI   C4A 6538  17.330   8.977   8.254 -0.0316  0.2751 -0.0663
  409loPI   C5A 6539  17.516   8.819   7.857  0.0663 -0.0960 -0.1696
  409loPI   C6A 6540  17.834   8.773   7.415  0.3126 -0.1846 -0.0811
  409loPI   C1B 6541  17.778   8.530   9.644  0.1913  0.1324 -0.2222
  409loPI   C2B 6542  17.677   8.535   9.256  0.1213 -0.2206 -0.3172
  409loPI   C3B 6543  17.596   8.566   8.800 -0.1949  0.0319 -0.2279
  409loPI   C4B 6544  17.711   8.605   8.391  0.0946 -0.0136 -0.0455
  410loPI    C1 6545   4.980   3.298  10.592  0.1968 -0.0489 -0.0995
  410loPI    C2 6546   5.181   3.609  10.441  0.1963 -0.1017 -0.2093
  410loPI    C3 6547   4.980   3.649  10.785  0.1232  0.0444 -0.2679
  410loPI   PO4 6548   5.106   3.100  10.457 -0.0822 -0.1363 -0.1982
  410loPI   GL1 6549   5.264   3.147  10.094 -0.0433 -0.1610  0.1106
  410loPI   GL2 6550   5.083   3.347   9.872 -0.1151  0.1926 -0.1953
  410loPI   C1A 6551   5.580   3.002   9.888  0.1276  0.1204 -0.1973
  410loPI   C2A 6552   5.609   2.854   9.451 -0.0519 -0.0236  0.0738
  410loPI   C3A 6553   5.551   2.910   8.966 -0.1898  0.1256 -0.2002
  410loPI   C4A 6554   5.638   2.982   8.415 -0.0595  0.2325  0.1229
  410loPI   C5A 6555   5.770   2.990   7.929  0.1017 -0.1972 -0.2113
  410loPI   C6A 6556   5.588   2.929   7.589  0.1377  0.2734  0.4319
  410loPI   C1B 6557   5.203   3.184   9.496 -0.3485 -0.1454  0.0244
  410loPI   C2B 6558   5.125   3.208   9.037 -0.1030 -0.0954 -0.0255
  410loPI   C3B 6559   5.307   3.177   8.682  0.1414  0.0638 -0.2085
  410loPI   C4B 6560   5.283   3.339   8.207  0.2210 -0.0643  0.1840
  411loPI    C1 6561   8.084  16.229  10.515 -0.2442 -0.1429 -0.0246
  411loPI    C2 6562   8.017  16.587  10.350 -0.0355 -0.1403 -0.1075
  411loPI    C3 6563   7.991  16.541  10.746 -0.0791 -0.0375 -0.0982
  411loPI   PO4 6564   8.042  16.083  10.304 -0.1875  0.2033  0.3676
  411loPI   GL1 6565   8.160  16.129   9.910 -0.1763 -0.0167 -0.1511
  411loPI   GL2 6566   8.065  16.423   9.865 -0.2955 -0.1410 -0.3741
  411loPI   C1A 6567   8.221  15.866   9.617 -0.0578  0.2026  0.1508
  411loPI   C2A 6568   8.266  15.835   9.110  0.1315  0.0891  0.1840
  411loPI   C3A 6569   7.977  15.810   8.787 -0.0408 -0.0167 -0.2290
  411loPI   C4A 6570   7.781  15.728   8.355 -0.0411 -0.0312  0.1585
  411loPI   C5A 6571   7.803  15.479   7.914  0.0122  0.1187  0.2171
  411loPI   C6A 6572   7.856  15.354   7.605 -0.1479  0.3470 -0.2536
  411loPI   C1B 6573   8.098  16.739   9.519 -0.1091 -0.0583 -0.1772
  411loPI   C2B 6574   8.164  16.747   9.077  0.3095 -0.0129 -0.0615
  411loPI   C3B 6575   7.895  16.704   8.709  0.1410  0.1911 -0.1340
  411loPI   C4B 6576   7.862  16.563   8.235 -0.2207  0.0267  0.2695
  412loPI    C1 6577  14.929   8.033  10.565 -0.0275 -0.0562 -0.2425
  412loPI    C2 6578  14.989   8.162  10.939  0.1016  0.0758 -0.3077
  412loPI    C3 6579  14.927   7.773  10.869  0.1358  0.0425 -0.1558
  412loPI   PO4 6580  15.107   8.316  10.442  0.1006  0.3523 -0.1686
  412loPI   GL1 6581  15.368   8.252  10.178 -0.1028 -0.1094 -0.3046
  412loPI   GL2 6582  15.144   8.097   9.938 -0.2493 -0.0403  0.0323
  412loPI   C1A 6583  15.637   8.294   9.792  0.2404  0.1560  0.1996
  412loPI   C2A 6584  15.533   8.369   9.315 -0.2002  0.4385 -0.0900
  412loPI   C3A 6585  15.532   8.378   8.828 -0.1138  0.1362 -0.0649
  412loPI   C4A 6586  15.547   8.430   8.436  0.3293  0.2095 -0.1100
  412loPI   C5A 6587  15.673   8.226   8.031 -0.0823 -0.2203  0.2711
  412loPI   C6A 6588  15.773   8.019   7.707 -0.2221  0.0056  0.1647
  412loPI   C1B 6589  15.138   8.280   9.559  0.2494 -0.2246 -0.1931
  412loPI   C2B 6590  15.080   8.215   9.103  0.1373  0.2440  0.2891
  412loPI   C3B 6591  15.059   8.277   8.612  0.3809  0.0607 -0.1724
  412loPI   C4B 6592  15.129   8.324   8.183  0.1341 -0.0101  0.1253
  413loPI    C1 6593  13.226  16.055  10.335 -0.2783  0.1570 -0.0842
  413loPI    C2 6594  13.130  16.112  10.719 -0.0821 -0.1644  0.0167
  413loPI    C3 6595  13.277  16.414  10.503 -0.0073 -0.0314  0.2503
  413loPI   PO4 6596  13.325  15.841  10.272 -0.0247  0.0293  0.2573
  413loPI   GL1 6597  13.511  15.837   9.894  0.0567  0.0639  0.0781
  413loPI   GL2 6598  13.527  16.036   9.830 -0.1702 -0.4176  0.1062
  413loPI   C1A 6599  13.322  15.654   9.530  0.0303  0.0688 -0.1084
  413loPI   C2A 6600  13.384  15.543   9.096 -0.0861  0.0251  0.0324
  413loPI   C3A 6601  13.404  15.455   8.698 -0.2691 -0.0525  0.2329
  413loPI   C4A 6602  13.461  15.422   8.235 -0.1304  0.1280  0.1004
  413loPI   C5A 6603  13.459  15.419   7.860 -0.0242  0.0833 -0.2703
  413loPI   C6A 6604  13.538  15.318   7.480 -0.0776 -0.2341  0.0513
  413loPI   C1B 6605  13.622  15.960   9.333 -0.1475 -0.1833 -0.1705
  413loPI   C2B 6606  13.647  15.938   8.857 -0.2203  0.0864 -0.1305
  413loPI   C3B 6607  13.583  15.912   8.418 -0.0493  0.0298 -0.0421
  413loPI   C4B 6608  13.671  15.866   7.983  0.0264 -0.0949 -0.1833
  414loPI    C1 6609   9.013  11.567  10.863 -0.1573 -0.1871 -0.0443
  414loPI    C2 6610   9.298  11.782  11.044 -0.2304  0.1270 -0.2933
  414loPI    C3 6611   9.082  11.519  11.254  0.1292  0.0051 -0.0677
  414loPI   PO4 6612   9.081  11.695  10.607 -0.2948  0.0313  0.0735
  414loPI   GL1 6613   8.829  11.581  10.226 -0.0435 -0.2056 -0.3276
  414loPI   GL2 6614   8.903  11.380  10.317  0.1050  0.1108 -0.1562
  414loPI   C1A 6615   8.661  11.435   9.850  0.0461 -0.1086 -0.3436
  414loPI   C2A 6616   8.707  11.463   9.515 -0.1519  0.0819 -0.1083
  414loPI   C3A 6617   8.619  11.503   9.053  0.1485 -0.1823 -0.0580
  414loPI   C4A 6618   8.592  11.488   8.739 -0.0510  0.0082 -0.1270
  414loPI   C5A 6619   8.736  11.594   8.220 -0.2186  0.1645  0.1238
  414loPI   C6A 6620   8.884  11.562   7.896 -0.0262 -0.0970 -0.2243
  414loPI   C1B 6621   9.197  11.427   9.835  0.0350 -0.2165  0.0963
  414loPI   C2B 6622   9.241  11.510   9.546 -0.1639  0.2240  0.2452
  414loPI   C3B 6623   9.093  11.507   9.160 -0.1423  0.0637  0.3069
  414loPI   C4B 6624   9.151  11.428   8.786  0.0348 -0.1521 -0.1107
  415loPI    C1 6625  17.560  18.098  10.924 -0.2618 -0.0163 -0.1222
  415loPI    C2 6626  17.786  18.368  11.113  0.0856 -0.2852 -0.1438
  415loPI    C3 6627  17.460  18.221  11.291 -0.1034  0.1372 -0.1293
  415loPI   PO4 6628  17.570  18.200  10.693  0.0298 -0.2202 -0.2384
  415loPI   GL1 6629  17.558  18.240  10.375  0.0002  0.0672  0.1486
  415loPI   GL2 6630  17.809  18.379  10.207  0.1462  0.3355 -0.0200
  415loPI   C1A 6631  17.279  18.072  10.096  0.1280 -0.0476 -0.0215
  415loPI   C2A 6632  17.215  17.993   9.649  0.2460  0.0735 -0.1941
  415loPI   C3A 6633  17.177  17.986   9.199  0.1744 -0.1982  0.1794
  415loPI   C4A 6634  17.152  17.883   8.781 -0.0540  0.0262  0.1998
  415loPI   C5A 6635  17.178  17.823   8.295 -0.4538  0.1336 -0.1751
  415loPI   C6A 6636  17.234  17.520   7.983  0.4990  0.1263 -0.1141
  415loPI   C1B 6637  17.706  17.989   9.880  0.1951 -0.2182 -0.0570
  415loPI   C2B 6638  17.707  17.920   9.409  0.1976  0.2238  0.2257
  415loPI   C3B 6639  17.661  17.878   8.956  0.0165 -0.1845 -0.0202
  415loPI   C4B 6640  17.607  17.833   8.552 -0.3282 -0.0131  0.0946
  416loPI    C1 6641   5.962   0.782  10.346 -0.1471  0.1456  0.0201
  416loPI    C2 6642   6.059   0.787  10.734  0.0774 -0.1534 -0.0282
  416loPI    C3 6643   5.694   0.668  10.621 -0.0115 -0.0008  0.0932
  416loPI   PO4 6644   6.100   0.686  10.232 -0.2215 -0.2721 -0.2436
  416loPI   GL1 6645   5.995   0.468   9.875  0.0214  0.1177 -0.3405
  416loPI   GL2 6646   6.104   0.162   9.927 -0.2878 -0.0974  0.0639
  416loPI   C1A 6647   5.727   0.541   9.543  0.4265 -0.1509  0.0023
  416loPI   C2A 6648   5.693   0.441   9.085  0.2626 -0.3750  0.0967
  416loPI   C3A 6649   5.564   0.349   8.696 -0.3242  0.0613  0.4125
  416loPI   C4A 6650   5.233   0.239   8.439 -0.0575  0.0836  0.3139
  416loPI   C5A 6651   5.006  -0.071   8.195  0.4941 -0.0121  0.0967
  416loPI   C6A 6652   4.841   0.064   7.886  0.1214 -0.1065 -0.0074
  416loPI   C1B 6653   6.174   0.281   9.488  0.2587 -0.0182 -0.0430
  416loPI   C2B 6654   6.105   0.195   9.028 -0.0866  0.3103 -0.0551
  416loPI   C3B 6655   6.036   0.173   8.554 -0.2061  0.0157 -0.2038
  416loPI   C4B 6656   5.806   0.182   8.242  0.0785  0.0795 -0.0563
  417loPI    C1 6657   6.512  10.566  10.645  0.1031 -0.1431 -0.1065
  417loPI    C2 6658   6.246  10.846  10.747  0.2991  0.0972 -0.2427
  417loPI    C3 6659   6.599  10.829  10.934  0.1577 -0.2783  0.0013
  417loPI   PO4 6660   6.524  10.552  10.394 -0.4018 -0.4406 -0.0925
  417loPI   GL1 6661   6.564  10.583   9.974  0.1944  0.0409  0.0307
  417loPI   GL2 6662   6.899  10.619   9.877 -0.1752 -0.1155 -0.1724
  417loPI   C1A 6663   6.356  10.770   9.681 -0.2513 -0.1710 -0.1334
  417loPI   C2A 6664   6.416  10.776   9.229  0.2267  0.2662 -0.2808
  417loPI   C3A 6665   6.364  10.771   8.734  0.1219  0.0401  0.0806
  417loPI   C4A 6666   6.284  10.767   8.252  0.0434  0.1189 -0.1696
  417loPI   C5A 6667   6.467  10.464   7.937  0.0132 -0.1275 -0.1012
  417loPI   C6A 6668   6.725  10.256   7.627  0.1112  0.1165  0.1574
  417loPI   C1B 6669   6.786  10.633   9.524 -0.2042  0.1014 -0.0751
  417loPI   C2B 6670   6.934  10.871   9.129  0.2873  0.0256  0.1176
  417loPI   C3B 6671   6.870  10.840   8.717 -0.0426 -0.0523  0.0109
  417loPI   C4B 6672   6.742  10.862   8.288  0.2432 -0.2427  0.3050
  418loPI    C1 6673   2.878   5.199  10.221  0.1176  0.1474 -0.1125
  418loPI    C2 6674   2.794   4.916  10.491 -0.0180  0.0254 -0.2810
  418loPI    C3 6675   2.873   5.289  10.611 -0.1137 -0.0196 -0.0750
  418loPI   PO4 6676   2.969   5.032  10.049 -0.2386  0.0003 -0.2010
  418loPI   GL1 6677   3.403   4.935   9.831 -0.0266  0.2997 -0.0158
  418loPI   GL2 6678   3.757   4.732   9.870 -0.1877 -0.1309  0.0611
  418loPI   C1A 6679   3.384   5.001   9.385 -0.0008  0.0968 -0.0537
  418loPI   C2A 6680   3.438   4.844   8.960 -0.2340 -0.1848 -0.1881
  418loPI   C3A 6681   3.301   4.625   8.678  0.3242 -0.1985  0.2389
  418loPI   C4A 6682   3.362   4.359   8.303  0.1743  0.0135 -0.2169
  418loPI   C5A 6683   3.121   4.220   8.002  0.0285 -0.2893  0.1273
  418loPI   C6A 6684   3.125   4.230   7.530 -0.0681 -0.0293  0.1276
  418loPI   C1B 6685   3.515   4.552   9.493  0.1639  0.4110 -0.1157
  418loPI   C2B 6686   3.395   4.416   9.137 -0.1127 -0.0224 -0.3012
  418loPI   C3B 6687   3.372   4.077   8.779  0.0412 -0.3568  0.0219
  418loPI   C4B 6688   3.045   3.867   8.524 -0.4528 -0.2655 -0.1063
  419loPI    C1 6689   3.137  11.198  11.148 -0.1925 -0.1058 -0.0143
  419loPI    C2 6690   3.049  11.544  11.327 -0.2819 -0.0406 -0.1818
  419loPI    C3 6691   2.970  11.198  11.511 -0.3426  0.0255 -0.0823
  419loPI   PO4 6692   3.020  11.237  10.904 -0.0596 -0.1132 -0.0100
  419loPI   GL1 6693   2.889  11.209  10.513  0.1486  0.1172 -0.1016
  419loPI   GL2 6694   2.658  11.383  10.367  0.3842 -0.0293 -0.0195
  419loPI   C1A 6695   3.042  10.936  10.111 -0.4221  0.0075  0.0924
  419loPI   C2A 6696   3.068  10.747   9.725  0.0848 -0.2321  0.0294
  419loPI   C3A 6697   3.117  10.904   9.320 -0.3547  0.2239  0.3430
  419loPI   C4A 6698   3.048  10.923   8.856 -0.2389  0.0514  0.2154
  419loPI   C5A 6699   2.982  11.039   8.376  0.0582 -0.2645  0.3485
  419loPI   C6A 6700   3.060  11.003   7.855 -0.1955 -0.0794 -0.1481
  419loPI   C1B 6701   2.805  11.328   9.900 -0.2402 -0.2439 -0.0606
  419loPI   C2B 6702   2.788  11.241   9.520 -0.0753  0.2958 -0.1337
  419loPI   C3B 6703   2.809  11.345   9.173 -0.0319  0.2324  0.0035
  419loPI   C4B 6704   2.737  11.371   8.784 -0.0753  0.1752  0.3037
  420loPI    C1 6705  13.716   0.892  10.660 -0.0019  0.0128  0.0853
  420loPI    C2 6706  13.927   1.232  10.639 -0.1285  0.0815 -0.1011
  420loPI    C3 6707  13.966   0.992  10.957  0.3543  0.0099 -0.2058
  420loPI   PO4 6708  13.762   0.799  10.460 -0.0143 -0.1833 -0.0572
  420loPI   GL1 6709  13.620   0.655  10.057  0.1430  0.0805 -0.2603
  420loPI   GL2 6710  13.947   0.709   9.948 -0.0642 -0.1716  0.0904
  420loPI   C1A 6711  13.606   0.636   9.615  0.1305  0.0528  0.1458
  420loPI   C2A 6712  13.644   0.659   9.237 -0.1497  0.0558 -0.1299
  420loPI   C3A 6713  13.702   0.598   8.811 -0.3355 -0.2001 -0.0554
  420loPI   C4A 6714  13.674   0.561   8.383  0.0832 -0.0175  0.2094
  420loPI   C5A 6715  13.384   0.495   8.005 -0.0836  0.0321  0.2134
  420loPI   C6A 6716  13.020   0.658   7.820 -0.0928  0.0464 -0.0245
  420loPI   C1B 6717  14.120   0.569   9.600 -0.1063 -0.3139  0.1647
  420loPI   C2B 6718  14.241   0.564   9.140 -0.1488  0.5097 -0.1896
  420loPI   C3B 6719  14.213   0.592   8.756 -0.1502  0.0460 -0.0760
  420loPI   C4B 6720  14.225   0.580   8.335 -0.0440 -0.0806  0.2391
  421loPI    C1 6721  11.405   3.987   9.921 -0.0229  0.2076 -0.0389
  421loPI    C2 6722  11.249   4.077  10.279 -0.2063 -0.0564 -0.0495
  421loPI    C3 6723  11.457   3.738  10.230  0.0797  0.1258 -0.1212
  421loPI   PO4 6724  11.518   4.035   9.792  0.1068 -0.2332  0.0213
  421loPI   GL1 6725  11.637   4.015   9.388 -0.1862  0.0746  0.0354
  421loPI   GL2 6726  11.669   3.694   9.383  0.1526  0.1776 -0.2137
  421loPI   C1A 6727  11.813   3.979   8.890  0.1113 -0.1484 -0.1202
  421loPI   C2A 6728  11.778   4.071   8.450  0.2112 -0.0161 -0.0928
  421loPI   C3A 6729  11.688   4.048   8.083  0.1602  0.1479  0.2282
  421loPI   C4A 6730  11.640   3.910   7.641  0.2715  0.1438 -0.0352
  421loPI   C5A 6731  11.570   4.096   7.223  0.1743  0.2455 -0.1400
  421loPI   C6A 6732  11.543   4.166   6.807  0.0324  0.3506 -0.0429
  421loPI   C1B 6733  11.454   3.626   9.040 -0.1066 -0.0219 -0.0979
  421loPI   C2B 6734  11.454   3.660   8.615 -0.0220 -0.3459 -0.0164
  421loPI   C3B 6735  11.451   3.627   8.139  0.2851  0.2342 -0.0373
  421loPI   C4B 6736  11.338   3.466   7.689 -0.0010 -0.1328 -0.1650
  422loPI    C1 6737  18.241   2.315  10.335 -0.3938  0.0008 -0.1043
  422loPI    C2 6738  18.251   2.452  10.711  0.0022  0.0238 -0.1192
  422loPI    C3 6739  18.082   2.098  10.632  0.1735 -0.1166  0.1272
  422loPI   PO4 6740  18.227   2.501  10.236  0.4110  0.0410  0.3199
  422loPI   GL1 6741  18.074   2.690   9.873 -0.1196 -0.0955  0.0015
  422loPI   GL2 6742  18.320   2.586   9.752  0.3649 -0.2775 -0.1495
  422loPI   C1A 6743  17.982   2.917   9.506  0.0131 -0.0094  0.2089
  422loPI   C2A 6744  17.730   2.850   9.187  0.0596 -0.2261  0.0523
  422loPI   C3A 6745  17.749   2.472   8.994  0.1304  0.0656  0.1425
  422loPI   C4A 6746  17.661   2.469   8.630 -0.0879 -0.0225 -0.1368
  422loPI   C5A 6747  17.750   2.685   8.247 -0.1206  0.2274  0.0611
  422loPI   C6A 6748  17.807   2.939   7.870 -0.1784 -0.0815 -0.2437
  422loPI   C1B 6749  18.306   2.458   9.365 -0.1501 -0.0326 -0.1439
  422loPI   C2B 6750  18.221   2.590   8.956  0.1408 -0.1864 -0.2583
  422loPI   C3B 6751  18.251   2.555   8.453 -0.0591  0.1376  0.0362
  422loPI   C4B 6752  18.232   2.945   8.133  0.0526 -0.0262  0.0141
  423loPI    C1 6753  16.471   4.491  10.261 -0.0206  0.0294 -0.3505
  423loPI    C2 6754  16.446   4.126  10.100 -0.2301 -0.0110 -0.2314
  423loPI    C3 6755  16.655   4.182  10.437 -0.1020  0.0023 -0.3122
  423loPI   PO4 6756  16.557   4.685  10.059  0.1647  0.0963  0.0316
  423loPI   GL1 6757  16.729   4.689   9.777 -0.1415  0.0251  0.0424
  423loPI   GL2 6758  16.957   4.868   9.641 -0.0561 -0.1256  0.2781
  423loPI   C1A 6759  16.728   4.430   9.384  0.2728  0.0955 -0.0451
  423loPI   C2A 6760  16.858   4.506   9.006 -0.0942  0.1276 -0.0312
  423loPI   C3A 6761  16.813   4.255   8.761 -0.0652  0.0355 -0.3977
  423loPI   C4A 6762  17.077   4.095   8.434  0.3235 -0.1003  0.2056
  423loPI   C5A 6763  17.248   4.091   8.042  0.3834 -0.0005 -0.0872
  423loPI   C6A 6764  17.285   4.188   7.666  0.0432  0.1445 -0.1231
  423loPI   C1B 6765  17.044   4.906   9.197  0.2768 -0.2567 -0.0953
  423loPI   C2B 6766  16.972   4.972   8.810 -0.2551 -0.0183 -0.0351
  423loPI   C3B 6767  17.012   4.700   8.552 -0.2034 -0.2036  0.1908
  423loPI   C4B 6768  17.017   4.537   8.174 -0.3340 -0.4590 -0.2315
  424loPI    C1 6769   7.662  16.958  10.166  0.0322 -0.0417 -0.0460
  424loPI    C2 6770   7.535  17.157  10.489 -0.0520 -0.0376 -0.0814
  424loPI    C3 6771   7.535  16.757  10.488 -0.4924 -0.0424 -0.2440
  424loPI   PO4 6772   7.530  17.152   9.987 -0.2555 -0.2904 -0.1326
  424loPI   GL1 6773   7.345  17.320   9.667  0.0720 -0.3012  0.0341
  424loPI   GL2 6774   7.136  17.033   9.715 -0.0010 -0.0754 -0.0336
  424loPI   C1A 6775   7.415  17.397   9.279 -0.1529 -0.0284  0.1927
  424loPI   C2A 6776   7.299  17.510   8.883 -0.0313 -0.0071  0.0057
  424loPI   C3A 6777   7.378  17.421   8.456 -0.4146  0.1588  0.1265
  424loPI   C4A 6778   7.497  17.556   8.010  0.1690  0.1993 -0.3992
  424loPI   C5A 6779   7.303  17.785   7.637 -0.2005 -0.3066  0.0979
  424loPI   C6A 6780   7.129  18.195   7.462 -0.1080  0.1692  0.0346
  424loPI   C1B 6781   7.237  16.842   9.338 -0.0414 -0.1338 -0.0077
  424loPI   C2B 6782   7.290  16.976   8.898  0.1340 -0.5691 -0.4320
  424loPI   C3B 6783   7.409  16.928   8.485 -0.0992  0.0789 -0.0184
  424loPI   C4B 6784   7.396  16.947   8.057  0.2689 -0.1848  0.3100
  425loPI    C1 6785   2.005   9.886  11.037 -0.2135 -0.0338 -0.1699
  425loPI    C2 6786   2.085   9.568  11.266 -0.1835  0.1156  0.0291
  425loPI    C3 6787   2.381   9.758  11.077 -0.1936  0.0624 -0.0401
  425loPI   PO4 6788   1.836   9.830  10.867 -0.2557 -0.2287  0.0675
  425loPI   GL1 6789   1.871   9.814  10.450 -0.0080  0.0813 -0.1046
  425loPI   GL2 6790   2.131   9.648  10.241  0.2649  0.0971  0.1690
  425loPI   C1A 6791   1.659   9.711  10.097  0.0675 -0.1728  0.2689
  425loPI   C2A 6792   1.689   9.835   9.632  0.1773 -0.2207  0.1825
  425loPI   C3A 6793   1.611   9.704   9.150  0.0350  0.0815 -0.0209
  425loPI   C4A 6794   1.614   9.731   8.754 -0.2622  0.2657  0.0687
  425loPI   C5A 6795   1.742   9.472   8.386  0.4529  0.2558  0.0403
  425loPI   C6A 6796   2.101   9.164   8.197  0.1583  0.0346 -0.1572
  425loPI   C1B 6797   2.208   9.758   9.852 -0.1220  0.2641 -0.0407
  425loPI   C2B 6798   2.127   9.827   9.419  0.0354  0.1169 -0.0799
  425loPI   C3B 6799   2.068   9.844   8.990  0.2726  0.2709 -0.0894
  425loPI   C4B 6800   2.054   9.940   8.518  0.0434  0.1576 -0.3303
  426loPI    C1 6801  10.110   9.949  10.677  0.0890 -0.3423 -0.0186
  426loPI    C2 6802  10.138  10.196  10.990 -0.1751 -0.0861 -0.1922
  426loPI    C3 6803  10.168   9.801  11.044 -0.1609 -0.0417  0.1464
  426loPI   PO4 6804   9.869  10.095  10.539  0.1126  0.0908  0.2638
  426loPI   GL1 6805   9.855  10.346  10.232 -0.0472  0.0845 -0.1555
  426loPI   GL2 6806   9.945  10.652  10.228 -0.1297  0.1409  0.4242
  426loPI   C1A 6807   9.641  10.229   9.832 -0.0057 -0.1765 -0.2207
  426loPI   C2A 6808   9.576  10.214   9.340 -0.3434  0.3634  0.1558
  426loPI   C3A 6809   9.539  10.125   8.922 -0.0809 -0.1608  0.4014
  426loPI   C4A 6810   9.411  10.223   8.560 -0.0204 -0.0573  0.1817
  426loPI   C5A 6811   9.446  10.642   8.277 -0.3388 -0.1419 -0.1514
  426loPI   C6A 6812   9.591  10.694   7.876  0.2043  0.0632 -0.2612
  426loPI   C1B 6813   9.845  10.705   9.819 -0.0825 -0.1577 -0.1310
  426loPI   C2B 6814   9.733  10.752   9.370 -0.1269  0.1418 -0.3136
  426loPI   C3B 6815   9.779  10.605   9.015  0.0970  0.0122  0.1632
  426loPI   C4B 6816   9.722  10.683   8.676 -0.3904  0.3151  0.2963
  427loPI    C1 6817   6.722  17.172   9.944  0.0284 -0.1640  0.0336
  427loPI    C2 6818   6.411  17.196  10.195  0.0132  0.0137 -0.0011
  427loPI    C3 6819   6.665  17.503  10.162  0.0022  0.0007 -0.2199
  427loPI   PO4 6820   6.542  17.048   9.741  0.1799 -0.2115  0.0814
  427loPI   GL1 6821   6.472  17.083   9.321  0.2713  0.0118 -0.1136
  427loPI   GL2 6822   6.783  16.804   9.380 -0.1192 -0.1332  0.2417
  427loPI   C1A 6823   6.196  17.174   8.940 -0.1031  0.1834 -0.3965
  427loPI   C2A 6824   6.432  17.331   8.484  0.2496  0.1218 -0.4466
  427loPI   C3A 6825   6.546  17.728   8.209 -0.1547  0.1305 -0.1253
  427loPI   C4A 6826   6.660  18.078   8.459  0.2012  0.0311  0.2652
  427loPI   C5A 6827   7.007  18.126   8.700 -0.1384  0.2312 -0.1783
  427loPI   C6A 6828   7.194  18.225   9.025 -0.4292 -0.0006 -0.1776
  427loPI   C1B 6829   6.945  16.644   8.903 -0.0717  0.2452 -0.1602
  427loPI   C2B 6830   6.910  16.728   8.530  0.0183  0.1362  0.0864
  427loPI   C3B 6831   6.834  17.050   8.332  0.2956  0.2183  0.1519
  427loPI   C4B 6832   6.596  17.176   7.940  0.1311  0.3266 -0.1347
  428loPI    C1 6833  17.788   6.517  10.659  0.0183  0.2006 -0.0642
  428loPI    C2 6834  17.541   6.219  10.762  0.3046  0.1239  0.4339
  428loPI    C3 6835  17.397   6.544  10.578 -0.0407 -0.2348  0.0491
  428loPI   PO4 6836  17.960   6.395  10.457  0.0216 -0.0312  0.0936
  428loPI   GL1 6837  17.658   6.259  10.005 -0.2149  0.2404  0.1950
  428loPI   GL2 6838  17.498   5.895   9.924 -0.0450  0.2702 -0.0085
  428loPI   C1A 6839  17.666   6.352   9.567  0.0204  0.2358  0.0426
  428loPI   C2A 6840  17.657   6.285   9.150  0.1181  0.3564  0.1825
  428loPI   C3A 6841  17.671   6.248   8.708  0.3321  0.0402  0.1828
  428loPI   C4A 6842  17.721   6.334   8.308 -0.1211  0.0858 -0.3576
  428loPI   C5A 6843  17.523   6.575   7.937 -0.2973  0.1951  0.1019
  428loPI   C6A 6844  17.697   6.964   7.790 -0.1399 -0.0659  0.0050
  428loPI   C1B 6845  17.525   5.852   9.470  0.1654 -0.2403 -0.0034
  428loPI   C2B 6846  17.426   5.791   9.056  0.0345 -0.1732  0.1175
  428loPI   C3B 6847  17.436   5.825   8.556  0.0409  0.0231 -0.2744
  428loPI   C4B 6848  17.305   6.073   8.275 -0.0791  0.2272 -0.1432
  429loPI    C1 6849  10.867  10.100  10.347 -0.1279  0.0744  0.0012
  429loPI    C2 6850  11.052  10.018  10.693  0.0496  0.1278 -0.0798
  429loPI    C3 6851  10.659   9.951  10.655  0.0019  0.2524  0.1772
  429loPI   PO4 6852  11.079   9.973  10.196 -0.0540 -0.0542  0.1254
  429loPI   GL1 6853  11.268  10.000   9.813 -0.1987 -0.3437  0.1918
  429loPI   GL2 6854  10.942   9.844   9.673 -0.1177  0.0402 -0.2218
  429loPI   C1A 6855  11.143  10.276   9.385  0.1216 -0.2449 -0.0664
  429loPI   C2A 6856  11.013  10.289   8.937 -0.0370  0.0735 -0.1436
  429loPI   C3A 6857  11.050  10.213   8.553  0.0399 -0.4943  0.1198
  429loPI   C4A 6858  11.095  10.358   8.095 -0.1533 -0.0808  0.1632
  429loPI   C5A 6859  10.848  10.576   7.850 -0.1300 -0.0207 -0.2077
  429loPI   C6A 6860  10.577  10.264   7.630 -0.1182 -0.1035 -0.3268
  429loPI   C1B 6861  10.899   9.821   9.272 -0.0809 -0.1932  0.0667
  429loPI   C2B 6862  10.752   9.830   8.872 -0.0818  0.5539  0.2262
  429loPI   C3B 6863  10.731   9.837   8.469 -0.0383 -0.2989 -0.0091
  429loPI   C4B 6864  10.665   9.800   8.019  0.1004  0.0841 -0.0288
  430loPI    C1 6865  11.812   8.470  10.540  0.3359  0.0279  0.1335
  430loPI    C2 6866  11.988   8.126  10.643  0.0424 -0.1609  0.0188
  430loPI    C3 6867  11.656   8.244  10.832  0.0781  0.0033 -0.0202
  430loPI   PO4 6868  12.051   8.542  10.362 -0.1242  0.0315 -0.3919
  430loPI   GL1 6869  12.076   8.681   9.919  0.1010  0.2244 -0.0770
  430loPI   GL2 6870  12.310   8.597   9.636  0.0344 -0.1116 -0.1776
  430loPI   C1A 6871  11.897   8.856   9.537  0.4682  0.2763 -0.0517
  430loPI   C2A 6872  11.894   8.884   9.100 -0.1273  0.0559  0.1499
  430loPI   C3A 6873  11.827   8.967   8.585 -0.0264 -0.1793 -0.0888
  430loPI   C4A 6874  11.805   9.032   8.242 -0.0143 -0.5535 -0.1958
  430loPI   C5A 6875  11.747   8.912   7.869  0.0695  0.3761 -0.0333
  430loPI   C6A 6876  11.588   8.749   7.489 -0.0520 -0.0113 -0.0131
  430loPI   C1B 6877  12.157   8.478   9.167 -0.0229 -0.2159 -0.1132
  430loPI   C2B 6878  12.161   8.420   8.780 -0.0346  0.0988 -0.1029
  430loPI   C3B 6879  12.134   8.595   8.381  0.0671  0.0841 -0.1828
  430loPI   C4B 6880  12.210   8.677   7.956 -0.0905 -0.0498 -0.0002
  431loPI    C1 6881   6.866   2.690  10.305  0.2353  0.2535  0.0567
  431loPI    C2 6882   6.594   2.853  10.062 -0.0140 -0.1499  0.0552
  431loPI    C3 6883   6.586   2.933  10.454 -0.0365 -0.0396  0.0329
  431loPI   PO4 6884   7.027   2.660  10.151  0.2937  0.1339  0.0145
  431loPI   GL1 6885   6.981   2.887   9.705  0.0193 -0.0143  0.0106
  431loPI   GL2 6886   7.312   2.701   9.702 -0.1587  0.1052 -0.2311
  431loPI   C1A 6887   6.876   3.149   9.367  0.3406 -0.0629 -0.0744
  431loPI   C2A 6888   6.758   3.198   8.866 -0.1816  0.1442 -0.0175
  431loPI   C3A 6889   6.683   3.175   8.473 -0.2602  0.2486  0.0296
  431loPI   C4A 6890   6.406   2.998   8.320 -0.2171 -0.2096 -0.1394
  431loPI   C5A 6891   6.253   2.899   7.860  0.1647  0.0473 -0.0318
  431loPI   C6A 6892   6.013   2.572   7.711 -0.1541  0.0968 -0.2782
  431loPI   C1B 6893   7.296   2.887   9.308  0.4376 -0.0232 -0.1538
  431loPI   C2B 6894   7.138   2.865   8.860  0.3087 -0.5855 -0.0747
  431loPI   C3B 6895   7.197   2.904   8.471 -0.5520 -0.1504  0.0301
  431loPI   C4B 6896   6.939   2.907   8.136  0.0121 -0.1784  0.2874
  432loPI    C1 6897   5.410  16.385  10.414 -0.2833  0.1068 -0.0378
  432loPI    C2 6898   5.618  16.725  10.448 -0.0763 -0.0321  0.1124
  432loPI    C3 6899   5.584  16.480  10.762 -0.1808 -0.1751 -0.0093
  432loPI   PO4 6900   5.484  16.251  10.195  0.1898  0.0522 -0.2188
  432loPI   GL1 6901   5.399  16.002   9.939  0.0567  0.3630 -0.0916
  432loPI   GL2 6902   5.060  16.125   9.775 -0.2706  0.2874  0.0873
  432loPI   C1A 6903   5.655  15.734   9.722  0.1764  0.1153  0.4507
  432loPI   C2A 6904   5.858  15.626   9.177  0.0672 -0.0996 -0.0630
  432loPI   C3A 6905   6.252  15.499   9.171 -0.3034 -0.1455 -0.0694
  432loPI   C4A 6906   6.529  15.237   9.377 -0.0774  0.0026  0.0251
  432loPI   C5A 6907   6.789  14.978   9.064  0.0620  0.0073  0.2300
  432loPI   C6A 6908   7.033  14.860   8.678  0.0502 -0.0971  0.1024
  432loPI   C1B 6909   4.832  16.003   9.370  0.1085  0.0386 -0.1988
  432loPI   C2B 6910   4.982  15.945   8.998  0.1351 -0.1247 -0.2803
  432loPI   C3B 6911   5.101  16.143   8.602 -0.0626 -0.3119  0.1577
  432loPI   C4B 6912   4.885  15.896   8.258  0.1512 -0.2136  0.2515
  433loPI    C1 6913   3.831   3.009  10.236  0.0997  0.1601  0.0647
  433loPI    C2 6914   3.487   3.197  10.159 -0.0622 -0.0564  0.2471
  433loPI    C3 6915   3.602   3.138  10.538  0.0926 -0.1350  0.1886
  433loPI   PO4 6916   3.838   2.851  10.014 -0.0981 -0.0761  0.1042
  433loPI   GL1 6917   3.945   2.870   9.672  0.1225 -0.2751 -0.1726
  433loPI   GL2 6918   3.565   2.918   9.593  0.3549 -0.1506  0.0308
  433loPI   C1A 6919   4.017   2.730   9.280 -0.1076  0.3122  0.3142
  433loPI   C2A 6920   4.003   2.759   8.896 -0.0544 -0.0642 -0.1709
  433loPI   C3A 6921   3.930   2.642   8.485 -0.0910  0.1004 -0.1849
  433loPI   C4A 6922   3.844   2.760   8.123 -0.0174 -0.3000  0.0344
  433loPI   C5A 6923   3.644   3.113   7.974 -0.1156 -0.1515  0.1056
  433loPI   C6A 6924   3.662   3.449   7.794 -0.0401 -0.0419  0.3116
  433loPI   C1B 6925   3.505   2.886   9.124  0.0947  0.0421 -0.0329
  433loPI   C2B 6926   3.410   2.714   8.650 -0.3255  0.0518  0.1681
  433loPI   C3B 6927   3.342   2.791   8.150  0.3805  0.2845  0.3106
  433loPI   C4B 6928   3.332   2.720   7.706  0.0611  0.0534 -0.2460
  434loPI    C1 6929   9.260   4.134   9.914  0.0308  0.1062 -0.0991
  434loPI    C2 6930   9.097   3.933  10.219 -0.0835  0.2328 -0.0760
  434loPI    C3 6931   8.967   4.301  10.130  0.0910  0.2775 -0.1486
  434loPI   PO4 6932   9.326   3.929   9.756 -0.4361  0.1621  0.1824
  434loPI   GL1 6933   9.522   4.086   9.417 -0.0757 -0.0016  0.0883
  434loPI   GL2 6934   9.768   3.786   9.403 -0.1532  0.0224  0.0829
  434loPI   C1A 6935   9.393   4.075   9.027  0.0500  0.1173  0.1859
  434loPI   C2A 6936   9.334   4.042   8.567  0.0858 -0.0789 -0.2179
  434loPI   C3A 6937   9.412   3.875   8.134  0.0857 -0.2030 -0.1156
  434loPI   C4A 6938   9.490   3.545   7.765  0.0688  0.0999 -0.2584
  434loPI   C5A 6939   9.644   3.107   7.815 -0.3533  0.0821  0.1639
  434loPI   C6A 6940   9.959   2.866   7.603  0.1859  0.1683 -0.0419
  434loPI   C1B 6941   9.898   3.736   8.970 -0.0890  0.3614 -0.2051
  434loPI   C2B 6942   9.892   3.767   8.579  0.1155  0.0744  0.1256
  434loPI   C3B 6943   9.939   3.804   8.121  0.0543  0.0940 -0.1241
  434loPI   C4B 6944   9.728   4.025   7.818 -0.0564  0.0756 -0.2565
  435loPI    C1 6945   9.855  13.485  10.823  0.0318  0.1147  0.0071
  435loPI    C2 6946  10.158  13.235  10.899 -0.1666 -0.1756 -0.1373
  435loPI    C3 6947  10.096  13.552  11.135  0.2717 -0.0883 -0.1304
  435loPI   PO4 6948   9.897  13.512  10.561  0.2800  0.0468 -0.0418
  435loPI   GL1 6949  10.226  13.284  10.366  0.1318 -0.2268  0.0076
  435loPI   GL2 6950  10.122  13.057  10.191 -0.1649  0.0538  0.0364
  435loPI   C1A 6951  10.023  13.412   9.837 -0.2361  0.1078 -0.2233
  435loPI   C2A 6952   9.909  13.313   9.402  0.2132  0.0936  0.0292
  435loPI   C3A 6953   9.981  13.279   8.953  0.0582 -0.3608 -0.1380
  435loPI   C4A 6954   9.969  13.267   8.466  0.3073  0.1158  0.0601
  435loPI   C5A 6955   9.993  13.379   8.057 -0.0325  0.0660 -0.2156
  435loPI   C6A 6956   9.679  13.212   7.816  0.1083 -0.2880  0.1493
  435loPI   C1B 6957  10.206  12.905   9.827 -0.0376 -0.2164 -0.1348
  435loPI   C2B 6958  10.262  12.999   9.367 -0.0161 -0.1432  0.2651
  435loPI   C3B 6959  10.237  12.902   9.052  0.1444  0.0042  0.2219
  435loPI   C4B 6960  10.276  12.886   8.591  0.3143 -0.2846  0.0910
  436loPI    C1 6961   1.473   2.613  10.346  0.0363 -0.0027  0.1752
  436loPI    C2 6962   1.179   2.882  10.382  0.0887  0.0910 -0.0752
  436loPI    C3 6963   1.560   2.993  10.434  0.1274  0.1183 -0.3974
  436loPI   PO4 6964   1.467   2.495  10.125 -0.0952  0.0304  0.1463
  436loPI   GL1 6965   1.211   2.475   9.850  0.2578  0.1180  0.2664
  436loPI   GL2 6966   1.053   2.771   9.938 -0.0321  0.1074  0.2261
  436loPI   C1A 6967   1.377   2.425   9.363  0.1192  0.1308  0.0156
  436loPI   C2A 6968   1.629   2.754   9.071 -0.0456 -0.0160 -0.3851
  436loPI   C3A 6969   1.499   2.907   8.681 -0.0058 -0.0338  0.2101
  436loPI   C4A 6970   1.654   2.899   8.244  0.2505 -0.4153  0.2618
  436loPI   C5A 6971   1.972   2.649   8.138 -0.3712  0.0351  0.3122
  436loPI   C6A 6972   2.119   2.270   7.949 -0.1663 -0.3275 -0.1760
  436loPI   C1B 6973   1.100   2.834   9.517  0.0478  0.0159 -0.1406
  436loPI   C2B 6974   1.145   2.778   9.001 -0.1707  0.0147 -0.3889
  436loPI   C3B 6975   1.158   2.492   8.741  0.4407 -0.1543  0.3156
  436loPI   C4B 6976   1.304   2.546   8.391  0.0781  0.0898  0.3822
  437loPI    C1 6977   9.064   5.003   9.965  0.0571  0.0081  0.2117
  437loPI    C2 6978   8.702   4.844  10.028 -0.0511  0.2113  0.1167
  437loPI    C3 6979   8.977   4.839  10.319 -0.0718 -0.0921  0.1344
  437loPI   PO4 6980   9.095   5.000   9.681 -0.3547 -0.1881 -0.2194
  437loPI   GL1 6981   9.008   5.280   9.359 -0.1450 -0.0741  0.0118
  437loPI   GL2 6982   9.343   5.272   9.307  0.0470 -0.0112 -0.2169
  437loPI   C1A 6983   8.931   5.205   9.000  0.0821  0.3492 -0.1326
  437loPI   C2A 6984   9.037   5.048   8.669  0.1326  0.1630 -0.3287
  437loPI   C3A 6985   9.059   5.062   8.303  0.0163 -0.1152 -0.2789
  437loPI   C4A 6986   9.172   4.931   7.883  0.0070 -0.2006  0.0430
  437loPI   C5A 6987   9.206   4.968   7.427  0.0529 -0.0588  0.0897
  437loPI   C6A 6988   8.982   5.240   7.176 -0.0660 -0.1389  0.1519
  437loPI   C1B 6989   9.468   5.017   9.012  0.1372  0.0160  0.1985
  437loPI   C2B 6990   9.556   4.522   8.853  0.1005 -0.1047  0.1527
  437loPI   C3B 6991   9.720   4.274   8.617  0.1153  0.2441  0.2380
  437loPI   C4B 6992   9.785   4.373   8.169  0.0946 -0.0042 -0.1494
  438loPI    C1 6993   9.573   0.946  10.285 -0.2109  0.2840 -0.0972
  438loPI    C2 6994   9.418   0.718  10.574 -0.0547  0.2736 -0.0209
  438loPI    C3 6995   9.554   1.084  10.659  0.2901  0.1477 -0.0146
  438loPI   PO4 6996   9.687   0.792  10.042  0.1156 -0.0702  0.0334
  438loPI   GL1 6997   9.797   0.864   9.571 -0.0049 -0.1619  0.1766
  438loPI   GL2 6998   9.527   0.842   9.422  0.1790  0.1360  0.0967
  438loPI   C1A 6999  10.091   0.764   9.283  0.1720 -0.0388 -0.2837
  438loPI   C2A 7000  10.137   0.860   8.849 -0.2938  0.1015 -0.0340
  438loPI   C3A 7001  10.122   1.002   8.399 -0.1001  0.0167  0.1199
  438loPI   C4A 7002  10.282   0.861   7.925  0.2512 -0.3144 -0.1106
  438loPI   C5A 7003  10.620   1.017   7.608 -0.0372 -0.1463  0.0007
  438loPI   C6A 7004  11.092   0.865   7.601 -0.1417 -0.3690  0.2980
  438loPI   C1B 7005   9.631   0.867   8.997  0.1324 -0.3743 -0.2519
  438loPI   C2B 7006   9.567   0.937   8.504  0.2498  0.4383 -0.3559
  438loPI   C3B 7007   9.758   0.950   8.074  0.2418 -0.3292 -0.0249
  438loPI   C4B 7008   9.879   0.961   7.644  0.4355  0.2073  0.1410
  439loPI    C1 7009   5.394   5.080  10.268 -0.0738 -0.0838 -0.1222
  439loPI    C2 7010   5.340   5.193  10.648  0.1875  0.0882 -0.1338
  439loPI    C3 7011   5.039   5.026  10.444 -0.0044  0.1493  0.0954
  439loPI   PO4 7012   5.795   5.125  10.151 -0.0236  0.0513 -0.0598
  439loPI   GL1 7013   6.153   5.095   9.850  0.0007  0.0162 -0.1994
  439loPI   GL2 7014   6.109   4.766   9.815 -0.0681  0.1253 -0.0369
  439loPI   C1A 7015   6.184   5.220   9.343 -0.1893  0.1230  0.1666
  439loPI   C2A 7016   6.190   5.366   8.976 -0.3106  0.0633  0.1042
  439loPI   C3A 7017   6.116   5.547   8.576  0.3084 -0.2647 -0.1116
  439loPI   C4A 7018   5.906   5.608   8.209  0.1747  0.1873  0.0394
  439loPI   C5A 7019   5.896   5.431   7.918  0.2002  0.2200 -0.2059
  439loPI   C6A 7020   6.029   5.161   7.556  0.1078  0.2664 -0.1251
  439loPI   C1B 7021   5.773   4.564   9.586 -0.1556  0.0991  0.0954
  439loPI   C2B 7022   5.736   4.549   9.098  0.1518 -0.0096 -0.1952
  439loPI   C3B 7023   5.606   4.665   8.585 -0.1944 -0.3217  0.2696
  439loPI   C4B 7024   5.505   4.567   8.158  0.0842 -0.2704 -0.0840
  440loPI    C1 7025  13.068  14.842  10.561 -0.0769  0.1346  0.2094
  440loPI    C2 7026  12.721  14.769  10.376 -0.0838  0.1326  0.2228
  440loPI    C3 7027  12.851  14.521  10.661 -0.0973  0.1626  0.2552
  440loPI   PO4 7028  13.255  14.913  10.300 -0.0701  0.0016 -0.1201
  440loPI   GL1 7029  13.263  14.840   9.897  0.1200 -0.1659  0.0219
  440loPI   GL2 7030  12.940  14.918   9.933  0.0751 -0.1458 -0.3703
  440loPI   C1A 7031  13.176  14.617   9.609  0.2112 -0.2361  0.1571
  440loPI   C2A 7032  13.027  14.467   9.202 -0.1513 -0.0536  0.1024
  440loPI   C3A 7033  12.996  14.438   8.791  0.2499  0.1038 -0.1636
  440loPI   C4A 7034  13.136  14.466   8.326 -0.2973 -0.1322 -0.1096
  440loPI   C5A 7035  13.352  14.289   8.011  0.0442 -0.2074  0.3323
  440loPI   C6A 7036  13.408  14.391   7.573  0.0421 -0.1833 -0.1472
  440loPI   C1B 7037  12.775  14.843   9.403  0.2514  0.2349 -0.0246
  440loPI   C2B 7038  12.741  14.837   8.995 -0.0933  0.0644 -0.3297
  440loPI   C3B 7039  12.530  15.037   8.752 -0.0909 -0.0985 -0.1421
  440loPI   C4B 7040  12.757  14.997   8.289  0.0032 -0.0814  0.2324
  441loPI    C1 7041   4.127  12.904  11.139 -0.0865  0.0083  0.0957
  441loPI    C2 7042   4.440  12.660  11.090  0.0997  0.2676 -0.0286
  441loPI    C3 7043   4.429  12.911  11.401 -0.1518  0.0157  0.1710
  441loPI   PO4 7044   4.091  13.042  10.842 -0.0293 -0.3492 -0.0801
  441loPI   GL1 7045   4.192  13.023  10.338  0.1490 -0.2662 -0.1970
  441loPI   GL2 7046   3.928  13.203  10.364  0.2952 -0.2517  0.1492
  441loPI   C1A 7047   3.981  12.858   9.913  0.2078  0.1770 -0.1808
  441loPI   C2A 7048   3.872  12.776   9.507 -0.0071 -0.0646  0.3378
  441loPI   C3A 7049   3.876  12.702   9.114 -0.0608 -0.2738  0.0500
  441loPI   C4A 7050   4.024  12.809   8.707  0.0688 -0.1208 -0.1978
  441loPI   C5A 7051   3.857  12.860   8.298 -0.0121 -0.2366  0.1877
  441loPI   C6A 7052   3.449  12.770   8.195  0.3825  0.1454  0.0844
  441loPI   C1B 7053   3.670  13.247  10.034 -0.1762  0.4675 -0.3198
  441loPI   C2B 7054   3.598  13.207   9.634 -0.1549  0.1476  0.2391
  441loPI   C3B 7055   3.594  13.138   9.210 -0.2836 -0.1677 -0.3500
  441loPI   C4B 7056   3.526  13.308   8.822  0.4258 -0.1394  0.1280
  442loPI    C1 7057   0.654   7.582  10.884 -0.1991 -0.1122 -0.0846
  442loPI    C2 7058   0.891   7.422  11.164 -0.1852  0.0549  0.0002
  442loPI    C3 7059   0.530   7.563  11.264 -0.1972  0.0768 -0.0738
  442loPI   PO4 7060   0.915   7.727  10.691 -0.0275 -0.1448  0.0708
  442loPI   GL1 7061   0.977   7.767  10.259  0.1251  0.0115 -0.0587
  442loPI   GL2 7062   1.250   7.546  10.250  0.1316 -0.2047 -0.0343
  442loPI   C1A 7063   0.671   7.815   9.910  0.0108 -0.0390  0.1603
  442loPI   C2A 7064   0.789   7.880   9.502 -0.0596  0.1401  0.0385
  442loPI   C3A 7065   0.753   7.769   9.085 -0.0642  0.1243 -0.0441
  442loPI   C4A 7066   0.830   7.851   8.683  0.1368  0.0886 -0.4144
  442loPI   C5A 7067   0.939   8.213   8.262  0.3119  0.1063  0.1256
  442loPI   C6A 7068   1.226   8.222   7.922  0.1326 -0.1514  0.2082
  442loPI   C1B 7069   1.212   7.722   9.839 -0.0001  0.0661  0.1363
  442loPI   C2B 7070   1.253   7.829   9.355 -0.0089  0.0342 -0.1177
  442loPI   C3B 7071   1.385   7.996   8.934  0.1706 -0.2971  0.2815
  442loPI   C4B 7072   1.366   7.998   8.449  0.0728 -0.2570  0.1604
  443loPI    C1 7073   5.510   4.640  10.688  0.3336  0.0108 -0.0670
  443loPI    C2 7074   5.755   4.946  10.611  0.1085  0.2920  0.2974
  443loPI    C3 7075   5.645   4.868  10.987  0.2237 -0.2913  0.2201
  443loPI   PO4 7076   5.322   4.600  10.492 -0.0012 -0.2596  0.0066
  443loPI   GL1 7077   5.343   4.670  10.021 -0.2226  0.3717 -0.1693
  443loPI   GL2 7078   5.482   4.892   9.803 -0.0256 -0.1630  0.0072
  443loPI   C1A 7079   5.137   4.655   9.622  0.0271  0.0206 -0.1151
  443loPI   C2A 7080   5.272   4.685   9.263  0.0422 -0.4858 -0.2790
  443loPI   C3A 7081   5.277   4.912   8.837 -0.2702 -0.1870  0.1416
  443loPI   C4A 7082   5.224   4.939   8.439 -0.2636  0.1451  0.1648
  443loPI   C5A 7083   5.091   4.901   8.115 -0.1960 -0.1468 -0.2130
  443loPI   C6A 7084   5.042   5.156   7.761 -0.1546 -0.3344  0.1093
  443loPI   C1B 7085   5.690   5.076   9.372  0.0413  0.0289 -0.1595
  443loPI   C2B 7086   5.739   5.056   8.985 -0.0820 -0.0308 -0.1155
  443loPI   C3B 7087   5.719   5.193   8.573  0.0166 -0.0258 -0.0885
  443loPI   C4B 7088   5.712   5.019   8.191 -0.0537  0.1753 -0.2514
  444loPI    C1 7089  14.722  18.415  10.671  0.0969 -0.1873  0.1134
  444loPI    C2 7090  14.797  18.097  10.902  0.0907 -0.1010  0.2355
  444loPI    C3 7091  14.493  18.341  10.990 -0.1399 -0.2697 -0.0734
  444loPI   PO4 7092  14.680  18.397  10.443  0.0654 -0.2809  0.0148
  444loPI   GL1 7093  14.622  18.080  10.092  0.1384 -0.0830  0.3098
  444loPI   GL2 7094  14.558  18.337   9.899  0.1461  0.0541 -0.0365
  444loPI   C1A 7095  14.764  17.852   9.762  0.2129 -0.0689 -0.1059
  444loPI   C2A 7096  14.812  17.728   9.307 -0.1357 -0.0845 -0.0608
  444loPI   C3A 7097  14.896  17.731   8.766  0.3212  0.0082 -0.1266
  444loPI   C4A 7098  15.058  17.602   8.332 -0.1570 -0.0109  0.2194
  444loPI   C5A 7099  15.318  17.503   7.952 -0.0100  0.0261 -0.0600
  444loPI   C6A 7100  15.274  17.379   7.503  0.1782 -0.1020 -0.0412
  444loPI   C1B 7101  14.649  18.216   9.412 -0.4271 -0.0743  0.4480
  444loPI   C2B 7102  14.661  18.121   9.066 -0.1849  0.0979  0.0852
  444loPI   C3B 7103  14.692  18.205   8.663  0.1729  0.1898  0.3130
  444loPI   C4B 7104  14.789  18.035   8.250  0.0250 -0.0054 -0.0848
  445loPI    C1 7105   7.070   3.866  10.504 -0.2505 -0.0861 -0.0639
  445loPI    C2 7106   7.020   4.253  10.592 -0.1006 -0.0635 -0.0759
  445loPI    C3 7107   6.874   3.971  10.836 -0.0774  0.0004  0.0121
  445loPI   PO4 7108   7.002   3.769  10.248  0.1327  0.1985  0.0459
  445loPI   GL1 7109   6.980   3.530   9.893 -0.3146 -0.2703  0.0540
  445loPI   GL2 7110   7.186   3.345   9.808  0.0531  0.1081  0.1784
  445loPI   C1A 7111   6.900   3.633   9.509  0.0369 -0.2480  0.2790
  445loPI   C2A 7112   6.897   3.604   9.095 -0.0995 -0.0845 -0.2716
  445loPI   C3A 7113   6.622   3.645   8.737  0.1900 -0.0941  0.0272
  445loPI   C4A 7114   6.604   3.719   8.277 -0.2103  0.3272  0.2399
  445loPI   C5A 7115   6.593   3.958   7.965  0.0214  0.3169  0.1106
  445loPI   C6A 7116   6.653   4.386   7.888 -0.0576  0.0376  0.0154
  445loPI   C1B 7117   7.409   3.358   9.453  0.0639 -0.3225  0.2229
  445loPI   C2B 7118   7.333   3.441   9.017 -0.0660 -0.0503  0.1992
  445loPI   C3B 7119   7.200   3.383   8.662  0.2683 -0.1410  0.0434
  445loPI   C4B 7120   7.128   3.384   8.242 -0.3159  0.2168  0.2115
  446loPI    C1 7121   5.419   7.480  10.806  0.0305  0.0759  0.2117
  446loPI    C2 7122   5.072   7.414  10.994 -0.0460 -0.0688  0.0238
  446loPI    C3 7123   5.385   7.175  11.063 -0.0696 -0.1129 -0.0219
  446loPI   PO4 7124   5.392   7.512  10.586 -0.1573 -0.2055 -0.2912
  446loPI   GL1 7125   5.383   7.517  10.246 -0.0356 -0.3468  0.1322
  446loPI   GL2 7126   5.122   7.614  10.107  0.0504  0.1711 -0.0533
  446loPI   C1A 7127   5.587   7.564   9.778 -0.0739  0.0673  0.0152
  446loPI   C2A 7128   5.666   7.614   9.456 -0.1718 -0.0314 -0.3673
  446loPI   C3A 7129   5.705   7.737   8.953  0.1955 -0.0400  0.3643
  446loPI   C4A 7130   5.681   7.927   8.492 -0.0521 -0.1713 -0.3915
  446loPI   C5A 7131   5.478   8.085   8.185  0.0420  0.1584  0.0536
  446loPI   C6A 7132   5.532   8.067   7.771  0.0822  0.1226 -0.2588
  446loPI   C1B 7133   5.259   7.921   9.706 -0.2126 -0.2660  0.0639
  446loPI   C2B 7134   5.233   7.934   9.338 -0.1043 -0.0746 -0.4937
  446loPI   C3B 7135   5.261   7.940   8.964  0.2874  0.1119 -0.1087
  446loPI   C4B 7136   5.224   8.007   8.641  0.2691 -0.2505  0.0316
  447loPI    C1 7137   3.942   4.624  10.533  0.0430  0.0933  0.0114
  447loPI    C2 7138   3.641   4.807  10.721 -0.0639 -0.1440  0.0751
  447loPI    C3 7139   3.860   4.534  10.914  0.1973  0.0300  0.0307
  447loPI   PO4 7140   3.937   4.643  10.287 -0.2311  0.0459  0.0786
  447loPI   GL1 7141   4.108   4.381   9.980  0.2595  0.0645 -0.1455
  447loPI   GL2 7142   3.804   4.139   9.771 -0.1048  0.1634  0.2557
  447loPI   C1A 7143   4.090   4.461   9.524 -0.0798 -0.1104  0.1430
  447loPI   C2A 7144   3.934   4.529   9.141  0.0029 -0.1787  0.0758
  447loPI   C3A 7145   3.750   4.529   8.657  0.2138  0.1295 -0.1135
  447loPI   C4A 7146   3.835   4.684   8.264  0.0924 -0.0507  0.1455
  447loPI   C5A 7147   3.984   4.809   7.880 -0.3786 -0.0354 -0.0289
  447loPI   C6A 7148   4.024   5.033   7.424  0.1763  0.0886  0.1367
  447loPI   C1B 7149   3.738   4.124   9.348  0.1004 -0.0020  0.3619
  447loPI   C2B 7150   3.830   4.095   8.891 -0.1185 -0.2515 -0.1094
  447loPI   C3B 7151   3.781   4.080   8.529 -0.3196 -0.1929 -0.2658
  447loPI   C4B 7152   3.742   4.040   8.116  0.2458  0.0233  0.4328
  448loPI    C1 7153  14.431   9.747  10.680 -0.1722 -0.0286 -0.1187
  448loPI    C2 7154  14.430  10.145  10.635  0.0760 -0.0195 -0.0546
  448loPI    C3 7155  14.375   9.984  10.998  0.3331 -0.0323 -0.0194
  448loPI   PO4 7156  14.582   9.708  10.393  0.0051 -0.2258 -0.0276
  448loPI   GL1 7157  14.296   9.962  10.090  0.0248  0.1982 -0.0355
  448loPI   GL2 7158  14.351  10.301  10.189 -0.3039 -0.0119 -0.2998
  448loPI   C1A 7159  14.378   9.975   9.799 -0.3534 -0.1002  0.1185
  448loPI   C2A 7160  14.399  10.037   9.363  0.0720  0.2135 -0.3551
  448loPI   C3A 7161  14.363  10.115   8.962  0.1389 -0.1808  0.1474
  448loPI   C4A 7162  14.179  10.101   8.455  0.0129 -0.0382 -0.0102
  448loPI   C5A 7163  14.041  10.070   8.008 -0.1504 -0.2535 -0.0956
  448loPI   C6A 7164  13.947  10.129   7.635  0.0733  0.1493 -0.0365
  448loPI   C1B 7165  14.517  10.456   9.732 -0.0840  0.1393  0.1407
  448loPI   C2B 7166  14.578  10.524   9.301 -0.0037 -0.3002  0.1320
  448loPI   C3B 7167  14.639  10.543   8.915  0.0865  0.1906  0.0030
  448loPI   C4B 7168  14.695  10.509   8.513  0.2405 -0.0460  0.2482
  449loPI    C1 7169  16.272   6.297  10.405  0.1834  0.2579  0.0371
  449loPI    C2 7170  15.958   6.491  10.560 -0.0731 -0.1194  0.0008
  449loPI    C3 7171  15.901   6.194  10.298  0.3217 -0.1159 -0.0951
  449loPI   PO4 7172  16.413   6.475  10.334 -0.1203  0.2211  0.1338
  449loPI   GL1 7173  16.512   6.677  10.003  0.2020 -0.0435  0.2350
  449loPI   GL2 7174  16.344   7.026   9.952 -0.0719  0.1524  0.0312
  449loPI   C1A 7175  16.300   6.674   9.543  0.3550 -0.1866 -0.0315
  449loPI   C2A 7176  16.334   6.689   9.018 -0.2130 -0.1002  0.1812
  449loPI   C3A 7177  16.271   6.668   8.586  0.2354  0.3428  0.0569
  449loPI   C4A 7178  16.387   6.504   8.218 -0.2500  0.1887  0.2430
  449loPI   C5A 7179  16.578   6.223   8.048  0.1151  0.0400  0.0621
  449loPI   C6A 7180  16.873   5.928   8.054 -0.5484  0.1992  0.0576
  449loPI   C1B 7181  16.434   7.150   9.599  0.0555  0.3313 -0.1851
  449loPI   C2B 7182  16.530   7.155   9.181  0.3030 -0.0877 -0.1555
  449loPI   C3B 7183  16.494   7.120   8.794  0.1159 -0.0615  0.0516
  449loPI   C4B 7184  16.608   7.233   8.399  0.0607 -0.1939 -0.1277
  450loPI    C1 7185  14.480  15.585  10.927  0.1146  0.0631 -0.0458
  450loPI    C2 7186  14.111  15.544  11.075  0.2317 -0.0939  0.2099
  450loPI    C3 7187  14.243  15.905  10.963 -0.1374 -0.0952 -0.2620
  450loPI   PO4 7188  14.515  15.349  10.763 -0.0156 -0.2221 -0.0761
  450loPI   GL1 7189  14.755  15.234  10.370 -0.1313  0.0467 -0.0164
  450loPI   GL2 7190  14.763  14.957  10.210  0.0376 -0.0471  0.0280
  450loPI   C1A 7191  14.912  15.489  10.023  0.1202 -0.0488 -0.3031
  450loPI   C2A 7192  14.924  15.568   9.702 -0.1338 -0.0234  0.0522
  450loPI   C3A 7193  14.920  15.510   9.274 -0.2467 -0.0318 -0.2104
  450loPI   C4A 7194  14.916  15.385   8.885  0.0784 -0.0511 -0.1242
  450loPI   C5A 7195  14.912  15.086   8.538 -0.0482 -0.1714  0.0557
  450loPI   C6A 7196  14.866  15.177   7.967  0.0752 -0.1039 -0.1198
  450loPI   C1B 7197  14.677  15.117   9.783  0.1312  0.3153  0.0795
  450loPI   C2B 7198  14.601  15.120   9.367 -0.2226 -0.2125  0.0695
  450loPI   C3B 7199  14.551  15.073   8.978 -0.1206 -0.3518 -0.0853
  450loPI   C4B 7200  14.254  14.994   8.783  0.0382 -0.0475 -0.2525
  451loPI    C1 7201  17.880  11.344  10.525  0.1571 -0.0768  0.0589
  451loPI    C2 7202  17.671  11.660  10.396  0.0700 -0.2176 -0.1500
  451loPI    C3 7203  17.871  11.680  10.742  0.1077  0.0829 -0.1867
  451loPI   PO4 7204  18.015  11.287  10.320  0.0460 -0.0858  0.1319
  451loPI   GL1 7205  17.931  11.459   9.997 -0.2072  0.0376  0.1276
  451loPI   GL2 7206  18.143  11.631   9.801 -0.0090  0.1303  0.2145
  451loPI   C1A 7207  17.951  11.192   9.585  0.1298  0.0255  0.2872
  451loPI   C2A 7208  17.934  11.172   9.141  0.2558  0.2034 -0.1505
  451loPI   C3A 7209  17.876  11.217   8.701  0.2029 -0.1003  0.0783
  451loPI   C4A 7210  17.944  11.194   8.283 -0.1774 -0.0620  0.0741
  451loPI   C5A 7211  17.923  11.304   7.840  0.1953 -0.1115  0.1025
  451loPI   C6A 7212  17.630  11.626   7.788 -0.0275 -0.0106  0.0245
  451loPI   C1B 7213  18.128  11.620   9.354  0.0275 -0.4078  0.1460
  451loPI   C2B 7214  18.157  11.728   8.997  0.1437  0.0524 -0.1065
  451loPI   C3B 7215  18.144  11.766   8.503  0.3348 -0.2695  0.1233
  451loPI   C4B 7216  18.152  11.707   8.053  0.1663 -0.2260 -0.1546
  452loPI    C1 7217  10.754   3.985  10.105  0.0629 -0.1421  0.0566
  452loPI    C2 7218  10.840   3.945  10.493 -0.3702  0.0345  0.1774
  452loPI    C3 7219  10.647   4.270  10.364 -0.0572  0.0707 -0.2211
  452loPI   PO4 7220  10.923   3.819   9.967  0.1540  0.1433 -0.0524
  452loPI   GL1 7221  11.127   3.803   9.481  0.2614  0.1295  0.0706
  452loPI   GL2 7222  11.154   4.042   9.420 -0.1227  0.0063  0.1235
  452loPI   C1A 7223  10.824   3.756   9.150 -0.1867 -0.0856  0.1722
  452loPI   C2A 7224  10.919   3.609   8.697 -0.2146 -0.2386  0.1618
  452loPI   C3A 7225  10.927   3.603   8.226 -0.2444 -0.2538  0.0793
  452loPI   C4A 7226  10.847   3.634   7.822 -0.2536 -0.0280  0.3980
  452loPI   C5A 7227  10.943   3.682   7.362 -0.2518  0.1057  0.4498
  452loPI   C6A 7228  11.005   3.865   7.074 -0.2306  0.1747 -0.0732
  452loPI   C1B 7229  11.191   4.070   8.917  0.0552 -0.0181  0.2007
  452loPI   C2B 7230  11.244   4.078   8.472 -0.2814 -0.1758 -0.2022
  452loPI   C3B 7231  11.166   4.070   8.016 -0.0669 -0.2113 -0.1080
  452loPI   C4B 7232  11.166   4.119   7.597  0.1200 -0.2837  0.1655
  453loPI    C1 7233   7.453   7.106  10.155 -0.0967 -0.1407 -0.0467
  453loPI    C2 7234   7.257   7.279  10.457  0.2661 -0.0423  0.1380
  453loPI    C3 7235   7.498   6.968  10.527  0.2024 -0.1434 -0.0813
  453loPI   PO4 7236   7.633   7.271  10.068 -0.0236  0.1542  0.2276
  453loPI   GL1 7237   7.896   7.088   9.833 -0.4317  0.1473  0.0075
  453loPI   GL2 7238   7.838   6.990   9.658 -0.0839 -0.0410  0.1115
  453loPI   C1A 7239   7.885   7.387   9.386  0.0315  0.2155 -0.2522
  453loPI   C2A 7240   8.276   7.303   9.241 -0.2625  0.1870 -0.0140
  453loPI   C3A 7241   8.428   7.297   8.958 -0.1377  0.1465 -0.3904
  453loPI   C4A 7242   8.726   7.447   8.625  0.2972 -0.0374 -0.2430
  453loPI   C5A 7243   9.014   7.144   8.322  0.3090  0.4198  0.1219
  453loPI   C6A 7244   8.887   6.999   7.932 -0.2910 -0.0888  0.0726
  453loPI   C1B 7245   7.549   6.997   9.328 -0.0220  0.2045 -0.0173
  453loPI   C2B 7246   7.209   6.873   9.113  0.0070 -0.1185 -0.0126
  453loPI   C3B 7247   6.982   7.032   8.735  0.0239  0.3812 -0.1130
  453loPI   C4B 7248   7.009   7.272   8.347 -0.0930  0.0584 -0.1399
  454loPI    C1 7249   2.794   7.434  10.560  0.3302 -0.2104 -0.0207
  454loPI    C2 7250   2.608   7.109  10.419 -0.0496 -0.0153  0.0172
  454loPI    C3 7251   2.593   7.195  10.810 -0.1582  0.1761 -0.0278
  454loPI   PO4 7252   2.908   7.509  10.252  0.1241  0.3008  0.2299
  454loPI   GL1 7253   2.949   7.488   9.898  0.1102 -0.2148 -0.1762
  454loPI   GL2 7254   3.159   7.225   9.724  0.1248 -0.0677  0.1363
  454loPI   C1A 7255   3.017   7.580   9.387 -0.1998 -0.0713  0.0603
  454loPI   C2A 7256   3.182   7.753   8.961 -0.2150 -0.2785  0.4748
  454loPI   C3A 7257   3.009   7.562   8.620 -0.0511  0.0150  0.0186
  454loPI   C4A 7258   2.760   7.190   8.563  0.1056 -0.2798 -0.1058
  454loPI   C5A 7259   2.441   6.843   8.310 -0.3374  0.1314  0.1326
  454loPI   C6A 7260   2.292   6.617   8.232 -0.0285 -0.0096  0.0999
  454loPI   C1B 7261   2.730   7.210   9.521  0.0918  0.2737  0.0351
  454loPI   C2B 7262   2.509   7.603   9.512 -0.0669 -0.0656 -0.0206
  454loPI   C3B 7263   2.367   7.987   9.265  0.2575  0.0057 -0.0381
  454loPI   C4B 7264   2.348   8.146   8.891  0.0286 -0.2015  0.1609
  455loPI    C1 7265   7.991  17.364  10.304  0.1455  0.1720  0.0518
  455loPI    C2 7266   8.165  17.688  10.461  0.1764  0.0083  0.3629
  455loPI    C3 7267   7.958  17.438  10.695  0.2470 -0.2574  0.1478
  455loPI   PO4 7268   8.012  17.415  10.071 -0.0152  0.2420 -0.0346
  455loPI   GL1 7269   7.896  17.343   9.675 -0.4076 -0.3057 -0.1284
  455loPI   GL2 7270   7.783  17.085   9.523  0.0806  0.1535  0.0840
  455loPI   C1A 7271   7.939  17.599   9.252  0.0725 -0.3414  0.1185
  455loPI   C2A 7272   7.913  17.814   8.799 -0.0979  0.3346  0.3139
  455loPI   C3A 7273   7.797  17.759   8.392 -0.2388 -0.1101 -0.1890
  455loPI   C4A 7274   8.045  17.906   7.959 -0.0444  0.1072 -0.3187
  455loPI   C5A 7275   8.344  17.981   7.651 -0.2259  0.2530 -0.1992
  455loPI   C6A 7276   8.543  18.288   7.356  0.1688 -0.3419  0.0670
  455loPI   C1B 7277   7.806  17.147   9.136 -0.1566 -0.1221 -0.2247
  455loPI   C2B 7278   7.824  17.306   8.705 -0.1433  0.1908  0.2558
  455loPI   C3B 7279   7.900  17.080   8.344 -0.3485 -0.0302 -0.2064
  455loPI   C4B 7280   7.863  16.963   7.949 -0.1323  0.1907  0.0131
  456loPI    C1 7281  11.469   0.270  10.671  0.3051 -0.1559 -0.0747
  456loPI    C2 7282  11.283   0.623  10.652  0.0675 -0.2774 -0.0460
  456loPI    C3 7283  11.549   0.553  10.942  0.0033 -0.1751  0.0386
  456loPI   PO4 7284  11.539   0.197  10.417 -0.0198 -0.0580 -0.0265
  456loPI   GL1 7285  11.539   0.085   9.949 -0.1986  0.0767  0.3152
  456loPI   GL2 7286  11.714   0.084   9.738  0.1002  0.0614  0.1331
  456loPI   C1A 7287  11.383   0.342   9.428  0.2078  0.3013  0.1282
  456loPI   C2A 7288  11.261   0.321   8.982  0.3799  0.0769  0.1898
  456loPI   C3A 7289  11.417   0.360   8.560  0.0329 -0.1573 -0.3328
  456loPI   C4A 7290  11.416   0.235   8.078 -0.0047  0.0112 -0.1623
  456loPI   C5A 7291  11.703   0.054   7.680 -0.0977  0.4124 -0.1480
  456loPI   C6A 7292  12.134   0.019   7.551  0.1295  0.0735 -0.0336
  456loPI   C1B 7293  11.920  -0.095   9.363  0.1204  0.0578  0.0628
  456loPI   C2B 7294  12.090  -0.137   8.894 -0.0680  0.1112  0.0922
  456loPI   C3B 7295  12.117  -0.159   8.487  0.0872 -0.0938 -0.0842
  456loPI   C4B 7296  12.060  -0.027   8.171 -0.0236 -0.5245 -0.2325
  457loPI    C1 7297  17.287   2.238  10.409  0.2557  0.0922  0.0349
  457loPI    C2 7298  17.140   2.538  10.628  0.2723  0.0496  0.1046
  457loPI    C3 7299  17.230   2.189  10.802  0.4681  0.0791  0.0653
  457loPI   PO4 7300  17.126   2.305  10.198  0.2089 -0.0067 -0.2332
  457loPI   GL1 7301  17.168   2.457   9.830  0.0910  0.1017  0.1279
  457loPI   GL2 7302  17.319   2.171   9.762 -0.3000 -0.1016  0.1507
  457loPI   C1A 7303  17.092   2.859   9.674  0.1290  0.2137  0.1461
  457loPI   C2A 7304  16.809   3.064   9.603 -0.1433 -0.1086 -0.1066
  457loPI   C3A 7305  16.664   3.122   9.132  0.0440 -0.0914 -0.1183
  457loPI   C4A 7306  16.538   2.964   8.735 -0.2055  0.2724 -0.1278
  457loPI   C5A 7307  16.491   2.928   8.262 -0.1546 -0.1359 -0.3325
  457loPI   C6A 7308  16.715   3.113   7.921  0.0684 -0.1626  0.0241
  457loPI   C1B 7309  17.434   2.122   9.346 -0.1970 -0.1219  0.1153
  457loPI   C2B 7310  17.543   2.019   8.879 -0.1719 -0.0698  0.0540
  457loPI   C3B 7311  17.518   1.986   8.493 -0.0561  0.1734 -0.2405
  457loPI   C4B 7312  17.376   2.243   8.182 -0.1971 -0.3030 -0.2330
  458loPI    C1 7313   7.622   5.484  10.341  0.1144  0.0730  0.0929
  458loPI    C2 7314   7.714   5.414  10.724 -0.3051  0.0139  0.1885
  458loPI    C3 7315   7.334   5.479  10.619 -0.1880  0.0782 -0.2135
  458loPI   PO4 7316   7.661   5.322  10.176  0.0125  0.0225 -0.0816
  458loPI   GL1 7317   7.798   5.509   9.791  0.1164 -0.3354  0.1626
  458loPI   GL2 7318   7.921   5.348   9.658  0.0885  0.1031  0.5527
  458loPI   C1A 7319   7.669   5.832   9.483  0.3373 -0.1366 -0.0985
  458loPI   C2A 7320   7.460   5.808   9.056 -0.1058  0.0509  0.0130
  458loPI   C3A 7321   7.528   5.767   8.621  0.0032  0.1720 -0.5030
  458loPI   C4A 7322   7.423   5.733   8.202 -0.0995 -0.0983  0.0138
  458loPI   C5A 7323   7.352   5.504   7.809  0.0640 -0.0464 -0.3167
  458loPI   C6A 7324   7.573   5.372   7.497 -0.2192 -0.1399 -0.1810
  458loPI   C1B 7325   7.608   5.332   9.307  0.1816  0.0967 -0.1336
  458loPI   C2B 7326   7.547   5.235   8.903 -0.0050 -0.3668 -0.0943
  458loPI   C3B 7327   7.510   5.282   8.432 -0.0043  0.1003 -0.2087
  458loPI   C4B 7328   7.375   5.095   8.065 -0.1990 -0.0422 -0.0111
  459loPI    C1 7329   2.510  14.595  10.903  0.1869  0.0713 -0.0980
  459loPI    C2 7330   2.447  14.479  11.281  0.0802 -0.2341 -0.2066
  459loPI    C3 7331   2.607  14.838  11.206  0.0987 -0.1693  0.1273
  459loPI   PO4 7332   2.599  14.430  10.811 -0.0125 -0.2403 -0.1323
  459loPI   GL1 7333   2.679  14.516  10.373  0.0388  0.1771  0.2144
  459loPI   GL2 7334   2.780  14.274  10.317  0.0308  0.0565  0.0304
  459loPI   C1A 7335   2.702  14.579   9.915  0.0720  0.0343 -0.0092
  459loPI   C2A 7336   2.684  14.419   9.508  0.1006  0.0612  0.0500
  459loPI   C3A 7337   2.652  14.474   9.169 -0.0740  0.1422 -0.1181
  459loPI   C4A 7338   2.634  14.435   8.771  0.1499 -0.1397  0.0749
  459loPI   C5A 7339   2.551  14.343   8.452  0.2182 -0.1317  0.2808
  459loPI   C6A 7340   2.661  14.125   8.133 -0.0109 -0.0585  0.2177
  459loPI   C1B 7341   2.498  14.095   9.946  0.1319 -0.1786  0.0673
  459loPI   C2B 7342   2.450  13.986   9.577  0.2701  0.2204  0.1613
  459loPI   C3B 7343   2.493  13.964   9.141  0.1456 -0.2566  0.2059
  459loPI   C4B 7344   2.387  13.939   8.614  0.1692  0.2434 -0.3916
  460loPI    C1 7345  12.027  11.859  10.627 -0.2011  0.2378  0.0025
  460loPI    C2 7346  12.337  12.061  10.473  0.0204 -0.0155  0.1073
  460loPI    C3 7347  12.275  12.061  10.868 -0.1723  0.1132  0.0785
  460loPI   PO4 7348  12.025  11.652  10.459 -0.1082  0.0379  0.2295
  460loPI   GL1 7349  12.359  11.490  10.199 -0.0955 -0.0275 -0.0280
  460loPI   GL2 7350  12.266  11.802  10.018  0.0969 -0.1808 -0.1866
  460loPI   C1A 7351  12.557  11.381   9.834  0.2427  0.2759 -0.2127
  460loPI   C2A 7352  12.504  11.382   9.404  0.2136  0.1316 -0.0313
  460loPI   C3A 7353  12.531  11.209   9.056 -0.0331 -0.0471  0.0091
  460loPI   C4A 7354  12.530  11.343   8.592  0.1692 -0.2253  0.0401
  460loPI   C5A 7355  12.477  11.493   8.133 -0.1643 -0.1330 -0.0418
  460loPI   C6A 7356  12.194  11.607   7.842  0.1270  0.1070  0.0578
  460loPI   C1B 7357  12.264  11.764   9.532  0.1783  0.1325  0.2860
  460loPI   C2B 7358  12.232  11.754   9.080  0.3353 -0.3094 -0.1837
  460loPI   C3B 7359  12.201  11.759   8.594 -0.1215 -0.1608  0.1190
  460loPI   C4B 7360  12.377  12.072   8.296  0.0640  0.0292 -0.0300
  461loPI    C1 7361  16.096   2.203  10.513 -0.4397  0.1786  0.0816
  461loPI    C2 7362  16.287   2.410  10.797  0.0862  0.1359 -0.2275
  461loPI    C3 7363  16.236   2.015  10.837 -0.3291  0.2120  0.0537
  461loPI   PO4 7364  16.239   2.225  10.275  0.0132 -0.3783 -0.1156
  461loPI   GL1 7365  16.592   2.279  10.011 -0.1199  0.0956  0.1611
  461loPI   GL2 7366  16.498   2.012   9.829  0.0037 -0.1196  0.0694
  461loPI   C1A 7367  16.700   2.572   9.707 -0.1817  0.2443 -0.5290
  461loPI   C2A 7368  16.728   2.596   9.311  0.2111  0.0529  0.1839
  461loPI   C3A 7369  16.758   2.513   8.937 -0.0060 -0.0915 -0.0523
  461loPI   C4A 7370  16.671   2.541   8.415 -0.2906 -0.0790 -0.2421
  461loPI   C5A 7371  16.879   2.654   7.999  0.0655  0.0455  0.1589
  461loPI   C6A 7372  17.287   2.537   7.782 -0.0248 -0.0429 -0.1869
  461loPI   C1B 7373  16.550   1.742   9.431 -0.0784 -0.1780  0.3425
  461loPI   C2B 7374  16.627   1.680   8.996 -0.0768 -0.1763 -0.0692
  461loPI   C3B 7375  16.674   1.749   8.499  0.0984 -0.0923  0.0850
  461loPI   C4B 7376  16.615   1.657   7.967 -0.0992 -0.1611  0.0798
  462loPI    C1 7377   6.039   6.604  10.459 -0.1878  0.0772  0.1312
  462loPI    C2 7378   6.354   6.561  10.702 -0.2192 -0.0083  0.1570
  462loPI    C3 7379   5.992   6.436  10.819 -0.3053  0.2902  0.2170
  462loPI   PO4 7380   6.218   6.545  10.207  0.0470 -0.1057  0.1610
  462loPI   GL1 7381   6.227   6.343   9.717  0.3028  0.0881 -0.0898
  462loPI   GL2 7382   6.511   6.712   9.803  0.0279  0.0173 -0.0433
  462loPI   C1A 7383   6.193   6.376   9.243 -0.0535 -0.0514  0.0733
  462loPI   C2A 7384   6.183   6.565   8.821 -0.1797 -0.1255 -0.0050
  462loPI   C3A 7385   6.115   6.586   8.367 -0.1395  0.2018 -0.3888
  462loPI   C4A 7386   6.228   6.805   7.919  0.0350  0.2368 -0.3111
  462loPI   C5A 7387   6.401   7.091   7.639 -0.0822 -0.0329 -0.2085
  462loPI   C6A 7388   6.593   7.328   7.343  0.2096  0.2928 -0.1711
  462loPI   C1B 7389   6.582   6.609   9.397  0.1015  0.0195  0.2146
  462loPI   C2B 7390   6.637   6.745   8.969 -0.1945 -0.0735  0.0627
  462loPI   C3B 7391   6.556   6.864   8.543  0.0267 -0.0842 -0.4084
  462loPI   C4B 7392   6.634   6.967   8.146 -0.2507 -0.1004 -0.1058
  463loPI    C1 7393  18.487   0.336  10.492 -0.2784  0.0495  0.2608
  463loPI    C2 7394  18.402   0.675  10.297  0.1071  0.0643  0.1104
  463loPI    C3 7395  18.660   0.679  10.603 -0.0593 -0.0567  0.2537
  463loPI   PO4 7396  18.271   0.238  10.520 -0.1103 -0.0315  0.0526
  463loPI   GL1 7397  18.297  -0.121  10.204 -0.0735 -0.2361  0.1555
  463loPI   GL2 7398  18.210   0.215  10.053 -0.1033  0.1846 -0.0818
  463loPI   C1A 7399  18.231  -0.452   9.940 -0.2097 -0.0323 -0.1215
  463loPI   C2A 7400  18.261  -0.496   9.519  0.0897  0.0127 -0.2312
  463loPI   C3A 7401  18.145  -0.647   9.154  0.0511  0.2427 -0.1542
  463loPI   C4A 7402  18.207  -0.695   8.708 -0.1156  0.0352  0.2224
  463loPI   C5A 7403  18.143  -0.707   8.237  0.0916 -0.2188 -0.1187
  463loPI   C6A 7404  18.096  -0.470   7.846  0.3293 -0.2194  0.0589
  463loPI   C1B 7405  18.048  -0.076   9.692  0.0370 -0.3261 -0.2567
  463loPI   C2B 7406  17.947  -0.196   9.302  0.0659  0.2220 -0.0028
  463loPI   C3B 7407  17.982  -0.239   8.809 -0.0442 -0.2276 -0.1390
  463loPI   C4B 7408  18.003  -0.235   8.382  0.1348  0.3244 -0.1054
  464loPI    C1 7409  16.625   1.231  10.440 -0.0959  0.3412 -0.0209
  464loPI    C2 7410  17.020   1.274  10.395 -0.0677 -0.0788 -0.2163
  464loPI    C3 7411  16.865   1.213  10.759  0.0827 -0.2320 -0.1765
  464loPI   PO4 7412  16.561   1.391  10.249 -0.0603 -0.2309  0.1942
  464loPI   GL1 7413  16.638   1.184   9.961  0.0856 -0.0357 -0.0032
  464loPI   GL2 7414  16.494   0.931  10.072 -0.1062 -0.2027  0.1161
  464loPI   C1A 7415  16.792   1.224   9.538  0.0305 -0.1068  0.0104
  464loPI   C2A 7416  16.909   1.273   9.048  0.1297 -0.1208  0.1025
  464loPI   C3A 7417  16.933   1.074   8.682 -0.1129 -0.0687 -0.1396
  464loPI   C4A 7418  16.889   1.154   8.240  0.4165 -0.0984 -0.0282
  464loPI   C5A 7419  16.761   1.176   7.780  0.0473 -0.2212  0.0909
  464loPI   C6A 7420  16.675   0.931   7.433  0.2343  0.0947 -0.0019
  464loPI   C1B 7421  16.499   0.855   9.524 -0.3881  0.3023 -0.0322
  464loPI   C2B 7422  16.605   0.800   9.149  0.0846  0.2293  0.2092
  464loPI   C3B 7423  16.596   0.742   8.768  0.1009 -0.1385 -0.1337
  464loPI   C4B 7424  16.615   0.792   8.445 -0.1153  0.2643 -0.2045
  465loPI    C1 7425  12.586   3.315  10.148 -0.2227 -0.1189  0.0530
  465loPI    C2 7426  12.817   3.237  10.465 -0.0729 -0.3272 -0.1047
  465loPI    C3 7427  12.570   3.552  10.470  0.2078 -0.1057  0.0695
  465loPI   PO4 7428  12.737   3.323   9.984 -0.3734  0.1143 -0.1005
  465loPI   GL1 7429  12.975   3.532   9.762 -0.2295 -0.0500 -0.0935
  465loPI   GL2 7430  12.954   3.816   9.842  0.0784  0.1589 -0.0528
  465loPI   C1A 7431  12.978   3.523   9.282 -0.3175  0.2681 -0.0189
  465loPI   C2A 7432  12.872   3.359   8.896 -0.0901 -0.0823  0.0007
  465loPI   C3A 7433  12.918   3.445   8.564  0.1263 -0.0082  0.1916
  465loPI   C4A 7434  12.930   3.487   8.100 -0.0394  0.1230  0.1078
  465loPI   C5A 7435  13.129   3.726   7.752  0.1074  0.0146  0.0367
  465loPI   C6A 7436  13.290   4.168   7.720  0.0813 -0.0990 -0.1791
  465loPI   C1B 7437  13.218   3.889   9.448 -0.1620  0.1540  0.1070
  465loPI   C2B 7438  13.273   3.872   9.032 -0.0853 -0.0083 -0.2464
  465loPI   C3B 7439  13.240   3.797   8.662  0.0179  0.2116  0.2086
  465loPI   C4B 7440  13.323   3.787   8.265 -0.0613  0.3182  0.1090
  466loPI    C1 7441  12.932   0.767  10.604  0.1451  0.0497  0.2224
  466loPI    C2 7442  13.269   0.778  10.390  0.1217  0.1131  0.1885
  466loPI    C3 7443  13.252   0.561  10.725  0.1678  0.0375  0.1421
  466loPI   PO4 7444  12.783   0.845  10.393 -0.0519  0.1144  0.1183
  466loPI   GL1 7445  12.831   0.856   9.912  0.1225  0.0298  0.0830
  466loPI   GL2 7446  13.163   0.900   9.940  0.1315 -0.0481  0.2036
  466loPI   C1A 7447  12.566   0.847   9.434  0.0300 -0.0279  0.0192
  466loPI   C2A 7448  12.630   0.849   9.013  0.0122 -0.0457 -0.4844
  466loPI   C3A 7449  12.693   0.743   8.569 -0.0858 -0.1989 -0.1702
  466loPI   C4A 7450  12.638   0.778   8.166  0.4146  0.1049  0.3560
  466loPI   C5A 7451  12.500   0.550   7.778 -0.0551  0.1324  0.1532
  466loPI   C6A 7452  12.380   0.392   7.324 -0.1353  0.0361  0.0879
  466loPI   C1B 7453  13.087   0.768   9.496  0.0678  0.0076  0.1012
  466loPI   C2B 7454  13.174   0.741   9.171  0.0401  0.1225 -0.2033
  466loPI   C3B 7455  13.159   0.771   8.782 -0.0823 -0.2950  0.0567
  466loPI   C4B 7456  13.127   0.699   8.349 -0.0668 -0.0402  0.0168
  467loPI    C1 7457   4.686   2.166  10.198 -0.1212  0.2716 -0.1929
  467loPI    C2 7458   4.473   1.910  10.419  0.1533  0.0710 -0.1559
  467loPI    C3 7459   4.404   2.303  10.446  0.0974  0.0408  0.1936
  467loPI   PO4 7460   4.695   1.982   9.935  0.2144 -0.0762 -0.1468
  467loPI   GL1 7461   4.577   2.040   9.531 -0.0403  0.0572  0.0453
  467loPI   GL2 7462   4.534   1.706   9.525 -0.0343  0.0393 -0.0713
  467loPI   C1A 7463   4.646   2.438   9.228  0.0773 -0.0785 -0.1063
  467loPI   C2A 7464   4.535   2.786   9.186  0.0183 -0.0870 -0.2803
  467loPI   C3A 7465   4.397   3.102   8.951  0.3257  0.0932 -0.2217
  467loPI   C4A 7466   4.292   3.007   8.548 -0.3088  0.2135  0.1371
  467loPI   C5A 7467   4.445   2.848   8.183  0.0392 -0.0914  0.0242
  467loPI   C6A 7468   4.686   2.564   8.005 -0.1094 -0.2165  0.4490
  467loPI   C1B 7469   4.133   1.617   9.270 -0.0567 -0.3019  0.0460
  467loPI   C2B 7470   4.191   1.659   8.804 -0.0512 -0.1869 -0.0303
  467loPI   C3B 7471   4.527   1.574   8.484  0.0632 -0.0799 -0.0067
  467loPI   C4B 7472   4.891   1.371   8.280 -0.2770  0.2302  0.0572
  468loPI    C1 7473  13.963  13.526  10.883  0.2780 -0.0848 -0.2368
  468loPI    C2 7474  13.842  13.157  10.790 -0.0777  0.0423 -0.2921
  468loPI    C3 7475  14.136  13.210  11.055 -0.2816 -0.2713  0.0056
  468loPI   PO4 7476  14.053  13.608  10.711 -0.1159 -0.0709  0.1750
  468loPI   GL1 7477  13.965  13.593  10.229  0.0180  0.0879  0.1286
  468loPI   GL2 7478  14.302  13.559  10.142  0.2283  0.3546  0.1095
  468loPI   C1A 7479  13.776  13.516   9.784 -0.2209  0.1794  0.0299
  468loPI   C2A 7480  13.662  13.636   9.355  0.2669  0.2561  0.0278
  468loPI   C3A 7481  13.678  13.639   8.889  0.1263 -0.0403 -0.2089
  468loPI   C4A 7482  13.680  13.665   8.545  0.2029  0.0199 -0.1396
  468loPI   C5A 7483  13.811  13.515   8.109  0.2267 -0.1202 -0.2728
  468loPI   C6A 7484  13.759  13.392   7.648 -0.1958  0.2706 -0.2088
  468loPI   C1B 7485  14.635  13.638   9.895  0.1488 -0.2401  0.1934
  468loPI   C2B 7486  14.703  13.772   9.489 -0.0413  0.3383 -0.0150
  468loPI   C3B 7487  14.673  13.801   8.971  0.6377  0.1499  0.0507
  468loPI   C4B 7488  14.721  13.744   8.507 -0.0861 -0.2375 -0.0712
  469loPI    C1 7489   7.629  15.638  10.508 -0.0640 -0.0378  0.0227
  469loPI    C2 7490   7.659  16.018  10.628  0.0247  0.0164 -0.1664
  469loPI    C3 7491   7.614  15.726  10.898  0.0966  0.1467 -0.0113
  469loPI   PO4 7492   7.568  15.731  10.271 -0.1149 -0.0466 -0.0008
  469loPI   GL1 7493   7.429  15.852   9.993  0.1657  0.1819 -0.0494
  469loPI   GL2 7494   7.614  16.137   9.788 -0.2813 -0.1570  0.1517
  469loPI   C1A 7495   7.403  15.754   9.502 -0.1158  0.0234  0.0417
  469loPI   C2A 7496   7.669  15.780   9.213  0.2022 -0.1547 -0.0822
  469loPI   C3A 7497   7.451  15.924   8.772 -0.1440  0.0805 -0.3263
  469loPI   C4A 7498   7.237  15.788   8.372 -0.1344 -0.2707 -0.3677
  469loPI   C5A 7499   7.332  15.651   8.006 -0.1065 -0.0441  0.4226
  469loPI   C6A 7500   7.307  15.316   7.703 -0.1576 -0.0385 -0.0953
  469loPI   C1B 7501   7.919  16.182   9.375  0.0664 -0.1127  0.1605
  469loPI   C2B 7502   7.986  16.239   8.988 -0.2118  0.0094 -0.3863
  469loPI   C3B 7503   7.766  16.222   8.599 -0.0260  0.1335 -0.0531
  469loPI   C4B 7504   7.545  16.180   8.191  0.1311  0.0553 -0.0838
  470loPI    C1 7505  15.585   9.578  10.414  0.0925  0.0365  0.1128
  470loPI    C2 7506  15.445   9.835  10.687 -0.0231  0.1139 -0.0182
  470loPI    C3 7507  15.296   9.465  10.667 -0.0659  0.1314 -0.0240
  470loPI   PO4 7508  15.574   9.751  10.183  0.0273 -0.0163  0.0843
  470loPI   GL1 7509  15.686   9.667   9.764 -0.0586 -0.0465  0.0581
  470loPI   GL2 7510  15.693   9.366   9.805  0.2389  0.2480  0.4352
  470loPI   C1A 7511  15.748   9.812   9.357 -0.1403 -0.1675  0.1464
  470loPI   C2A 7512  15.702   9.760   8.957 -0.3438  0.2109 -0.0057
  470loPI   C3A 7513  15.727   9.758   8.588  0.2397 -0.3117  0.2860
  470loPI   C4A 7514  15.812   9.712   8.144  0.0705 -0.2555 -0.2695
  470loPI   C5A 7515  15.700   9.553   7.755 -0.1755  0.1105  0.1865
  470loPI   C6A 7516  16.019   9.513   7.395 -0.2305  0.1974  0.2437
  470loPI   C1B 7517  15.542   9.316   9.321 -0.2925 -0.0168  0.0774
  470loPI   C2B 7518  15.541   9.238   8.985  0.4815 -0.5243 -0.0970
  470loPI   C3B 7519  15.497   9.229   8.572 -0.0317  0.0322  0.1206
  470loPI   C4B 7520  15.617   9.166   8.135 -0.3389 -0.1103 -0.1327
  471loPI    C1 7521   0.605  15.399  10.688 -0.0421  0.1713  0.1580
  471loPI    C2 7522   0.241  15.488  10.829 -0.1059 -0.0833  0.1576
  471loPI    C3 7523   0.435  15.166  10.965  0.0092 -0.0950 -0.0312
  471loPI   PO4 7524   0.571  15.343  10.399 -0.0141 -0.0764  0.2806
  471loPI   GL1 7525   0.347  15.435   9.924 -0.2417 -0.2472 -0.0539
  471loPI   GL2 7526   0.289  15.144  10.019  0.1471 -0.1979 -0.1533
  471loPI   C1A 7527   0.667  15.629   9.581  0.0892  0.2005 -0.0966
  471loPI   C2A 7528   0.819  15.602   9.158  0.0632  0.0069  0.5386
  471loPI   C3A 7529   0.896  15.588   8.724  0.1669  0.1439  0.1389
  471loPI   C4A 7530   0.772  15.487   8.258 -0.1884 -0.2921  0.2455
  471loPI   C5A 7531   0.624  15.406   7.861  0.3147  0.1388 -0.0216
  471loPI   C6A 7532   0.379  15.468   7.503  0.1938  0.2994 -0.0826
  471loPI   C1B 7533   0.390  15.013   9.662 -0.1603 -0.1937  0.0353
  471loPI   C2B 7534   0.445  15.060   9.160 -0.3199  0.2756  0.0865
  471loPI   C3B 7535   0.561  15.186   8.778 -0.3312  0.0692 -0.2299
  471loPI   C4B 7536   0.502  15.065   8.295 -0.1379 -0.1418 -0.0609
  472loPI    C1 7537  16.060  17.653  11.356  0.0023  0.0599 -0.0606
  472loPI    C2 7538  16.106  18.047  11.411 -0.1650  0.0782 -0.0489
  472loPI    C3 7539  15.952  17.820  11.703  0.3259 -0.0682  0.1062
  472loPI   PO4 7540  15.954  17.602  11.163  0.2188  0.2548 -0.2059
  472loPI   GL1 7541  15.820  17.459  10.688  0.0885 -0.2494  0.0421
  472loPI   GL2 7542  15.501  17.260  10.544  0.0617 -0.0151  0.0215
  472loPI   C1A 7543  15.978  17.258  10.424  0.2327  0.0093 -0.1923
  472loPI   C2A 7544  16.009  17.322   9.967  0.1090 -0.1450 -0.2337
  472loPI   C3A 7545  16.108  17.227   9.491 -0.2863 -0.0268  0.2702
  472loPI   C4A 7546  16.136  17.060   9.058  0.3274 -0.0174  0.1152
  472loPI   C5A 7547  16.119  17.040   8.595  0.1325 -0.0007 -0.2644
  472loPI   C6A 7548  16.155  17.032   8.234  0.1817 -0.0671  0.2120
  472loPI   C1B 7549  15.521  17.315  10.150  0.1361 -0.0274 -0.1353
  472loPI   C2B 7550  15.496  17.299   9.691 -0.4181 -0.1986  0.3414
  472loPI   C3B 7551  15.570  17.140   9.240  0.1417 -0.0937 -0.1664
  472loPI   C4B 7552  15.706  17.039   8.855 -0.3026 -0.0366  0.0461
  473loPI    C1 7553   7.294   9.343  10.712 -0.0649  0.0304  0.1708
  473loPI    C2 7554   7.040   9.637  10.617 -0.0971 -0.1377 -0.2873
  473loPI    C3 7555   6.945   9.257  10.536 -0.1235 -0.2993  0.4376
  473loPI   PO4 7556   7.577   9.499  10.620 -0.0475 -0.2417 -0.0043
  473loPI   GL1 7557   7.644   9.665  10.146 -0.0774  0.1490  0.2759
  473loPI   GL2 7558   7.685   9.990  10.225  0.3432  0.2771  0.0270
  473loPI   C1A 7559   7.639   9.536   9.620 -0.0278 -0.2246 -0.1184
  473loPI   C2A 7560   7.847   9.620   9.254  0.0846  0.0819  0.1402
  473loPI   C3A 7561   7.850   9.715   8.864  0.0306  0.3015 -0.0400
  473loPI   C4A 7562   7.781   9.525   8.417 -0.0037  0.3394 -0.1335
  473loPI   C5A 7563   7.544   9.724   8.155  0.1163  0.0028 -0.0240
  473loPI   C6A 7564   7.107   9.753   8.253  0.1261  0.0998  0.1790
  473loPI   C1B 7565   7.800  10.321   9.803  0.1310 -0.0032  0.1412
  473loPI   C2B 7566   7.728  10.474   9.358 -0.2251  0.2082 -0.1159
  473loPI   C3B 7567   7.459  10.825   9.289 -0.0425  0.1897 -0.1301
  473loPI   C4B 7568   7.363  10.931   8.797 -0.1275  0.1321  0.0723
  474loPI    C1 7569   2.195   4.245  10.287  0.0169  0.1129  0.0366
  474loPI    C2 7570   2.306   3.945  10.046 -0.0942  0.0467  0.0671
  474loPI    C3 7571   2.032   3.882  10.331 -0.2049  0.2058 -0.0024
  474loPI   PO4 7572   2.224   4.431  10.091  0.2328  0.3437  0.2195
  474loPI   GL1 7573   2.497   4.313   9.720 -0.2073  0.2279 -0.2378
  474loPI   GL2 7574   2.728   4.098   9.666 -0.3015 -0.2302  0.2132
  474loPI   C1A 7575   2.487   4.459   9.306 -0.0702 -0.2654  0.1362
  474loPI   C2A 7576   2.335   4.440   8.921 -0.1424 -0.0246 -0.3286
  474loPI   C3A 7577   2.187   4.455   8.475  0.0066 -0.2649  0.3511
  474loPI   C4A 7578   2.082   4.505   7.919 -0.2016  0.0475 -0.0302
  474loPI   C5A 7579   2.333   4.789   7.685 -0.1590 -0.0557  0.0240
  474loPI   C6A 7580   2.663   4.908   7.405 -0.2475  0.0406 -0.1089
  474loPI   C1B 7581   2.515   3.937   9.330  0.0714 -0.2012  0.1067
  474loPI   C2B 7582   2.511   3.957   8.908 -0.0600 -0.0600 -0.1072
  474loPI   C3B 7583   2.505   3.953   8.498  0.0106 -0.0809 -0.1387
  474loPI   C4B 7584   2.225   4.070   8.114 -0.1496 -0.2384  0.0312
  475loPI    C1 7585   6.778   5.512  10.208 -0.0379  0.0982 -0.0291
  475loPI    C2 7586   6.517   5.584  10.503  0.0289  0.2125  0.0030
  475loPI    C3 7587   6.888   5.732  10.524  0.0826  0.0892 -0.0641
  475loPI   PO4 7588   6.648   5.367  10.056 -0.1101  0.2014  0.2908
  475loPI   GL1 7589   6.585   4.870   9.943 -0.2996 -0.2471 -0.1580
  475loPI   GL2 7590   6.876   4.980   9.876  0.1649  0.4115 -0.2454
  475loPI   C1A 7591   6.585   5.066   9.491  0.1495 -0.0462 -0.3919
  475loPI   C2A 7592   6.703   5.123   9.033 -0.2343  0.2209  0.2291
  475loPI   C3A 7593   6.624   5.297   8.622  0.0061  0.0015  0.2748
  475loPI   C4A 7594   6.494   5.406   8.131 -0.2201  0.2880  0.0408
  475loPI   C5A 7595   6.433   5.376   7.672 -0.0437 -0.0282 -0.0582
  475loPI   C6A 7596   6.251   5.567   7.309 -0.0544 -0.1395 -0.0153
  475loPI   C1B 7597   6.852   4.687   9.499 -0.3306  0.0113 -0.1022
  475loPI   C2B 7598   6.634   4.632   9.160 -0.0250 -0.3029  0.1111
  475loPI   C3B 7599   6.554   4.702   8.711  0.1012 -0.1209  0.1301
  475loPI   C4B 7600   6.669   4.712   8.337 -0.1893 -0.1309 -0.4545
  476loPI    C1 7601  12.004  14.907  10.779  0.0376  0.3008  0.0299
  476loPI    C2 7602  12.100  15.219  11.011  0.2394  0.0724  0.2599
  476loPI    C3 7603  11.868  14.926  11.155 -0.0320  0.1605  0.0123
  476loPI   PO4 7604  11.855  14.961  10.500 -0.0916 -0.0087  0.1896
  476loPI   GL1 7605  11.818  14.818  10.078  0.2656 -0.1169 -0.1793
  476loPI   GL2 7606  11.584  14.623  10.011  0.1009  0.1630  0.3472
  476loPI   C1A 7607  11.802  14.940   9.636 -0.3110  0.1159 -0.0745
  476loPI   C2A 7608  11.669  14.843   9.285 -0.1182 -0.0325  0.0610
  476loPI   C3A 7609  11.733  14.813   8.915  0.3081  0.0706  0.1420
  476loPI   C4A 7610  11.758  14.857   8.462  0.0927  0.1641  0.1776
  476loPI   C5A 7611  11.865  15.232   8.254  0.2518  0.3086 -0.0469
  476loPI   C6A 7612  11.562  15.655   8.228  0.3330  0.1931 -0.3258
  476loPI   C1B 7613  11.530  14.470   9.658 -0.1725  0.2459 -0.1194
  476loPI   C2B 7614  11.410  14.415   9.190  0.0294 -0.0010 -0.1543
  476loPI   C3B 7615  11.484  14.400   8.624 -0.0633  0.1671 -0.0361
  476loPI   C4B 7616  11.533  14.374   8.212  0.0841  0.0040 -0.0559
  477loPI    C1 7617   0.353   1.141  11.018  0.0818  0.0680 -0.1162
  477loPI    C2 7618   0.020   0.982  11.172  0.0228 -0.0770 -0.3869
  477loPI    C3 7619   0.078   1.378  11.185 -0.0681 -0.0697 -0.1656
  477loPI   PO4 7620   0.364   1.106  10.787 -0.2535 -0.0845  0.1801
  477loPI   GL1 7621   0.391   1.105  10.317  0.1645 -0.0779  0.0564
  477loPI   GL2 7622   0.553   1.253  10.046 -0.2732  0.0310  0.1155
  477loPI   C1A 7623   0.210   0.836  10.018 -0.1007 -0.1828 -0.0223
  477loPI   C2A 7624   0.106   0.804   9.579 -0.3428  0.3280 -0.0450
  477loPI   C3A 7625   0.122   0.753   9.164  0.3318  0.2471  0.0710
  477loPI   C4A 7626   0.042   0.607   8.736  0.0787 -0.0567 -0.0240
  477loPI   C5A 7627   0.049   0.614   8.436 -0.1836 -0.0304  0.0898
  477loPI   C6A 7628   0.146   0.502   8.068 -0.1102  0.0469 -0.3497
  477loPI   C1B 7629   0.504   1.050   9.691 -0.1459  0.0676  0.1367
  477loPI   C2B 7630   0.433   1.092   9.329 -0.2079 -0.2777 -0.0044
  477loPI   C3B 7631   0.383   1.031   8.884  0.0188 -0.1660  0.1486
  477loPI   C4B 7632   0.320   1.029   8.479 -0.1328 -0.1982  0.1002
  478loPI    C1 7633  14.870   2.237  10.147  0.0264  0.0321  0.0429
  478loPI    C2 7634  14.551   2.230  10.388 -0.0832 -0.0668 -0.1032
  478loPI    C3 7635  14.895   2.064  10.506 -0.0668  0.0946  0.0800
  478loPI   PO4 7636  14.800   2.147   9.916 -0.0996  0.2844  0.1403
  478loPI   GL1 7637  14.912   2.309   9.608  0.0045  0.0500 -0.1700
  478loPI   GL2 7638  15.180   2.002   9.501 -0.0741  0.0395  0.0527
  478loPI   C1A 7639  14.594   2.412   9.297  0.1022  0.0601  0.0030
  478loPI   C2A 7640  14.351   2.422   8.881 -0.3349  0.0041 -0.1321
  478loPI   C3A 7641  14.474   2.435   8.375  0.0908 -0.0868 -0.2241
  478loPI   C4A 7642  14.697   2.472   8.054 -0.1763 -0.0922  0.0331
  478loPI   C5A 7643  14.930   2.401   7.674 -0.0877 -0.2838  0.0903
  478loPI   C6A 7644  14.959   2.585   7.379 -0.1314 -0.1037  0.2250
  478loPI   C1B 7645  15.204   2.195   9.159 -0.0507 -0.1262  0.0106
  478loPI   C2B 7646  14.991   2.382   8.883  0.0586 -0.4024  0.1920
  478loPI   C3B 7647  14.897   2.357   8.548 -0.0734  0.2208  0.0429
  478loPI   C4B 7648  15.163   2.423   8.157 -0.1607  0.4770 -0.0221
  479loPI    C1 7649   6.856  16.366  10.296  0.1772  0.1116  0.0060
  479loPI    C2 7650   7.176  16.344  10.535  0.0428 -0.2806  0.1580
  479loPI    C3 7651   6.814  16.245  10.675 -0.1339  0.0667 -0.0398
  479loPI   PO4 7652   6.971  16.220  10.069  0.0682  0.3204 -0.0959
  479loPI   GL1 7653   7.032  16.000   9.690  0.1489 -0.0096  0.0413
  479loPI   GL2 7654   6.810  16.325   9.491  0.1592 -0.1313 -0.2239
  479loPI   C1A 7655   6.952  15.541   9.624 -0.1275  0.0355  0.1649
  479loPI   C2A 7656   7.096  15.358   9.269 -0.2899  0.1477  0.3595
  479loPI   C3A 7657   7.172  15.400   8.914 -0.1309 -0.0514 -0.0051
  479loPI   C4A 7658   7.293  15.370   8.576 -0.1602 -0.2238 -0.2272
  479loPI   C5A 7659   7.067  15.238   8.189 -0.1621  0.0983 -0.1145
  479loPI   C6A 7660   6.784  14.920   8.151  0.0650  0.0924  0.0425
  479loPI   C1B 7661   6.589  16.412   9.169  0.1036  0.1823 -0.1384
  479loPI   C2B 7662   6.303  16.601   9.016 -0.2624  0.2160  0.1756
  479loPI   C3B 7663   5.889  16.751   8.731  0.1633  0.2845  0.0492
  479loPI   C4B 7664   5.773  17.058   8.488  0.1740  0.1931  0.1220
  480loPI    C1 7665  11.615  15.866  10.446  0.1093 -0.0084 -0.0582
  480loPI    C2 7666  11.968  16.006  10.571  0.0562 -0.1447  0.2547
  480loPI    C3 7667  11.629  16.173  10.702 -0.0001  0.1597 -0.2509
  480loPI   PO4 7668  11.754  15.777  10.175  0.0273  0.1318 -0.0956
  480loPI   GL1 7669  11.973  15.805   9.745 -0.1146 -0.0298  0.0573
  480loPI   GL2 7670  12.174  16.069   9.647 -0.3770 -0.3312 -0.0820
  480loPI   C1A 7671  11.663  15.946   9.485 -0.0635 -0.1245 -0.0729
  480loPI   C2A 7672  11.591  15.721   9.057 -0.4340 -0.1244  0.0812
  480loPI   C3A 7673  11.845  15.723   8.820  0.0990  0.3914  0.3235
  480loPI   C4A 7674  12.051  15.680   8.434 -0.1090 -0.0470 -0.1162
  480loPI   C5A 7675  12.031  15.767   8.008 -0.1742  0.1910 -0.1116
  480loPI   C6A 7676  12.459  15.747   7.943  0.0877  0.0133  0.0740
  480loPI   C1B 7677  12.131  15.860   9.247  0.1147  0.2677 -0.2946
  480loPI   C2B 7678  12.292  15.635   8.914 -0.0138  0.0527  0.1500
  480loPI   C3B 7679  12.551  15.701   8.526 -0.0330  0.1172  0.1192
  480loPI   C4B 7680  12.792  15.980   8.222 -0.0552  0.1667 -0.1501
  481loPI    C1 7681  16.236   0.066  10.825  0.2830 -0.0011  0.2041
  481loPI    C2 7682  15.939  -0.144  10.991  0.2351  0.1397  0.2978
  481loPI    C3 7683  16.294  -0.316  10.928  0.0832 -0.0820  0.0253
  481loPI   PO4 7684  16.088   0.234  10.545 -0.1308  0.1898  0.0399
  481loPI   GL1 7685  15.955   0.049  10.018 -0.1147  0.0498  0.0043
  481loPI   GL2 7686  15.694   0.332  10.162  0.0290 -0.0571 -0.0482
  481loPI   C1A 7687  15.917  -0.015   9.592 -0.2213 -0.5533 -0.1117
  481loPI   C2A 7688  15.940  -0.061   9.150 -0.1378  0.1024  0.0538
  481loPI   C3A 7689  15.998  -0.103   8.797 -0.1812  0.2972  0.1876
  481loPI   C4A 7690  15.938  -0.132   8.398  0.3054 -0.0279  0.1130
  481loPI   C5A 7691  16.149  -0.012   8.016 -0.0486 -0.1213 -0.0139
  481loPI   C6A 7692  16.501   0.178   7.775 -0.2257  0.0248  0.0274
  481loPI   C1B 7693  15.705   0.511   9.760 -0.3619  0.1253 -0.0228
  481loPI   C2B 7694  15.735   0.470   9.373  0.2149  0.1203  0.0875
  481loPI   C3B 7695  15.804   0.440   8.891  0.0880  0.0045  0.0649
  481loPI   C4B 7696  15.754   0.444   8.445 -0.2311 -0.0830 -0.0259
  482loPI    C1 7697  18.509   8.106  10.647  0.1052  0.1103  0.1777
  482loPI    C2 7698  18.290   7.907  10.378  0.0096  0.2186  0.1742
  482loPI    C3 7699  18.423   7.720  10.706 -0.0817  0.1500  0.1725
  482loPI   PO4 7700  18.637   8.317  10.428  0.1087 -0.0256  0.1100
  482loPI   GL1 7701  18.615   8.720  10.308  0.3372  0.2057  0.1000
  482loPI   GL2 7702  18.291   8.533  10.184  0.0379 -0.1357  0.1396
  482loPI   C1A 7703  18.765   8.650   9.867  0.1316  0.2122  0.0166
  482loPI   C2A 7704  18.785   8.667   9.396 -0.1534 -0.1832  0.1866
  482loPI   C3A 7705  18.742   8.739   8.945 -0.1514  0.0107  0.0217
  482loPI   C4A 7706  18.720   8.835   8.440 -0.2394 -0.0977  0.1463
  482loPI   C5A 7707  18.427   9.049   8.124  0.1652  0.3706 -0.2479
  482loPI   C6A 7708  18.017   8.742   7.993 -0.1598 -0.0732  0.3349
  482loPI   C1B 7709  18.273   8.590   9.697  0.0043  0.2508  0.2134
  482loPI   C2B 7710  18.260   8.583   9.303 -0.0593  0.2163  0.0029
  482loPI   C3B 7711  18.210   8.638   8.949 -0.0736  0.1250  0.2266
  482loPI   C4B 7712  18.208   8.691   8.509 -0.2214 -0.1570  0.2033
  483loPI    C1 7713   7.407   1.957  10.303 -0.0087 -0.0852  0.1096
  483loPI    C2 7714   7.561   1.654  10.514  0.2336  0.0795  0.1729
  483loPI    C3 7715   7.238   1.848  10.649  0.0940 -0.1309  0.1458
  483loPI   PO4 7716   7.396   1.890  10.015  0.2276  0.0478 -0.2439
  483loPI   GL1 7717   7.279   1.964   9.725  0.3034  0.0447  0.0558
  483loPI   GL2 7718   7.165   2.213   9.723  0.2264 -0.3137  0.0438
  483loPI   C1A 7719   7.333   1.952   9.318 -0.0809 -0.1623 -0.3322
  483loPI   C2A 7720   7.436   1.924   8.940 -0.4046  0.0885  0.2466
  483loPI   C3A 7721   7.530   2.115   8.568  0.2043  0.0396  0.2173
  483loPI   C4A 7722   7.694   2.092   8.238  0.0058  0.2277 -0.1619
  483loPI   C5A 7723   7.813   2.004   7.727 -0.1982 -0.0639  0.0888
  483loPI   C6A 7724   7.940   1.747   7.422  0.3008  0.0534  0.1895
  483loPI   C1B 7725   7.032   2.428   9.383 -0.0866  0.0676 -0.0362
  483loPI   C2B 7726   7.373   2.449   9.057  0.1934  0.0841 -0.0899
  483loPI   C3B 7727   7.527   2.609   8.645  0.1403 -0.0508 -0.0440
  483loPI   C4B 7728   7.640   2.568   8.220  0.2116 -0.0674 -0.1006
  484loPI    C1 7729  11.586  17.320  10.220  0.2218 -0.0040  0.0707
  484loPI    C2 7730  11.709  17.435  10.582 -0.1161 -0.1435  0.2340
  484loPI    C3 7731  11.759  17.056  10.465  0.2025 -0.0454  0.0399
  484loPI   PO4 7732  11.693  17.343  10.069 -0.1352  0.2274  0.2038
  484loPI   GL1 7733  11.772  17.108   9.703 -0.1711 -0.0498  0.0593
  484loPI   GL2 7734  11.402  16.960   9.705  0.0571 -0.2476 -0.0285
  484loPI   C1A 7735  11.961  17.339   9.351 -0.0856 -0.0138  0.1316
  484loPI   C2A 7736  12.040  17.569   9.045 -0.0155  0.0630 -0.1063
  484loPI   C3A 7737  12.104  17.478   8.561  0.3263 -0.2068 -0.3061
  484loPI   C4A 7738  12.059  17.421   8.148 -0.2360  0.0782 -0.0103
  484loPI   C5A 7739  11.809  17.512   7.794 -0.1269 -0.2505  0.3365
  484loPI   C6A 7740  11.561  17.261   7.693 -0.0365 -0.2151 -0.1120
  484loPI   C1B 7741  11.261  16.967   9.284 -0.0490 -0.1091 -0.0907
  484loPI   C2B 7742  10.879  17.028   9.034  0.2435  0.2324  0.2998
  484loPI   C3B 7743  10.491  17.091   9.207  0.1935 -0.1690 -0.0706
  484loPI   C4B 7744  10.374  17.072   9.570  0.3472 -0.0032  0.1755
  485loPI    C1 7745  15.652   5.872  10.551 -0.0008 -0.0979  0.2251
  485loPI    C2 7746  15.258   5.810  10.530 -0.0024 -0.0273  0.0165
  485loPI    C3 7747  15.429   5.894  10.882 -0.1708 -0.0710  0.1103
  485loPI   PO4 7748  15.754   5.735  10.318 -0.0515  0.0240 -0.0075
  485loPI   GL1 7749  15.800   5.616   9.849 -0.0683 -0.1963  0.0396
  485loPI   GL2 7750  15.523   5.435   9.720  0.1474 -0.2856 -0.1947
  485loPI   C1A 7751  15.968   5.715   9.467  0.1470  0.2180 -0.0728
  485loPI   C2A 7752  15.860   5.731   8.974 -0.0492  0.3024 -0.1888
  485loPI   C3A 7753  15.836   5.702   8.505 -0.0617  0.1445  0.0408
  485loPI   C4A 7754  15.696   5.458   8.151 -0.2111 -0.1434 -0.1500
  485loPI   C5A 7755  15.478   5.253   7.904  0.0638 -0.1105  0.0704
  485loPI   C6A 7756  15.476   4.849   7.611 -0.0824  0.1070 -0.1710
  485loPI   C1B 7757  15.476   5.605   9.387 -0.1007 -0.0700  0.0994
  485loPI   C2B 7758  15.327   5.697   8.976  0.0585  0.0166 -0.1271
  485loPI   C3B 7759  15.356   5.649   8.555 -0.2213 -0.0805  0.1523
  485loPI   C4B 7760  15.294   5.715   8.115  0.0098  0.0809 -0.1084
  486loPI    C1 7761   8.319  13.653  10.990  0.2127 -0.1867  0.2736
  486loPI    C2 7762   8.121  13.307  10.955 -0.0379 -0.0257  0.0569
  486loPI    C3 7763   8.031  13.560  11.252 -0.0550 -0.0182  0.0453
  486loPI   PO4 7764   8.528  13.603  10.770  0.2184  0.2108 -0.0817
  486loPI   GL1 7765   8.537  13.428  10.355 -0.2726 -0.1400 -0.1932
  486loPI   GL2 7766   8.915  13.436  10.423 -0.0563  0.0620 -0.1487
  486loPI   C1A 7767   8.564  13.299   9.919 -0.3595  0.1442  0.1944
  486loPI   C2A 7768   8.493  13.226   9.523  0.2611  0.0966 -0.0903
  486loPI   C3A 7769   8.508  13.233   9.111 -0.1030 -0.0124 -0.0043
  486loPI   C4A 7770   8.479  13.181   8.698 -0.0708  0.1703  0.1928
  486loPI   C5A 7771   8.445  13.091   8.314  0.0486 -0.0415 -0.2121
  486loPI   C6A 7772   8.733  12.974   7.959  0.2185 -0.2368  0.1060
  486loPI   C1B 7773   9.044  13.416  10.030  0.2665 -0.0753  0.1509
  486loPI   C2B 7774   9.031  13.358   9.509  0.1868  0.2285 -0.0511
  486loPI   C3B 7775   9.033  13.200   9.052  0.1052 -0.0305 -0.2294
  486loPI   C4B 7776   8.938  13.115   8.582  0.0770  0.1758 -0.1192
  487loPI    C1 7777  11.281   3.448   9.847 -0.0431 -0.1283 -0.1640
  487loPI    C2 7778  10.937   3.246   9.880 -0.1202  0.0245 -0.0120
  487loPI    C3 7779  11.165   3.307  10.203  0.0318 -0.0430 -0.1052
  487loPI   PO4 7780  11.367   3.370   9.632  0.2188  0.3438  0.1646
  487loPI   GL1 7781  11.420   2.993   9.407  0.2115 -0.2475  0.0973
  487loPI   GL2 7782  11.538   2.673   9.483  0.0955  0.0921 -0.0436
  487loPI   C1A 7783  11.618   3.066   9.156 -0.1493 -0.1068 -0.1266
  487loPI   C2A 7784  11.622   3.033   8.726 -0.0807  0.2942  0.1716
  487loPI   C3A 7785  11.585   3.011   8.202  0.0043 -0.2228  0.1455
  487loPI   C4A 7786  11.659   2.998   7.818  0.0086 -0.2611  0.0303
  487loPI   C5A 7787  11.656   2.631   7.608  0.5570 -0.1781  0.1484
  487loPI   C6A 7788  11.823   2.205   7.390  0.2424 -0.3685 -0.2250
  487loPI   C1B 7789  11.884   2.602   9.254 -0.1082 -0.0148  0.0411
  487loPI   C2B 7790  11.877   2.605   8.837  0.0760 -0.0011 -0.3742
  487loPI   C3B 7791  11.829   2.636   8.443 -0.0587  0.1606  0.0211
  487loPI   C4B 7792  11.845   2.545   8.029 -0.0856 -0.0636  0.0902
  488loPI    C1 7793   0.173  12.839  10.546 -0.1200  0.0208 -0.0255
  488loPI    C2 7794   0.198  12.736  10.931  0.0947 -0.0773 -0.0639
  488loPI    C3 7795  -0.051  13.027  10.818 -0.0815 -0.1508  0.1272
  488loPI   PO4 7796   0.212  12.629  10.368  0.3264  0.1308 -0.1058
  488loPI   GL1 7797   0.001  12.724   9.858 -0.0837  0.0202 -0.0242
  488loPI   GL2 7798  -0.237  12.908   9.794 -0.0917  0.1821  0.3316
  488loPI   C1A 7799  -0.006  12.829   9.346 -0.2116  0.1785 -0.3116
  488loPI   C2A 7800  -0.001  12.743   8.918  0.3055  0.0061 -0.2883
  488loPI   C3A 7801   0.003  12.782   8.484  0.2459 -0.1015  0.3586
  488loPI   C4A 7802  -0.282  12.771   8.088  0.0111  0.1675  0.2186
  488loPI   C5A 7803  -0.301  12.752   7.681 -0.0882 -0.1744 -0.0756
  488loPI   C6A 7804  -0.186  12.693   7.289  0.1607 -0.0925  0.0599
  488loPI   C1B 7805  -0.285  13.254   9.662 -0.1647  0.0260  0.1137
  488loPI   C2B 7806  -0.141  13.603   9.344 -0.1948 -0.3142  0.1151
  488loPI   C3B 7807  -0.163  13.693   8.821 -0.1910  0.0347  0.2017
  488loPI   C4B 7808  -0.048  13.856   8.385  0.0475 -0.2066  0.2634
  489loPI    C1 7809  10.108   6.483  10.233  0.0422  0.1178  0.1302
  489loPI    C2 7810   9.818   6.722  10.373  0.0944  0.1878  0.1197
  489loPI    C3 7811  10.185   6.739  10.531  0.0702  0.0355  0.1939
  489loPI   PO4 7812  10.034   6.425   9.961 -0.0954 -0.0148  0.2059
  489loPI   GL1 7813   9.896   6.305   9.561  0.1294 -0.2134  0.2037
  489loPI   GL2 7814   9.751   6.612   9.571 -0.2029 -0.0363 -0.1472
  489loPI   C1A 7815  10.108   6.214   9.197  0.1684 -0.1897  0.0681
  489loPI   C2A 7816  10.205   6.101   8.792  0.0301  0.1473 -0.0422
  489loPI   C3A 7817  10.313   6.007   8.349 -0.3481 -0.0989  0.2084
  489loPI   C4A 7818  10.469   5.608   8.201  0.1107  0.0289 -0.0021
  489loPI   C5A 7819  10.710   5.322   7.999  0.0335 -0.2139 -0.0223
  489loPI   C6A 7820  10.999   5.137   7.819 -0.0408 -0.2666  0.5022
  489loPI   C1B 7821   9.952   6.674   9.199  0.0844 -0.1512  0.0306
  489loPI   C2B 7822  10.162   6.613   8.791  0.0124 -0.0443  0.1089
  489loPI   C3B 7823  10.353   6.638   8.317 -0.2794 -0.0677 -0.0091
  489loPI   C4B 7824  10.338   6.403   7.875 -0.0322  0.2051  0.0055
  490loPI    C1 7825   0.139  14.429  10.504  0.1769  0.0311 -0.0870
  490loPI    C2 7826   0.260  14.649  10.816 -0.0347  0.1414 -0.0810
  490loPI    C3 7827  -0.031  14.378  10.863  0.1072 -0.0204 -0.1270
  490loPI   PO4 7828   0.041  14.628  10.370 -0.0945  0.0055 -0.0251
  490loPI   GL1 7829  -0.200  14.963  10.148 -0.0472  0.2276 -0.0489
  490loPI   GL2 7830  -0.309  14.788   9.945  0.1773 -0.0702  0.2848
  490loPI   C1A 7831  -0.119  15.183   9.736  0.0749 -0.0280 -0.1770
  490loPI   C2A 7832   0.208  15.421   9.430  0.0502  0.1310  0.2238
  490loPI   C3A 7833   0.312  15.561   9.034 -0.1107  0.2372 -0.2381
  490loPI   C4A 7834   0.323  15.616   8.661 -0.0057  0.0559 -0.1109
  490loPI   C5A 7835   0.225  15.527   8.185  0.0850 -0.0396 -0.0783
  490loPI   C6A 7836   0.110  15.188   7.937  0.0659  0.3732  0.1756
  490loPI   C1B 7837  -0.236  14.680   9.505 -0.1112 -0.0162  0.0518
  490loPI   C2B 7838  -0.028  14.957   9.208 -0.1711 -0.2899  0.1176
  490loPI   C3B 7839   0.011  15.166   8.817  0.0655  0.3222  0.0245
  490loPI   C4B 7840   0.001  15.147   8.402 -0.4946  0.1689 -0.0113
  491loPI    C1 7841  13.503   8.644  10.114 -0.2097 -0.0067 -0.0065
  491loPI    C2 7842  13.294   8.312  10.194 -0.0514 -0.0798  0.1110
  491loPI    C3 7843  13.385   8.567  10.489 -0.3179  0.1564 -0.0058
  491loPI   PO4 7844  13.277   8.773   9.905  0.0533  0.2778 -0.2865
  491loPI   GL1 7845  13.209   9.052   9.640 -0.1692 -0.0559 -0.1222
  491loPI   GL2 7846  13.558   9.208   9.702  0.2296  0.0761 -0.1173
  491loPI   C1A 7847  13.475   9.063   9.243  0.1326 -0.2851 -0.5592
  491loPI   C2A 7848  13.471   9.137   8.818 -0.1172  0.2186  0.2173
  491loPI   C3A 7849  13.217   9.408   8.506 -0.0884  0.1671 -0.2392
  491loPI   C4A 7850  13.130   9.390   8.106  0.1358  0.2198 -0.2561
  491loPI   C5A 7851  13.215   9.371   7.686  0.0700  0.0430  0.0888
  491loPI   C6A 7852  13.432   9.378   7.355 -0.1624 -0.1876  0.0205
  491loPI   C1B 7853  13.620   9.575   9.372  0.0628  0.4169  0.1443
  491loPI   C2B 7854  13.510   9.652   8.899 -0.2093 -0.0529  0.0375
  491loPI   C3B 7855  13.302   9.902   8.693 -0.0179 -0.2673  0.0625
  491loPI   C4B 7856  13.256  10.194   8.322  0.1255 -0.1281  0.1177
  492loPI    C1 7857   6.615   5.983  10.195  0.0808  0.2505  0.0259
  492loPI    C2 7858   6.685   6.373  10.251  0.0280  0.2611  0.0191
  492loPI    C3 7859   6.990   6.122  10.185  0.0448  0.3355 -0.1928
  492loPI   PO4 7860   6.510   5.931  10.024  0.1353 -0.1204 -0.2452
  492loPI   GL1 7861   6.313   5.838   9.729  0.0132  0.0073  0.0861
  492loPI   GL2 7862   6.363   5.519   9.697  0.0264 -0.2454  0.0292
  492loPI   C1A 7863   6.115   5.862   9.310 -0.1161  0.1032  0.0130
  492loPI   C2A 7864   6.107   5.964   8.868 -0.0339 -0.4042  0.0436
  492loPI   C3A 7865   6.128   6.133   8.413 -0.0300  0.0408 -0.2892
  492loPI   C4A 7866   5.943   6.261   8.059 -0.1425  0.1028  0.3390
  492loPI   C5A 7867   5.777   6.129   7.717 -0.0492 -0.3517  0.1947
  492loPI   C6A 7868   5.438   6.114   7.611 -0.0132 -0.2265  0.1883
  492loPI   C1B 7869   6.564   5.602   9.241  0.0524 -0.3451  0.2269
  492loPI   C2B 7870   6.558   5.743   8.838 -0.1305 -0.0401  0.2116
  492loPI   C3B 7871   6.559   5.896   8.334  0.1272  0.2207  0.1418
  492loPI   C4B 7872   6.344   5.878   7.895 -0.1074 -0.1712 -0.2796
  493loPI    C1 7873   5.837  17.489  10.172  0.2929  0.2133  0.2255
  493loPI    C2 7874   5.692  17.177  10.376  0.1432  0.1944  0.0924
  493loPI    C3 7875   6.045  17.336  10.477  0.1411  0.0900  0.2683
  493loPI   PO4 7876   5.667  17.422   9.947 -0.1245  0.0462  0.0810
  493loPI   GL1 7877   5.666  17.270   9.586 -0.3889  0.0284 -0.0600
  493loPI   GL2 7878   6.003  17.306   9.454  0.2675  0.0855  0.0906
  493loPI   C1A 7879   5.365  16.947   9.324 -0.0795 -0.2676  0.3263
  493loPI   C2A 7880   5.368  16.805   8.936  0.1908  0.0488  0.2484
  493loPI   C3A 7881   5.407  16.727   8.561 -0.2403 -0.0842  0.1797
  493loPI   C4A 7882   5.271  16.418   8.244 -0.0381 -0.1562 -0.1512
  493loPI   C5A 7883   5.116  16.295   7.934 -0.1359  0.1989  0.3432
  493loPI   C6A 7884   5.268  15.945   7.707  0.1535  0.2079 -0.1546
  493loPI   C1B 7885   6.010  17.665   9.251 -0.0595  0.0509  0.0473
  493loPI   C2B 7886   5.773  17.927   8.968  0.2695 -0.1129 -0.0291
  493loPI   C3B 7887   5.839  18.004   8.512  0.0163 -0.1978  0.0707
  493loPI   C4B 7888   5.799  18.106   8.071 -0.2224 -0.0775 -0.0468
  494loPI    C1 7889  12.005  11.231  10.811 -0.2096  0.1304 -0.0148
  494loPI    C2 7890  12.378  11.219  10.954 -0.1600 -0.1145 -0.1591
  494loPI    C3 7891  12.160  11.552  10.992  0.1000  0.0568 -0.1427
  494loPI   PO4 7892  12.011  11.124  10.575  0.0318  0.0420  0.0211
  494loPI   GL1 7893  11.905  11.252  10.195  0.0481  0.1360 -0.1649
  494loPI   GL2 7894  11.535  11.315  10.176  0.0763  0.3601 -0.1383
  494loPI   C1A 7895  12.061  11.314   9.785  0.0838  0.0570 -0.0369
  494loPI   C2A 7896  11.964  11.297   9.310  0.1706  0.1576 -0.0464
  494loPI   C3A 7897  12.072  11.319   8.891  0.1677  0.0654  0.0255
  494loPI   C4A 7898  12.041  11.272   8.508  0.0739 -0.0144 -0.1097
  494loPI   C5A 7899  12.082  11.115   8.037 -0.0374  0.1391  0.2758
  494loPI   C6A 7900  12.203  11.043   7.586  0.0335 -0.1454 -0.0062
  494loPI   C1B 7901  11.556  11.244   9.669 -0.3576 -0.1618  0.2154
  494loPI   C2B 7902  11.421  11.183   9.262 -0.1223 -0.1807  0.0129
  494loPI   C3B 7903  11.619  11.270   8.945 -0.1795 -0.0223 -0.0145
  494loPI   C4B 7904  11.500  11.261   8.500  0.0703 -0.1343  0.1258
  495loPI    C1 7905   6.698   1.812  10.419 -0.0754  0.0112 -0.0870
  495loPI    C2 7906   6.992   1.607  10.241 -0.0783 -0.0483 -0.0233
  495loPI    C3 7907   6.808   1.456  10.563  0.0292  0.1269  0.1222
  495loPI   PO4 7908   6.466   1.954  10.199 -0.0384  0.0298 -0.0496
  495loPI   GL1 7909   6.453   1.859   9.783  0.1476  0.1191 -0.2789
  495loPI   GL2 7910   6.800   1.816   9.829 -0.0532 -0.0716  0.3062
  495loPI   C1A 7911   6.304   1.753   9.386 -0.3364  0.0590 -0.1712
  495loPI   C2A 7912   6.381   1.938   8.927  0.0297  0.0709 -0.0255
  495loPI   C3A 7913   6.396   2.272   8.646 -0.1442 -0.2685  0.0004
  495loPI   C4A 7914   6.680   2.103   8.476 -0.0479 -0.0232 -0.0358
  495loPI   C5A 7915   6.702   2.000   8.130 -0.2343  0.0634  0.1291
  495loPI   C6A 7916   7.012   1.909   7.700  0.1132 -0.0563  0.0479
  495loPI   C1B 7917   6.793   1.857   9.387 -0.0969 -0.0360  0.1335
  495loPI   C2B 7918   6.905   1.865   8.926 -0.2043  0.0711  0.1562
  495loPI   C3B 7919   7.082   1.749   8.560  0.2151 -0.0323  0.0242
  495loPI   C4B 7920   7.205   1.966   8.145 -0.2290  0.0008 -0.0946
  496loPI    C1 7921   8.464   6.618   9.933 -0.0492  0.0737 -0.1519
  496loPI    C2 7922   8.504   7.015   9.968  0.0961  0.0509 -0.0488
  496loPI    C3 7923   8.513   6.783  10.294  0.2704 -0.0598 -0.1311
  496loPI   PO4 7924   8.274   6.539   9.818  0.2487 -0.1290 -0.3542
  496loPI   GL1 7925   8.382   6.376   9.455 -0.0881  0.1391 -0.0605
  496loPI   GL2 7926   8.705   6.326   9.452  0.3853 -0.0346  0.2453
  496loPI   C1A 7927   8.456   6.085   9.104 -0.0882 -0.1726  0.1334
  496loPI   C2A 7928   8.443   5.880   8.672 -0.1329 -0.0919 -0.4428
  496loPI   C3A 7929   8.725   5.972   8.349  0.2238 -0.1039  0.4095
  496loPI   C4A 7930   8.851   5.938   7.873  0.1684 -0.0947 -0.2471
  496loPI   C5A 7931   8.658   5.903   7.526  0.0020 -0.0145  0.0298
  496loPI   C6A 7932   8.316   5.778   7.267  0.1148  0.0340  0.3675
  496loPI   C1B 7933   8.989   6.141   9.063 -0.0928  0.1429 -0.1746
  496loPI   C2B 7934   9.059   6.299   8.654  0.0627  0.0340 -0.0329
  496loPI   C3B 7935   8.870   6.586   8.392  0.3582  0.0376  0.2782
  496loPI   C4B 7936   8.533   6.638   8.090  0.1907  0.0683  0.1453
  497loPI    C1 7937   5.629   3.314  10.408  0.0939  0.0443 -0.0723
  497loPI    C2 7938   5.507   3.336  10.788  0.3492 -0.1000  0.0202
  497loPI    C3 7939   5.590   2.981  10.625 -0.1249 -0.0759 -0.2917
  497loPI   PO4 7940   5.886   3.383  10.371  0.3606  0.0728  0.0634
  497loPI   GL1 7941   5.994   3.192   9.941  0.1332  0.0846  0.3425
  497loPI   GL2 7942   6.067   2.889   9.868  0.0992 -0.0343  0.1041
  497loPI   C1A 7943   5.728   3.343   9.534  0.0685 -0.1769 -0.4169
  497loPI   C2A 7944   5.585   3.391   9.121 -0.0093  0.1450  0.1169
  497loPI   C3A 7945   5.720   3.440   8.708  0.0711 -0.0005 -0.1094
  497loPI   C4A 7946   5.688   3.589   8.270  0.2128  0.0896 -0.0426
  497loPI   C5A 7947   5.690   3.490   7.817  0.0100  0.0174 -0.2668
  497loPI   C6A 7948   5.611   3.431   7.415  0.0589  0.0248  0.1332
  497loPI   C1B 7949   6.075   2.558   9.582  0.2122  0.0458 -0.0187
  497loPI   C2B 7950   6.039   2.616   9.137  0.0657  0.0938 -0.2282
  497loPI   C3B 7951   5.968   2.692   8.698  0.2228 -0.0336 -0.1064
  497loPI   C4B 7952   6.056   2.658   8.241 -0.1007 -0.0501 -0.3287
  498loPI    C1 7953  13.699   0.362  10.636 -0.1628  0.1137  0.0253
  498loPI    C2 7954  13.491   0.174  10.922 -0.0817  0.2267  0.1600
  498loPI    C3 7955  13.753   0.460  11.020  0.2070  0.0229  0.0005
  498loPI   PO4 7956  13.568   0.302  10.437  0.4539 -0.1078  0.4835
  498loPI   GL1 7957  13.609   0.056  10.098 -0.0925  0.2619 -0.0949
  498loPI   GL2 7958  13.829   0.225   9.871 -0.0648 -0.0534 -0.0820
  498loPI   C1A 7959  13.505  -0.143   9.761  0.1019  0.0090 -0.1357
  498loPI   C2A 7960  13.564  -0.247   9.392 -0.2133 -0.2071  0.2057
  498loPI   C3A 7961  13.631  -0.174   9.036 -0.0442  0.3791  0.1804
  498loPI   C4A 7962  13.555  -0.301   8.586  0.0021  0.1015  0.0797
  498loPI   C5A 7963  13.749  -0.280   8.163 -0.0521  0.2157 -0.0336
  498loPI   C6A 7964  14.046  -0.317   7.908 -0.0924 -0.2101 -0.1763
  498loPI   C1B 7965  13.849   0.209   9.388 -0.1653 -0.0723  0.2390
  498loPI   C2B 7966  13.950   0.204   8.998 -0.3398  0.0608  0.0970
  498loPI   C3B 7967  13.908   0.144   8.556  0.0486 -0.1563  0.2890
  498loPI   C4B 7968  14.005   0.178   8.077  0.1280 -0.0214  0.0347
  499loPI    C1 7969  13.918   3.003  10.534 -0.0575  0.0637 -0.1371
  499loPI    C2 7970  13.679   3.242  10.748  0.0822  0.0361  0.0524
  499loPI    C3 7971  14.052   3.358  10.661  0.0404  0.0288 -0.1416
  499loPI   PO4 7972  13.779   2.892  10.283 -0.1147 -0.0573 -0.4438
  499loPI   GL1 7973  13.826   2.897   9.808  0.0496  0.1912 -0.0400
  499loPI   GL2 7974  13.880   3.241   9.834  0.0618 -0.1903 -0.2181
  499loPI   C1A 7975  13.703   2.930   9.356  0.0006 -0.0375 -0.0238
  499loPI   C2A 7976  13.761   2.945   8.897 -0.2610  0.0884  0.0644
  499loPI   C3A 7977  13.620   2.873   8.483 -0.3004 -0.0182 -0.2367
  499loPI   C4A 7978  13.615   2.888   8.086 -0.0477 -0.0520  0.2908
  499loPI   C5A 7979  13.656   2.922   7.587 -0.0365 -0.3748 -0.1170
  499loPI   C6A 7980  13.813   3.078   7.162 -0.1842 -0.1750  0.0240
  499loPI   C1B 7981  13.957   3.385   9.529 -0.1523  0.2604  0.2657
  499loPI   C2B 7982  13.987   3.376   9.040 -0.0916  0.3664 -0.4566
  499loPI   C3B 7983  14.022   3.376   8.583  0.1995 -0.2342  0.2054
  499loPI   C4B 7984  13.917   3.284   8.172  0.0533  0.2057 -0.1996
  500loPI    C1 7985  10.459   7.824  10.243  0.1540 -0.1027 -0.0074
  500loPI    C2 7986  10.431   7.559  10.542  0.0040 -0.0165  0.0563
  500loPI    C3 7987  10.100   7.716  10.382  0.0881  0.0359 -0.0683
  500loPI   PO4 7988  10.616   7.634  10.027  0.2620 -0.0043 -0.2184
  500loPI   GL1 7989  10.842   7.628   9.674  0.1476 -0.0330 -0.1934
  500loPI   GL2 7990  10.475   7.796   9.608  0.0041 -0.1624  0.0763
  500loPI   C1A 7991  10.728   7.532   9.198 -0.1202  0.0405  0.0678
  500loPI   C2A 7992  10.634   7.509   8.687  0.0555  0.0819  0.1534
  500loPI   C3A 7993  10.614   7.551   8.210  0.4231 -0.0632 -0.1369
  500loPI   C4A 7994  10.701   7.734   7.892  0.1182  0.1704  0.0980
  500loPI   C5A 7995  10.971   7.739   7.527  0.1115  0.2445 -0.1504
  500loPI   C6A 7996  11.351   7.680   7.371 -0.1426  0.4037 -0.2587
  500loPI   C1B 7997  10.387   8.016   9.271  0.1193  0.1970  0.0974
  500loPI   C2B 7998  10.263   8.036   8.818 -0.2291 -0.0855 -0.1767
  500loPI   C3B 7999  10.424   7.999   8.458 -0.1694  0.2030  0.0184
  500loPI   C4B 8000  10.597   8.171   8.075 -0.1066 -0.1428  0.0758
  501loPI    C1 8001   0.857   4.342  10.308 -0.2823 -0.1226  0.0715
  501loPI    C2 8002   0.973   4.687  10.474 -0.1904 -0.0823 -0.0746
  501loPI    C3 8003   0.878   4.376  10.706 -0.1845  0.0123  0.0559
  501loPI   PO4 8004   0.842   4.418  10.066 -0.1377 -0.0806  0.1800
  501loPI   GL1 8005   0.939   4.417   9.745 -0.0889  0.0412 -0.0822
  501loPI   GL2 8006   1.319   4.446   9.619  0.0466 -0.1464  0.0262
  501loPI   C1A 8007   0.962   4.776   9.475  0.3196 -0.2342  0.1418
  501loPI   C2A 8008   1.030   5.025   9.081  0.2897  0.2133 -0.2087
  501loPI   C3A 8009   1.124   5.261   8.713 -0.4692 -0.2138  0.2026
  501loPI   C4A 8010   1.176   5.307   8.275 -0.4931 -0.0666 -0.0060
  501loPI   C5A 8011   1.618   5.572   7.953  0.2910 -0.0439 -0.0025
  501loPI   C6A 8012   1.768   5.392   7.651  0.2328  0.1961 -0.0840
  501loPI   C1B 8013   1.272   4.490   9.244  0.0021  0.1700  0.0226
  501loPI   C2B 8014   1.442   4.766   8.785  0.2056 -0.1348 -0.0096
  501loPI   C3B 8015   1.423   4.710   8.281 -0.1316 -0.1121  0.1631
  501loPI   C4B 8016   1.425   4.463   7.820 -0.0967 -0.0536 -0.0869
  502loPI    C1 8017   3.833   7.471  10.317  0.0331 -0.0903 -0.1932
  502loPI    C2 8018   3.444   7.544  10.256  0.0183  0.0271  0.0327
  502loPI    C3 8019   3.568   7.402  10.609  0.1831  0.0096 -0.0315
  502loPI   PO4 8020   3.911   7.354  10.060  0.1608  0.0042 -0.2472
  502loPI   GL1 8021   3.823   7.450   9.718  0.0008 -0.1634 -0.0029
  502loPI   GL2 8022   4.124   7.231   9.495  0.2306 -0.1328 -0.4333
  502loPI   C1A 8023   3.674   7.548   9.388 -0.1759  0.0528 -0.0773
  502loPI   C2A 8024   3.681   7.739   8.963  0.0204 -0.4431  0.3897
  502loPI   C3A 8025   3.535   7.544   8.619  0.3102  0.0429  0.2452
  502loPI   C4A 8026   3.282   7.611   8.218 -0.3691 -0.0123 -0.1199
  502loPI   C5A 8027   2.895   7.655   8.076  0.3124 -0.0785 -0.2900
  502loPI   C6A 8028   2.512   7.671   7.865 -0.0648  0.1559  0.0675
  502loPI   C1B 8029   4.103   7.348   9.039 -0.0094 -0.0104 -0.0434
  502loPI   C2B 8030   4.072   7.276   8.617  0.1295  0.0126 -0.1833
  502loPI   C3B 8031   3.807   6.959   8.408 -0.1461  0.1181  0.2209
  502loPI   C4B 8032   3.643   7.082   8.072  0.1568 -0.0379 -0.1521
  503loPI    C1 8033  17.562   7.081  10.706 -0.1832  0.2490 -0.3009
  503loPI    C2 8034  17.197   7.088  10.542 -0.3246  0.1228  0.0021
  503loPI    C3 8035  17.267   7.285  10.883 -0.1140  0.1295 -0.0437
  503loPI   PO4 8036  17.759   7.072  10.474  0.1377 -0.3306 -0.1184
  503loPI   GL1 8037  17.865   6.771  10.130 -0.0246  0.3132  0.1917
  503loPI   GL2 8038  17.581   6.690  10.199  0.2159  0.1388  0.3187
  503loPI   C1A 8039  17.913   6.775   9.679 -0.0540 -0.0396  0.1570
  503loPI   C2A 8040  17.834   6.764   9.202  0.2444 -0.2694  0.0543
  503loPI   C3A 8041  17.894   6.755   8.750  0.1168  0.1238  0.0584
  503loPI   C4A 8042  17.896   6.804   8.211  0.0521 -0.1068  0.4387
  503loPI   C5A 8043  18.142   6.654   7.889  0.0233 -0.0458  0.1665
  503loPI   C6A 8044  18.196   6.297   7.608 -0.0079  0.0998  0.3589
  503loPI   C1B 8045  17.464   6.729   9.729  0.0830 -0.1410  0.0021
  503loPI   C2B 8046  17.367   6.702   9.348  0.0162 -0.0683  0.0463
  503loPI   C3B 8047  17.422   6.735   8.932  0.0088  0.2186  0.1251
  503loPI   C4B 8048  17.454   6.677   8.517  0.1564 -0.0409 -0.1560
  504loPI    C1 8049   9.441   8.418  10.079  0.2204 -0.0755 -0.0378
  504loPI    C2 8050   9.748   8.339   9.835  0.2091 -0.1742 -0.0205
  504loPI    C3 8051   9.799   8.582  10.149  0.1954  0.0444 -0.1850
  504loPI   PO4 8052   9.300   8.202  10.068 -0.1709  0.0309 -0.0152
  504loPI   GL1 8053   9.221   8.091   9.671 -0.2365 -0.0170 -0.1077
  504loPI   GL2 8054   9.060   8.237   9.407  0.0708 -0.0044 -0.2140
  504loPI   C1A 8055   9.520   8.292   9.399  0.0540  0.1233  0.1472
  504loPI   C2A 8056   9.587   8.465   9.063  0.0736  0.3446 -0.0227
  504loPI   C3A 8057   9.566   8.475   8.671  0.0906  0.0584  0.0989
  504loPI   C4A 8058   9.562   8.371   8.216 -0.2445 -0.1991  0.0825
  504loPI   C5A 8059   9.360   8.156   7.964 -0.0474  0.0082  0.0992
  504loPI   C6A 8060   9.226   8.002   7.611  0.2991 -0.2132 -0.2464
  504loPI   C1B 8061   9.075   8.462   8.956 -0.0537 -0.0842 -0.2348
  504loPI   C2B 8062   9.136   8.341   8.502 -0.1165  0.0234  0.1316
  504loPI   C3B 8063   8.892   8.173   8.054 -0.0350 -0.1210  0.4224
  504loPI   C4B 8064   8.469   8.265   7.886  0.2717  0.0432 -0.2681
  505loPI    C1 8065  13.247  11.634  10.662 -0.0066  0.1563  0.1018
  505loPI    C2 8066  13.527  11.734  10.930  0.3510 -0.2895 -0.0899
  505loPI    C3 8067  13.256  11.454  11.019 -0.0796  0.1736  0.1125
  505loPI   PO4 8068  13.056  11.793  10.560 -0.1116 -0.1074  0.0906
  505loPI   GL1 8069  12.947  11.751  10.145  0.1673  0.1313 -0.1543
  505loPI   GL2 8070  12.736  11.962  10.202  0.0043 -0.0495  0.3527
  505loPI   C1A 8071  12.781  11.797   9.667  0.1817 -0.0256  0.2832
  505loPI   C2A 8072  12.746  11.770   9.226 -0.0883  0.2337 -0.0170
  505loPI   C3A 8073  12.683  11.748   8.844 -0.0571  0.0230  0.2704
  505loPI   C4A 8074  12.812  11.708   8.427 -0.0870 -0.2584 -0.0887
  505loPI   C5A 8075  12.687  11.901   7.985 -0.1170  0.2974 -0.1120
  505loPI   C6A 8076  13.106  11.945   7.646 -0.2806 -0.2001  0.1812
  505loPI   C1B 8077  12.499  12.204   9.971 -0.0629 -0.2571 -0.0587
  505loPI   C2B 8078  12.481  12.184   9.557  0.0597 -0.0808 -0.0054
  505loPI   C3B 8079  12.509  12.177   9.165  0.0912  0.0859 -0.1071
  505loPI   C4B 8080  12.397  12.181   8.770  0.0853 -0.2860  0.2799
  506loPI    C1 8081   8.120  15.012  11.026  0.0238 -0.0069  0.0416
  506loPI    C2 8082   8.054  15.404  11.071 -0.3294 -0.0188 -0.3153
  506loPI    C3 8083   8.051  15.163  11.390 -0.0404  0.2739 -0.0847
  506loPI   PO4 8084   8.245  15.021  10.769  0.1336  0.1965  0.0799
  506loPI   GL1 8085   8.240  14.959  10.264  0.1949  0.1772 -0.0893
  506loPI   GL2 8086   8.502  14.858  10.197 -0.3717  0.0626 -0.0653
  506loPI   C1A 8087   8.134  14.726   9.888  0.3168  0.0415  0.0874
  506loPI   C2A 8088   8.232  14.554   9.486  0.1171 -0.1154  0.0318
  506loPI   C3A 8089   8.160  14.459   9.133 -0.0643  0.3978  0.1519
  506loPI   C4A 8090   8.155  14.363   8.673 -0.1236  0.0018  0.0000
  506loPI   C5A 8091   8.096  14.221   8.198 -0.1550  0.2790  0.2135
  506loPI   C6A 8092   7.851  14.053   7.975  0.2550  0.1339  0.1837
  506loPI   C1B 8093   8.729  14.701   9.843  0.1426  0.0026  0.1831
  506loPI   C2B 8094   8.757  14.709   9.413 -0.1629 -0.2636 -0.1329
  506loPI   C3B 8095   8.640  14.531   9.089  0.1259 -0.0304  0.1962
  506loPI   C4B 8096   8.612  14.450   8.669  0.0225 -0.0693 -0.1074
  507loPI    C1 8097   7.607  15.133  11.053  0.0157 -0.0047  0.1852
  507loPI    C2 8098   7.219  15.143  11.149 -0.0485 -0.2149 -0.0424
  507loPI    C3 8099   7.447  14.836  11.266 -0.0421 -0.2861 -0.2379
  507loPI   PO4 8100   7.646  15.190  10.807  0.0254 -0.1355 -0.0985
  507loPI   GL1 8101   7.712  15.117  10.411  0.0328  0.0237 -0.0275
  507loPI   GL2 8102   7.794  14.793  10.408 -0.0500  0.2321  0.3197
  507loPI   C1A 8103   7.801  15.103   9.965 -0.2061  0.3432  0.0180
  507loPI   C2A 8104   7.839  14.999   9.583 -0.0123 -0.0104  0.1277
  507loPI   C3A 8105   7.917  14.884   9.221 -0.0403  0.0653 -0.1590
  507loPI   C4A 8106   8.033  14.879   8.751  0.3077  0.0177 -0.2300
  507loPI   C5A 8107   7.908  14.687   8.416 -0.2239 -0.0621  0.1873
  507loPI   C6A 8108   7.613  14.597   8.221  0.0830  0.1466 -0.0854
  507loPI   C1B 8109   7.699  14.599   9.994 -0.0921 -0.2954 -0.1120
  507loPI   C2B 8110   7.696  14.497   9.588 -0.2516  0.0096  0.0456
  507loPI   C3B 8111   7.673  14.431   9.183  0.0550 -0.0379 -0.0603
  507loPI   C4B 8112   7.701  14.487   8.783 -0.0249 -0.0605 -0.0987
  508loPI    C1 8113   0.588   6.547  10.854 -0.2402 -0.0721  0.0340
  508loPI    C2 8114   0.252   6.588  11.067 -0.2165 -0.1521  0.0871
  508loPI    C3 8115   0.592   6.479  11.248 -0.1001  0.1855  0.0789
  508loPI   PO4 8116   0.487   6.420  10.636  0.2550 -0.0331  0.2932
  508loPI   GL1 8117   0.456   6.466  10.240 -0.0374 -0.0164  0.0707
  508loPI   GL2 8118   0.721   6.345  10.133 -0.0240 -0.1244 -0.1407
  508loPI   C1A 8119   0.242   6.372   9.829 -0.0737  0.0767  0.0278
  508loPI   C2A 8120   0.167   6.374   9.382  0.1958 -0.0795 -0.3253
  508loPI   C3A 8121   0.042   6.351   8.975  0.0993  0.4467  0.1038
  508loPI   C4A 8122   0.152   6.425   8.588  0.0277 -0.1039  0.0616
  508loPI   C5A 8123   0.151   6.520   8.150 -0.1619  0.1176 -0.3452
  508loPI   C6A 8124   0.178   6.430   7.747  0.0840 -0.0230  0.4974
  508loPI   C1B 8125   0.765   6.232   9.661 -0.3935 -0.0190 -0.1714
  508loPI   C2B 8126   0.676   6.486   9.295  0.2291  0.0342 -0.1430
  508loPI   C3B 8127   0.515   6.453   8.948 -0.0849 -0.0379  0.1602
  508loPI   C4B 8128   0.638   6.544   8.533  0.0759  0.2079  0.0576
  509loPI    C1 8129   2.042   8.032  10.832  0.0374 -0.0717 -0.0372
  509loPI    C2 8130   2.268   7.907  11.138  0.0044 -0.1450 -0.0426
  509loPI    C3 8131   1.909   8.068  11.208  0.0570 -0.0302 -0.0341
  509loPI   PO4 8132   2.254   8.111  10.691 -0.1078  0.0240 -0.2952
  509loPI   GL1 8133   2.297   8.186  10.266 -0.1930 -0.2633 -0.2121
  509loPI   GL2 8134   2.068   8.021  10.130  0.3690 -0.2449  0.1607
  509loPI   C1A 8135   2.397   8.379   9.868 -0.1214 -0.3456  0.1851
  509loPI   C2A 8136   2.563   8.361   9.555  0.4319 -0.0078  0.1840
  509loPI   C3A 8137   2.612   8.548   9.124  0.0607 -0.0486 -0.0163
  509loPI   C4A 8138   2.603   8.562   8.749  0.0740 -0.0389  0.0419
  509loPI   C5A 8139   2.537   8.338   8.433  0.1385  0.0257  0.0512
  509loPI   C6A 8140   2.529   7.816   8.475 -0.0019 -0.0701 -0.1383
  509loPI   C1B 8141   2.111   7.866   9.723  0.0034  0.1126  0.1008
  509loPI   C2B 8142   2.010   7.615   9.338  0.0560  0.2670  0.0347
  509loPI   C3B 8143   2.171   7.562   8.975 -0.0138  0.1215  0.2595
  509loPI   C4B 8144   2.541   7.613   8.896 -0.1031  0.1693  0.0693
  510loPI    C1 8145  10.330  12.083  10.519  0.1937 -0.1122  0.0022
  510loPI    C2 8146  10.479  11.785  10.739 -0.0002 -0.3843 -0.2279
  510loPI    C3 8147  10.115  11.931  10.820  0.2564  0.0760  0.1438
  510loPI   PO4 8148  10.352  11.995  10.284 -0.0935 -0.0837  0.1098
  510loPI   GL1 8149  10.282  12.025   9.833  0.0500 -0.1907 -0.0711
  510loPI   GL2 8150  10.203  11.679   9.964 -0.3993 -0.1030  0.2111
  510loPI   C1A 8151  10.421  12.017   9.416  0.0037  0.1990  0.1556
  510loPI   C2A 8152  10.428  11.959   8.958  0.0349 -0.3629  0.1342
  510loPI   C3A 8153  10.467  12.016   8.472 -0.0124 -0.1127 -0.1887
  510loPI   C4A 8154  10.309  11.985   8.076  0.1685  0.3093 -0.0249
  510loPI   C5A 8155  10.036  12.212   7.874  0.1853 -0.3984  0.2253
  510loPI   C6A 8156   9.762  12.072   7.583  0.0883  0.0929 -0.0828
  510loPI   C1B 8157  10.242  11.553   9.539  0.1655 -0.1719  0.0293
  510loPI   C2B 8158  10.199  11.504   9.106  0.1731  0.0783  0.2243
  510loPI   C3B 8159  10.241  11.588   8.704  0.1216  0.0814 -0.2207
  510loPI   C4B 8160  10.119  11.540   8.278 -0.2105 -0.2049  0.0970
  511loPI    C1 8161   5.757  10.868  10.868  0.1854  0.0073  0.1067
  511loPI    C2 8162   5.526  11.140  11.049  0.0831  0.0016 -0.0139
  511loPI    C3 8163   5.716  10.862  11.266  0.0933  0.0960  0.0989
  511loPI   PO4 8164   5.537  10.746  10.654 -0.1778 -0.0869 -0.1862
  511loPI   GL1 8165   5.478  10.739  10.288 -0.1823  0.0595 -0.1123
  511loPI   GL2 8166   5.515  10.509  10.114  0.1047  0.0137  0.1173
  511loPI   C1A 8167   5.171  11.000  10.124 -0.0750  0.0423  0.1180
  511loPI   C2A 8168   5.013  11.083   9.767 -0.0547  0.3292  0.0111
  511loPI   C3A 8169   5.044  11.145   9.322  0.2881 -0.0856 -0.4978
  511loPI   C4A 8170   5.065  11.077   8.818  0.2337  0.0521  0.0992
  511loPI   C5A 8171   5.071  11.078   8.337 -0.3402 -0.0443 -0.0664
  511loPI   C6A 8172   5.473  11.075   8.047 -0.1186 -0.1542 -0.0210
  511loPI   C1B 8173   5.444  10.667   9.708  0.0301  0.0513 -0.1653
  511loPI   C2B 8174   5.447  10.496   9.277 -0.1199  0.4224  0.1142
  511loPI   C3B 8175   5.280  10.582   8.829  0.4174  0.0383 -0.0894
  511loPI   C4B 8176   5.316  10.569   8.391  0.3681 -0.1348  0.1348
  512loPI    C1 8177  17.330  14.231  10.710  0.0772  0.1727 -0.1447
  512loPI    C2 8178  17.589  14.075  10.973 -0.0714 -0.1890 -0.2072
  512loPI    C3 8179  17.666  14.429  10.802  0.0512  0.0293  0.2817
  512loPI   PO4 8180  17.322  14.068  10.482  0.0563 -0.1862  0.0122
  512loPI   GL1 8181  17.122  14.187  10.068  0.1267 -0.0754 -0.0329
  512loPI   GL2 8182  17.524  14.151  10.053  0.1632  0.3927  0.0262
  512loPI   C1A 8183  16.940  14.357   9.663 -0.0180 -0.0304 -0.0971
  512loPI   C2A 8184  16.987  14.292   9.189 -0.1830  0.2980  0.1913
  512loPI   C3A 8185  17.188  14.267   8.930  0.1555  0.0931 -0.0453
  512loPI   C4A 8186  17.258  14.176   8.491 -0.2045 -0.4011 -0.2619
  512loPI   C5A 8187  17.004  14.213   8.122 -0.0673 -0.1057  0.0641
  512loPI   C6A 8188  16.610  14.387   7.881  0.2549  0.2072 -0.0493
  512loPI   C1B 8189  17.398  14.236   9.674 -0.0112 -0.1125 -0.1329
  512loPI   C2B 8190  17.510  14.146   9.329  0.3346 -0.3444  0.1097
  512loPI   C3B 8191  17.396  13.844   9.107  0.0546 -0.2373  0.0967
  512loPI   C4B 8192  17.362  13.424   9.146  0.0914  0.0715  0.0154
  513loPI    C1 8193  15.475  17.702  11.018 -0.1576 -0.0449  0.1846
  513loPI    C2 8194  15.604  18.000  11.252 -0.0665 -0.0375  0.1252
  513loPI    C3 8195  15.503  17.649  11.414 -0.0099 -0.0303  0.1767
  513loPI   PO4 8196  15.311  17.905  10.833  0.2383 -0.0575 -0.0423
  513loPI   GL1 8197  15.503  17.881  10.434 -0.3025 -0.0890 -0.0120
  513loPI   GL2 8198  15.778  17.790  10.242  0.2687 -0.2748  0.1542
  513loPI   C1A 8199  15.338  17.819  10.005  0.1008  0.1866  0.0326
  513loPI   C2A 8200  15.325  17.736   9.534 -0.1677 -0.0253  0.1214
  513loPI   C3A 8201  15.343  17.636   9.126 -0.1055  0.2469  0.2763
  513loPI   C4A 8202  15.486  17.497   8.803  0.0845  0.0741 -0.2374
  513loPI   C5A 8203  15.508  17.237   8.458 -0.0299  0.1347 -0.0237
  513loPI   C6A 8204  15.586  17.052   8.144  0.1063 -0.1442  0.0040
  513loPI   C1B 8205  15.781  17.686   9.752  0.0140 -0.0258  0.2425
  513loPI   C2B 8206  15.800  17.572   9.223 -0.0171 -0.0626 -0.0505
  513loPI   C3B 8207  15.964  17.511   8.828 -0.2859  0.0160  0.0895
  513loPI   C4B 8208  15.939  17.487   8.383 -0.2150 -0.2273  0.0441
  514loPI    C1 8209   0.999  12.544  10.774 -0.0551 -0.0220 -0.2166
  514loPI    C2 8210   0.668  12.662  10.583 -0.2366  0.0343  0.1246
  514loPI    C3 8211   0.670  12.635  10.982  0.0684 -0.2914  0.1064
  514loPI   PO4 8212   1.064  12.339  10.666  0.2820  0.0582  0.0865
  514loPI   GL1 8213   1.078  12.066  10.258  0.0750 -0.3447 -0.2425
  514loPI   GL2 8214   1.052  11.871  10.046 -0.2678  0.0780  0.0560
  514loPI   C1A 8215   1.606  12.074  10.164  0.1560  0.1856  0.1523
  514loPI   C2A 8216   1.688  12.011   9.730 -0.0562  0.1543 -0.2222
  514loPI   C3A 8217   1.714  12.116   9.346  0.0106  0.0506  0.3709
  514loPI   C4A 8218   1.587  12.087   8.885 -0.0800  0.1496  0.0167
  514loPI   C5A 8219   1.587  12.076   8.392  0.0366 -0.2242  0.0622
  514loPI   C6A 8220   1.379  11.923   8.089  0.0320  0.3411  0.0417
  514loPI   C1B 8221   1.022  12.003   9.643  0.2688  0.0596  0.0233
  514loPI   C2B 8222   1.227  11.962   9.276  0.3093 -0.1941  0.0052
  514loPI   C3B 8223   1.128  11.964   8.930 -0.2246  0.2801 -0.3689
  514loPI   C4B 8224   1.031  11.984   8.476  0.0762 -0.0965  0.0092
  515loPI    C1 8225   4.062   9.652  10.680  0.0829  0.2113 -0.0470
  515loPI    C2 8226   3.989   9.529  11.053 -0.0249  0.1603 -0.0845
  515loPI    C3 8227   4.329   9.424  10.871 -0.0537  0.0335 -0.0658
  515loPI   PO4 8228   4.037   9.871  10.610 -0.2639  0.1243 -0.0971
  515loPI   GL1 8229   3.888   9.967  10.246 -0.0145 -0.0527 -0.2215
  515loPI   GL2 8230   4.162  10.137  10.171  0.0171  0.3504 -0.3593
  515loPI   C1A 8231   3.739   9.891   9.845 -0.2110 -0.0256  0.3996
  515loPI   C2A 8232   3.718  10.094   9.314  0.0222 -0.0254 -0.2117
  515loPI   C3A 8233   3.630  10.067   8.846 -0.0919  0.0485 -0.3201
  515loPI   C4A 8234   3.587  10.130   8.506  0.2228 -0.1387 -0.0423
  515loPI   C5A 8235   3.506  10.113   8.188 -0.0059  0.0418 -0.3241
  515loPI   C6A 8236   3.311  10.093   7.798 -0.0452  0.1978 -0.3450
  515loPI   C1B 8237   4.137  10.227   9.782 -0.2103  0.1555 -0.1823
  515loPI   C2B 8238   4.222  10.179   9.441 -0.1560 -0.0054  0.1377
  515loPI   C3B 8239   4.167  10.121   9.067  0.0652 -0.0489 -0.1030
  515loPI   C4B 8240   4.139  10.117   8.601 -0.0603 -0.2598  0.2281
  516loPI    C1 8241   4.340   5.748  10.329 -0.1925 -0.0640  0.1075
  516loPI    C2 8242   3.992   5.651  10.156 -0.0506 -0.1497 -0.1360
  516loPI    C3 8243   4.210   5.370  10.340 -0.1281 -0.0881  0.0525
  516loPI   PO4 8244   4.328   6.035  10.148  0.0216 -0.2100 -0.1980
  516loPI   GL1 8245   4.581   6.124   9.774 -0.0570 -0.1823  0.1208
  516loPI   GL2 8246   4.581   6.410   9.873  0.1030 -0.2899  0.0079
  516loPI   C1A 8247   4.785   6.104   9.370  0.0417  0.1190  0.2412
  516loPI   C2A 8248   4.828   6.164   8.848  0.0829 -0.1725 -0.1022
  516loPI   C3A 8249   4.709   6.267   8.443 -0.2985  0.1628 -0.0246
  516loPI   C4A 8250   4.412   6.321   8.149 -0.0417  0.0338  0.3466
  516loPI   C5A 8251   4.256   6.637   7.953  0.1676 -0.1452 -0.3492
  516loPI   C6A 8252   4.038   6.930   7.661  0.2158  0.1318 -0.2953
  516loPI   C1B 8253   4.752   6.538   9.490 -0.1044 -0.2756  0.0120
  516loPI   C2B 8254   4.829   6.641   9.091 -0.1118 -0.4122  0.2318
  516loPI   C3B 8255   4.778   6.717   8.675 -0.2481 -0.3893  0.0122
  516loPI   C4B 8256   4.685   6.729   8.243  0.0790  0.0012 -0.1702
  517loPI    C1 8257   5.614   4.183  10.313  0.0219  0.0073 -0.0129
  517loPI    C2 8258   5.674   3.817  10.464 -0.0747  0.0271  0.0746
  517loPI    C3 8259   5.652   4.133  10.708  0.0445  0.0967 -0.0037
  517loPI   PO4 8260   5.604   4.124  10.095 -0.0588  0.1290  0.1090
  517loPI   GL1 8261   5.433   4.260   9.712  0.2600 -0.0527  0.0270
  517loPI   GL2 8262   5.523   3.978   9.660  0.4038  0.4738  0.1038
  517loPI   C1A 8263   5.310   4.203   9.253 -0.1778 -0.0840 -0.0481
  517loPI   C2A 8264   5.351   4.332   8.886 -0.0709 -0.0550  0.0681
  517loPI   C3A 8265   5.096   4.345   8.480 -0.0425 -0.3728 -0.1040
  517loPI   C4A 8266   4.987   4.406   8.112  0.1693  0.1301 -0.1842
  517loPI   C5A 8267   4.744   4.590   7.854 -0.1315  0.0199  0.1217
  517loPI   C6A 8268   4.850   4.744   7.431 -0.0174  0.0128  0.1571
  517loPI   C1B 8269   5.305   3.689   9.491 -0.1088  0.1729  0.1964
  517loPI   C2B 8270   5.184   3.710   9.078 -0.2391  0.0788  0.0918
  517loPI   C3B 8271   5.249   3.674   8.646 -0.3432 -0.0793 -0.2637
  517loPI   C4B 8272   5.267   3.916   8.229  0.0521  0.1636 -0.3727
  518loPI    C1 8273   7.394   1.193  10.169 -0.1134 -0.1085  0.0119
  518loPI    C2 8274   7.252   1.278  10.533  0.1720 -0.0861  0.1213
  518loPI    C3 8275   7.018   1.096  10.264 -0.0055 -0.2070  0.3536
  518loPI   PO4 8276   7.520   1.392  10.099 -0.3250 -0.4098  0.1400
  518loPI   GL1 8277   7.636   1.629   9.687  0.0830  0.1171  0.0866
  518loPI   GL2 8278   7.791   1.870   9.626  0.1208 -0.0787 -0.2047
  518loPI   C1A 8279   7.589   1.266   9.378 -0.1630 -0.2591 -0.0975
  518loPI   C2A 8280   7.586   0.994   9.027 -0.0321 -0.2125  0.0026
  518loPI   C3A 8281   7.546   1.051   8.538 -0.0317 -0.3101 -0.0611
  518loPI   C4A 8282   7.173   0.947   8.236 -0.1024 -0.1883 -0.3626
  518loPI   C5A 8283   6.811   0.836   8.037 -0.0149  0.3473  0.0526
  518loPI   C6A 8284   6.382   0.869   7.908  0.0327 -0.2728  0.1839
  518loPI   C1B 8285   7.777   1.753   9.237 -0.0859 -0.1161 -0.3471
  518loPI   C2B 8286   7.891   1.721   8.805  0.0755 -0.1029 -0.3430
  518loPI   C3B 8287   8.047   1.740   8.399  0.2739  0.1554 -0.0661
  518loPI   C4B 8288   8.109   1.697   8.059  0.2867  0.0925  0.3217
  519loPI    C1 8289  10.341  16.242  10.295 -0.1468 -0.1369 -0.0822
  519loPI    C2 8290  10.075  16.524  10.197  0.0226 -0.0310 -0.2433
  519loPI    C3 8291  10.012  16.291  10.516 -0.0679  0.2583 -0.0461
  519loPI   PO4 8292  10.415  16.120   9.927 -0.0283  0.2190 -0.1726
  519loPI   GL1 8293  10.305  16.068   9.473 -0.0713  0.0348 -0.2347
  519loPI   GL2 8294  10.131  15.792   9.645 -0.1072 -0.0035 -0.0634
  519loPI   C1A 8295  10.335  16.043   9.008 -0.0032  0.1118 -0.2513
  519loPI   C2A 8296  10.352  16.053   8.599 -0.1952  0.0703 -0.0101
  519loPI   C3A 8297  10.212  15.954   8.135 -0.1538  0.0754 -0.3304
  519loPI   C4A 8298  10.184  15.799   7.659 -0.2247 -0.0449  0.2377
  519loPI   C5A 8299   9.790  15.885   7.508  0.2441  0.1477 -0.0518
  519loPI   C6A 8300   9.553  15.834   7.203 -0.0351  0.0514  0.0137
  519loPI   C1B 8301  10.190  15.555   9.296  0.0402  0.2494 -0.0520
  519loPI   C2B 8302  10.141  15.509   8.851  0.0145  0.0114  0.3256
  519loPI   C3B 8303  10.175  15.484   8.407  0.1973 -0.0848  0.3982
  519loPI   C4B 8304  10.236  15.463   7.993 -0.0669 -0.1568  0.1092
  520loPI    C1 8305   5.172   0.692  10.610 -0.2118  0.0519 -0.0835
  520loPI    C2 8306   5.299   0.992  10.842  0.2454 -0.0220 -0.2272
  520loPI    C3 8307   5.178   0.649  11.008 -0.0669  0.1577 -0.0735
  520loPI   PO4 8308   5.109   0.861  10.384  0.1416  0.2033 -0.2281
  520loPI   GL1 8309   4.885   0.953   9.982  0.1424 -0.0531  0.0918
  520loPI   GL2 8310   4.994   0.627   9.933 -0.0994 -0.0305 -0.0707
  520loPI   C1A 8311   4.963   1.053   9.570  0.1749  0.0367  0.2290
  520loPI   C2A 8312   4.934   1.025   9.079  0.0411  0.0463 -0.1091
  520loPI   C3A 8313   5.041   0.964   8.612  0.3124  0.2059  0.0610
  520loPI   C4A 8314   5.204   1.002   8.174  0.4665  0.2039 -0.2218
  520loPI   C5A 8315   5.694   1.053   7.966 -0.0641  0.1946  0.0605
  520loPI   C6A 8316   5.876   0.760   7.705 -0.0355  0.2131  0.0935
  520loPI   C1B 8317   4.935   0.536   9.540 -0.4692 -0.0858  0.3701
  520loPI   C2B 8318   5.013   0.503   9.102 -0.2294  0.1120  0.4759
  520loPI   C3B 8319   4.807   0.569   8.813 -0.1245  0.1091 -0.3594
  520loPI   C4B 8320   4.392   0.617   8.444 -0.3774  0.3054 -0.1107
  521loPI    C1 8321   7.682   3.433  10.357 -0.0061  0.0637  0.0598
  521loPI    C2 8322   7.723   3.630  10.703 -0.0810  0.1266  0.0332
  521loPI    C3 8323   8.039   3.448  10.538 -0.0408  0.1128  0.1247
  521loPI   PO4 8324   7.597   3.579  10.169 -0.0875 -0.0285 -0.2909
  521loPI   GL1 8325   7.652   3.743   9.854  0.2513 -0.1324 -0.0303
  521loPI   GL2 8326   7.338   3.903   9.806  0.0996  0.1670  0.0961
  521loPI   C1A 8327   7.760   3.963   9.430 -0.1014  0.0661  0.0438
  521loPI   C2A 8328   7.683   4.118   9.043  0.0554 -0.0873  0.1037
  521loPI   C3A 8329   7.573   4.222   8.690 -0.3141 -0.3623 -0.2334
  521loPI   C4A 8330   7.434   4.229   8.327  0.0147  0.2422  0.1993
  521loPI   C5A 8331   7.280   4.317   7.929 -0.1452 -0.3941  0.1380
  521loPI   C6A 8332   7.006   4.146   7.608  0.0245  0.2808  0.0189
  521loPI   C1B 8333   7.275   3.958   9.321  0.2685 -0.2706 -0.2796
  521loPI   C2B 8334   7.225   3.946   8.918  0.0531 -0.1994 -0.2188
  521loPI   C3B 8335   7.134   3.830   8.529  0.0685 -0.0607  0.3109
  521loPI   C4B 8336   7.080   3.863   8.039 -0.0354 -0.1300  0.0962
  522loPI    C1 8337   0.341   4.593  10.347 -0.0171  0.1246  0.0149
  522loPI    C2 8338   0.031   4.489  10.116  0.0559  0.0578 -0.0538
  522loPI    C3 8339  -0.008   4.490  10.514  0.0836 -0.3397 -0.0461
  522loPI   PO4 8340   0.441   4.715  10.202 -0.0813  0.1996 -0.3630
  522loPI   GL1 8341   0.443   4.586   9.790 -0.1199  0.0570 -0.0840
  522loPI   GL2 8342   0.331   4.339   9.557 -0.1370  0.2272 -0.2104
  522loPI   C1A 8343   0.477   4.908   9.492  0.0421 -0.1817 -0.1401
  522loPI   C2A 8344   0.515   4.964   8.979  0.1186  0.1132 -0.0113
  522loPI   C3A 8345   0.577   5.165   8.635  0.0038 -0.0786 -0.0570
  522loPI   C4A 8346   0.732   5.157   8.178 -0.1488 -0.1517  0.2347
  522loPI   C5A 8347   0.713   5.221   7.713  0.3199 -0.1146 -0.1826
  522loPI   C6A 8348   0.736   5.508   7.460  0.0130  0.2501  0.1400
  522loPI   C1B 8349   0.320   4.501   9.154 -0.0161  0.0403 -0.0286
  522loPI   C2B 8350   0.207   4.601   8.736 -0.0026  0.3757 -0.0793
  522loPI   C3B 8351  -0.013   4.492   8.355  0.0634  0.1615  0.0496
  522loPI   C4B 8352   0.017   4.362   7.880 -0.3370  0.1408  0.1792
  523loPI    C1 8353   3.668   7.904  10.605 -0.0478 -0.1195  0.0504
  523loPI    C2 8354   3.909   7.918  10.924 -0.0635  0.1911  0.0518
  523loPI    C3 8355   3.531   8.044  10.953 -0.0153  0.3841 -0.1313
  523loPI   PO4 8356   3.847   7.959  10.425 -0.0414  0.3045  0.2158
  523loPI   GL1 8357   3.752   7.871  10.006  0.0530 -0.2632  0.3560
  523loPI   GL2 8358   3.437   7.731   9.808  0.0878 -0.1639 -0.4435
  523loPI   C1A 8359   3.917   8.043   9.620 -0.2302  0.4823 -0.0356
  523loPI   C2A 8360   3.923   8.116   9.211 -0.2780 -0.0858 -0.1159
  523loPI   C3A 8361   4.025   8.269   8.761  0.4794  0.2468 -0.2261
  523loPI   C4A 8362   4.025   8.300   8.305  0.2366  0.0884 -0.0724
  523loPI   C5A 8363   3.701   8.323   7.982 -0.0001  0.0834 -0.1857
  523loPI   C6A 8364   3.449   7.988   7.835  0.0225  0.2174 -0.0303
  523loPI   C1B 8365   3.493   8.066   9.414  0.0756  0.0320  0.0127
  523loPI   C2B 8366   3.413   8.234   9.014  0.0617  0.1984 -0.1466
  523loPI   C3B 8367   3.566   8.134   8.589  0.2808  0.0201  0.2114
  523loPI   C4B 8368   3.672   7.919   8.309 -0.1339  0.1910 -0.2402
  524loPI    C1 8369  14.715   7.137  10.193 -0.1106 -0.0649 -0.0290
  524loPI    C2 8370  14.413   7.386  10.112 -0.0386 -0.0294 -0.1938
  524loPI    C3 8371  14.495   7.287  10.491 -0.0398  0.2322 -0.1231
  524loPI   PO4 8372  14.887   7.307  10.019 -0.0825  0.0921 -0.0012
  524loPI   GL1 8373  14.729   7.543   9.697  0.2675  0.2966 -0.0470
  524loPI   GL2 8374  14.516   7.735   9.692 -0.3144  0.2112  0.0354
  524loPI   C1A 8375  14.857   7.742   9.316 -0.1271  0.0121  0.1181
  524loPI   C2A 8376  14.812   7.904   8.817 -0.3243  0.0827 -0.1290
  524loPI   C3A 8377  14.820   7.851   8.332 -0.2222  0.0318 -0.0590
  524loPI   C4A 8378  14.739   7.881   7.910 -0.1644 -0.1827 -0.0587
  524loPI   C5A 8379  14.523   7.981   7.581 -0.2217 -0.1412  0.0596
  524loPI   C6A 8380  14.167   8.059   7.270 -0.3851  0.0980  0.2198
  524loPI   C1B 8381  14.339   7.688   9.259 -0.1697 -0.0126  0.1143
  524loPI   C2B 8382  14.341   7.924   8.855  0.1326 -0.1303 -0.4076
  524loPI   C3B 8383  14.258   7.839   8.479  0.1042  0.0900 -0.0367
  524loPI   C4B 8384  14.042   7.821   8.150  0.0185  0.0778  0.0034
  525loPI    C1 8385   2.699   2.008  10.766  0.0246 -0.0929  0.3168
  525loPI    C2 8386   2.981   1.837  10.993  0.0585 -0.0654  0.2956
  525loPI    C3 8387   2.760   1.613  10.746  0.1138 -0.0763  0.2560
  525loPI   PO4 8388   2.754   2.117  10.560  0.0326 -0.0307 -0.0038
  525loPI   GL1 8389   2.534   1.952  10.034 -0.0486  0.0087 -0.0988
  525loPI   GL2 8390   2.337   2.140  10.002  0.1174 -0.0817  0.0654
  525loPI   C1A 8391   2.911   1.842   9.806  0.0088  0.0920 -0.0390
  525loPI   C2A 8392   3.218   1.809   9.486  0.0843 -0.0587  0.1226
  525loPI   C3A 8393   3.287   1.955   9.064  0.1292 -0.0862 -0.3165
  525loPI   C4A 8394   3.160   1.824   8.761  0.1753 -0.0552  0.0502
  525loPI   C5A 8395   2.843   1.899   8.410 -0.1790 -0.3164  0.0760
  525loPI   C6A 8396   2.572   1.594   8.298 -0.3506  0.0920 -0.0556
  525loPI   C1B 8397   2.527   2.042   9.521  0.2027 -0.4252  0.2302
  525loPI   C2B 8398   2.356   2.227   9.147  0.0429  0.3357 -0.1332
  525loPI   C3B 8399   2.501   2.292   8.723 -0.0353  0.1088  0.3095
  525loPI   C4B 8400   2.530   2.470   8.264  0.2635  0.0130  0.0975
  526loPI    C1 8401  12.826   2.545  10.507  0.2220 -0.0371  0.1217
  526loPI    C2 8402  12.729   2.466  10.886 -0.1961 -0.0129  0.0242
  526loPI    C3 8403  12.811   2.841  10.775 -0.0224 -0.0277  0.0998
  526loPI   PO4 8404  12.683   2.439  10.323 -0.1984 -0.1008  0.1697
  526loPI   GL1 8405  12.736   2.386   9.963 -0.0239  0.1194  0.0109
  526loPI   GL2 8406  13.033   2.432   9.696 -0.0600  0.1881 -0.0390
  526loPI   C1A 8407  12.581   2.133   9.634  0.2610 -0.0162 -0.2997
  526loPI   C2A 8408  12.454   2.122   9.216  0.1718 -0.2468  0.1230
  526loPI   C3A 8409  12.492   2.097   8.789  0.0562 -0.3030 -0.0836
  526loPI   C4A 8410  12.597   2.072   8.404  0.2684 -0.1469 -0.1615
  526loPI   C5A 8411  12.542   2.216   7.937  0.0284 -0.0320 -0.1889
  526loPI   C6A 8412  12.455   2.030   7.568  0.0768  0.0082  0.1138
  526loPI   C1B 8413  12.853   2.454   9.284  0.1994 -0.2063  0.0642
  526loPI   C2B 8414  12.834   2.384   8.857  0.0101 -0.2416  0.0920
  526loPI   C3B 8415  12.795   2.537   8.472  0.3496  0.2553 -0.2101
  526loPI   C4B 8416  12.836   2.616   8.124 -0.2489 -0.1422  0.1251
  527loPI    C1 8417   9.588   7.901  10.352  0.1760  0.1202  0.0931
  527loPI    C2 8418   9.661   7.602  10.609 -0.0444 -0.0159  0.0001
  527loPI    C3 8419   9.421   7.904  10.716 -0.0910 -0.0437 -0.0255
  527loPI   PO4 8420   9.682   7.829  10.144  0.2301 -0.0922  0.1243
  527loPI   GL1 8421   9.636   7.821   9.662  0.0081 -0.2913  0.2089
  527loPI   GL2 8422   9.978   7.747   9.540  0.3716 -0.2549  0.2993
  527loPI   C1A 8423   9.334   7.776   9.292  0.1758 -0.1876 -0.3964
  527loPI   C2A 8424   9.235   8.010   8.930 -0.3470  0.1711 -0.3090
  527loPI   C3A 8425   9.147   7.821   8.474  0.1496  0.1792 -0.1826
  527loPI   C4A 8426   9.118   7.714   8.068  0.1661 -0.1118 -0.1152
  527loPI   C5A 8427   9.113   7.419   7.621  0.1889  0.2231  0.0164
  527loPI   C6A 8428   9.253   7.055   7.391  0.1967  0.1618 -0.2291
  527loPI   C1B 8429   9.834   7.928   9.218  0.0531 -0.4904 -0.2245
  527loPI   C2B 8430   9.796   8.058   8.872  0.1593  0.0792 -0.3291
  527loPI   C3B 8431   9.888   7.993   8.443  0.0891  0.1931  0.0546
  527loPI   C4B 8432   9.822   8.010   7.961 -0.2825 -0.1570  0.0974
  528loPI    C1 8433   1.704  16.697  10.623  0.1020 -0.0125 -0.0777
  528loPI    C2 8434   1.418  16.501  10.821  0.0668  0.0577 -0.0589
  528loPI    C3 8435   1.687  16.718  11.022 -0.0468  0.2341 -0.0950
  528loPI   PO4 8436   1.669  16.725  10.385  0.0147  0.1833 -0.0437
  528loPI   GL1 8437   1.653  16.762  10.029 -0.0209  0.0265 -0.3299
  528loPI   GL2 8438   2.055  16.660  10.026 -0.0925 -0.2005  0.0366
  528loPI   C1A 8439   1.536  16.748   9.647  0.1327 -0.1117  0.3002
  528loPI   C2A 8440   1.655  16.767   9.277  0.0674 -0.1043  0.0881
  528loPI   C3A 8441   1.815  16.610   8.911 -0.0581 -0.3886  0.0381
  528loPI   C4A 8442   1.803  16.672   8.555  0.0140  0.0792  0.2662
  528loPI   C5A 8443   1.656  16.701   8.164 -0.0951  0.0717  0.2367
  528loPI   C6A 8444   1.383  16.505   7.993 -0.2158 -0.1977  0.3858
  528loPI   C1B 8445   2.125  16.795   9.672 -0.0285 -0.1496 -0.1491
  528loPI   C2B 8446   2.216  16.694   9.241  0.3032 -0.1065 -0.0447
  528loPI   C3B 8447   2.388  16.581   8.878  0.1674  0.2025  0.0157
  528loPI   C4B 8448   2.273  16.649   8.435 -0.1981  0.0389  0.1111
  529loPI    C1 8449   3.883  11.434  10.924 -0.0481  0.4788  0.0110
  529loPI    C2 8450   3.490  11.428  10.851 -0.0484 -0.2029  0.0115
  529loPI    C3 8451   3.624  11.413  11.228 -0.0201 -0.0679  0.0070
  529loPI   PO4 8452   3.987  11.298  10.772  0.0154  0.2127 -0.0781
  529loPI   GL1 8453   3.725  11.207  10.460 -0.0078 -0.1281 -0.2847
  529loPI   GL2 8454   3.340  11.300  10.374 -0.1118  0.2196 -0.0882
  529loPI   C1A 8455   3.825  11.462  10.071 -0.1304 -0.0440 -0.1918
  529loPI   C2A 8456   3.741  11.472   9.670 -0.2180 -0.1143  0.0706
  529loPI   C3A 8457   3.768  11.418   9.217  0.0212 -0.1890  0.2375
  529loPI   C4A 8458   3.733  11.511   8.743  0.0357  0.0790 -0.0248
  529loPI   C5A 8459   3.648  11.507   8.291  0.0511  0.0400  0.2961
  529loPI   C6A 8460   3.287  11.496   8.012  0.4019 -0.0178  0.0897
  529loPI   C1B 8461   3.292  11.358   9.858 -0.0983  0.0241  0.0356
  529loPI   C2B 8462   3.244  11.440   9.465 -0.2442 -0.0959  0.2376
  529loPI   C3B 8463   3.280  11.380   9.066 -0.0566  0.0015  0.0794
  529loPI   C4B 8464   3.252  11.428   8.589 -0.0329  0.1242 -0.0372
  530loPI    C1 8465  10.463   6.086  10.233  0.0261 -0.0239 -0.0809
  530loPI    C2 8466  10.078   5.998  10.296  0.0326 -0.2031 -0.2808
  530loPI    C3 8467  10.348   5.931  10.584 -0.1304  0.2290 -0.0180
  530loPI   PO4 8468  10.524   6.021  10.029 -0.1432  0.1950  0.0244
  530loPI   GL1 8469  10.396   6.320   9.616 -0.3124 -0.0752 -0.1554
  530loPI   GL2 8470  10.331   6.629   9.578 -0.0408  0.1080  0.0557
  530loPI   C1A 8471  10.570   6.052   9.290 -0.0481 -0.1437 -0.3489
  530loPI   C2A 8472  11.048   5.896   9.077 -0.0240 -0.1579 -0.1133
  530loPI   C3A 8473  11.299   5.907   8.719 -0.0945  0.1615  0.1767
  530loPI   C4A 8474  11.490   5.835   8.433  0.2046 -0.1189 -0.0002
  530loPI   C5A 8475  11.819   5.822   8.157  0.1390 -0.0540  0.1155
  530loPI   C6A 8476  11.834   5.784   7.717  0.0221 -0.2509  0.4231
  530loPI   C1B 8477  10.513   6.507   9.162  0.1444 -0.0896 -0.3215
  530loPI   C2B 8478  10.735   6.166   8.801 -0.3166  0.2755 -0.1216
  530loPI   C3B 8479  10.827   6.007   8.507  0.0388  0.0447 -0.1499
  530loPI   C4B 8480  11.092   5.970   8.177 -0.3130 -0.3341  0.1573
  531loPI    C1 8481  10.758   5.611  10.388  0.1177 -0.1052  0.0334
  531loPI    C2 8482  10.791   5.301  10.638 -0.0365 -0.1400  0.0115
  531loPI    C3 8483  11.107   5.534  10.566  0.0768 -0.2842  0.0379
  531loPI   PO4 8484  10.803   5.602  10.055 -0.2180  0.1546 -0.2650
  531loPI   GL1 8485  10.564   5.757   9.642  0.1182 -0.0750  0.1211
  531loPI   GL2 8486  10.288   5.708   9.447  0.1179 -0.2968  0.0903
  531loPI   C1A 8487  10.758   5.490   9.202  0.4826  0.1960  0.0311
  531loPI   C2A 8488  11.043   5.389   8.921  0.0516  0.2140 -0.1673
  531loPI   C3A 8489  11.431   5.425   8.757  0.0458  0.0857  0.0770
  531loPI   C4A 8490  11.643   5.342   8.417 -0.2192  0.0036  0.2154
  531loPI   C5A 8491  11.715   5.376   7.965  0.0825 -0.1360  0.2129
  531loPI   C6A 8492  11.465   5.482   7.624 -0.0141 -0.3049 -0.0940
  531loPI   C1B 8493  10.316   5.664   9.049  0.0621 -0.1862  0.0484
  531loPI   C2B 8494  10.643   5.625   8.689  0.0086 -0.0444 -0.2117
  531loPI   C3B 8495  11.014   5.482   8.412 -0.3779  0.1760  0.0250
  531loPI   C4B 8496  11.270   5.528   8.040  0.0572 -0.0947  0.0939
  532loPI    C1 8497   2.067  18.094  10.327 -0.0096  0.0450 -0.0601
  532loPI    C2 8498   2.194  18.192  10.693  0.0202  0.2019 -0.1119
  532loPI    C3 8499   2.343  17.870  10.510 -0.0051  0.1148  0.0192
  532loPI   PO4 8500   2.119  18.188  10.177 -0.0520 -0.0940 -0.2750
  532loPI   GL1 8501   2.221  18.251   9.744 -0.0875  0.1562  0.2565
  532loPI   GL2 8502   1.857  18.149   9.771  0.1704 -0.1170 -0.0324
  532loPI   C1A 8503   2.116  18.107   9.342 -0.0919  0.3689  0.0274
  532loPI   C2A 8504   1.907  18.322   8.999 -0.2898  0.4083  0.1989
  532loPI   C3A 8505   1.644  18.616   8.880  0.1082  0.0815 -0.0462
  532loPI   C4A 8506   1.550  18.989   8.725  0.0003 -0.0897  0.0987
  532loPI   C5A 8507   1.544  19.038   8.322  0.1729  0.1995  0.0279
  532loPI   C6A 8508   1.431  18.973   7.946 -0.3573  0.2568 -0.1859
  532loPI   C1B 8509   1.550  18.141   9.568  0.1860 -0.0505  0.0740
  532loPI   C2B 8510   1.334  18.155   9.205  0.0105  0.1491  0.0273
  532loPI   C3B 8511   1.435  18.166   8.806 -0.0561  0.3522  0.2381
  532loPI   C4B 8512   1.779  18.107   8.554  0.0398  0.0108 -0.3474
  533loPI    C1 8513   4.206   3.311  10.207  0.1413  0.0616  0.0133
  533loPI    C2 8514   4.517   3.166  10.412  0.0961 -0.1110 -0.0384
  533loPI    C3 8515   4.154   3.176  10.580  0.0537 -0.2777 -0.1174
  533loPI   PO4 8516   4.300   3.154   9.936 -0.2380 -0.0369 -0.0338
  533loPI   GL1 8517   4.576   3.251   9.650  0.0006 -0.1762  0.1063
  533loPI   GL2 8518   4.284   3.282   9.403  0.3932 -0.1745  0.1015
  533loPI   C1A 8519   4.747   3.443   9.278 -0.2655  0.1890 -0.0990
  533loPI   C2A 8520   4.725   3.582   8.911  0.0487  0.2773 -0.0589
  533loPI   C3A 8521   4.618   3.645   8.536  0.1067 -0.1739 -0.0082
  533loPI   C4A 8522   4.854   3.647   8.194  0.1639  0.1904 -0.0386
  533loPI   C5A 8523   5.022   3.778   7.766  0.2284  0.2004  0.0501
  533loPI   C6A 8524   5.063   3.957   7.360 -0.1908  0.1827 -0.0550
  533loPI   C1B 8525   4.308   3.585   9.112  0.0483  0.0508  0.1550
  533loPI   C2B 8526   4.125   3.692   8.704  0.4925 -0.0946  0.2831
  533loPI   C3B 8527   4.148   3.836   8.252  0.1708  0.0279 -0.0931
  533loPI   C4B 8528   4.003   3.744   7.830 -0.2785  0.0467  0.1017
  534loPI    C1 8529   7.167  17.814  10.137  0.1868  0.0705 -0.0272
  534loPI    C2 8530   6.883  18.065  10.265 -0.0056 -0.1345 -0.0476
  534loPI    C3 8531   6.963  17.731  10.471  0.2098 -0.0861 -0.0512
  534loPI   PO4 8532   7.087  17.819   9.888 -0.0290  0.1646 -0.1281
  534loPI   GL1 8533   7.273  18.012   9.521  0.3495 -0.0233 -0.1002
  534loPI   GL2 8534   7.522  17.770   9.524 -0.0211 -0.0424  0.0024
  534loPI   C1A 8535   7.008  17.746   9.189 -0.2379  0.0860  0.0113
  534loPI   C2A 8536   6.967  17.269   9.150 -0.0281  0.0425  0.0046
  534loPI   C3A 8537   6.691  17.075   8.880  0.1789 -0.1343 -0.0476
  534loPI   C4A 8538   6.425  16.835   8.617  0.1464  0.1003  0.3759
  534loPI   C5A 8539   6.207  16.955   8.156 -0.2420  0.0266 -0.2191
  534loPI   C6A 8540   5.887  17.157   7.934 -0.2044  0.3099  0.0238
  534loPI   C1B 8541   7.548  17.912   9.140  0.2290 -0.1310 -0.4061
  534loPI   C2B 8542   7.459  17.959   8.671 -0.2087  0.1824  0.0602
  534loPI   C3B 8543   7.224  17.882   8.280 -0.1179 -0.1513 -0.0649
  534loPI   C4B 8544   6.934  18.040   8.017  0.1008  0.2130 -0.0448
  535loPI    C1 8545  15.632  12.899  10.830 -0.0825 -0.1334  0.0772
  535loPI    C2 8546  15.459  13.259  10.844 -0.1459 -0.1648  0.1122
  535loPI    C3 8547  15.373  12.986  11.123 -0.1801 -0.2437  0.0246
  535loPI   PO4 8548  15.788  12.978  10.630  0.2882  0.2369 -0.0083
  535loPI   GL1 8549  15.936  13.230  10.242 -0.3350 -0.3662  0.2003
  535loPI   GL2 8550  15.726  13.453  10.411 -0.3677  0.2307  0.3523
  535loPI   C1A 8551  15.965  13.143   9.765  0.0582  0.0213  0.1348
  535loPI   C2A 8552  15.807  12.902   9.344  0.0709 -0.0227  0.0212
  535loPI   C3A 8553  15.666  12.853   8.906  0.0582  0.2192  0.3368
  535loPI   C4A 8554  15.848  12.876   8.494  0.0490  0.2329 -0.0959
  535loPI   C5A 8555  15.981  13.275   8.186  0.0019 -0.0753 -0.1932
  535loPI   C6A 8556  16.037  13.720   8.314  0.2878  0.0719  0.0390
  535loPI   C1B 8557  15.505  13.435  10.029 -0.0316  0.4077  0.0878
  535loPI   C2B 8558  15.484  13.173   9.699 -0.1830 -0.0034  0.0308
  535loPI   C3B 8559  15.456  13.230   9.314  0.3239 -0.0657 -0.0344
  535loPI   C4B 8560  15.437  13.277   8.944 -0.0422  0.0006  0.1467
  536loPI    C1 8561  11.554  12.958  10.922  0.0018 -0.1159  0.0609
  536loPI    C2 8562  11.217  13.165  10.977  0.1068  0.0091  0.2465
  536loPI    C3 8563  11.532  13.339  10.803  0.0814 -0.1030  0.0863
  536loPI   PO4 8564  11.452  12.755  10.759 -0.1921  0.0697  0.0284
  536loPI   GL1 8565  11.803  12.760  10.441 -0.1030  0.0497 -0.1059
  536loPI   GL2 8566  12.044  12.938  10.230  0.1339  0.0828  0.2079
  536loPI   C1A 8567  11.672  12.573  10.136 -0.3512  0.1974 -0.0365
  536loPI   C2A 8568  11.691  12.603   9.724 -0.0303 -0.1560  0.3450
  536loPI   C3A 8569  11.691  12.562   9.249 -0.0115  0.1498 -0.1477
  536loPI   C4A 8570  11.702  12.595   8.740 -0.3211  0.0751 -0.1232
  536loPI   C5A 8571  11.741  12.606   8.331 -0.3566 -0.2119  0.2173
  536loPI   C6A 8572  11.487  12.764   8.025  0.0946 -0.0929  0.3168
  536loPI   C1B 8573  11.782  13.062   9.877  0.0716  0.0841 -0.2129
  536loPI   C2B 8574  11.868  13.048   9.450  0.2887 -0.2430 -0.2803
  536loPI   C3B 8575  11.839  13.007   9.053 -0.0062  0.0624  0.0947
  536loPI   C4B 8576  11.763  13.046   8.559  0.1511  0.1580  0.0980
  537loPI    C1 8577  14.668   4.235  10.284 -0.0671  0.1681 -0.0183
  537loPI    C2 8578  14.824   4.266  10.650 -0.1694  0.4059  0.0074
  537loPI    C3 8579  14.624   3.936  10.545 -0.0936  0.3145  0.1465
  537loPI   PO4 8580  14.845   4.334  10.115 -0.2513 -0.1591  0.0530
  537loPI   GL1 8581  14.906   4.203   9.754  0.3767  0.0983 -0.0372
  537loPI   GL2 8582  15.017   4.496   9.687  0.2546 -0.0667 -0.0218
  537loPI   C1A 8583  14.633   4.134   9.338 -0.0751 -0.1610 -0.2096
  537loPI   C2A 8584  14.588   4.275   8.889  0.0569 -0.1172  0.3576
  537loPI   C3A 8585  14.617   4.308   8.474 -0.0586 -0.0549 -0.2536
  537loPI   C4A 8586  14.565   4.445   8.071 -0.1018  0.0741 -0.0110
  537loPI   C5A 8587  14.820   4.521   7.752  0.1006 -0.1710  0.3600
  537loPI   C6A 8588  14.781   4.896   7.606  0.1688  0.2863 -0.2101
  537loPI   C1B 8589  14.892   4.535   9.189 -0.0480  0.0998  0.1489
  537loPI   C2B 8590  14.889   4.718   8.755 -0.0542 -0.1199 -0.0902
  537loPI   C3B 8591  15.168   4.679   8.372 -0.0544 -0.0944  0.3204
  537loPI   C4B 8592  15.107   4.939   7.999  0.0282  0.0939  0.1177
  538loPI    C1 8593   6.236   4.676  10.412 -0.0247 -0.2032  0.0922
  538loPI    C2 8594   6.282   5.065  10.327 -0.0867 -0.2121  0.0162
  538loPI    C3 8595   6.453   4.909  10.654 -0.1621 -0.0947  0.1125
  538loPI   PO4 8596   6.312   4.595  10.230  0.1805 -0.3600 -0.0373
  538loPI   GL1 8597   6.455   4.394   9.862  0.1593  0.2294 -0.1883
  538loPI   GL2 8598   6.071   4.277   9.927  0.0498  0.0122  0.0844
  538loPI   C1A 8599   6.371   4.458   9.538 -0.0758 -0.1537 -0.1950
  538loPI   C2A 8600   6.186   4.705   9.305  0.0221 -0.0385  0.1717
  538loPI   C3A 8601   6.131   4.794   8.907 -0.1271 -0.3121  0.0217
  538loPI   C4A 8602   6.206   5.098   8.464 -0.1313  0.0965 -0.0379
  538loPI   C5A 8603   6.181   4.979   8.052 -0.3605 -0.4611  0.2237
  538loPI   C6A 8604   6.574   4.919   7.856  0.2684  0.0120 -0.1659
  538loPI   C1B 8605   6.014   4.038   9.580 -0.1898 -0.3083  0.0198
  538loPI   C2B 8606   5.772   3.912   9.190  0.1881 -0.2501  0.0570
  538loPI   C3B 8607   5.638   3.961   8.716 -0.0551  0.1910  0.0504
  538loPI   C4B 8608   5.729   4.184   8.411  0.0993  0.0424 -0.2371
  539loPI    C1 8609   3.288  18.107  10.423  0.1477  0.0278 -0.1973
  539loPI    C2 8610   3.043  18.153  10.109  0.1834  0.1385 -0.2092
  539loPI    C3 8611   3.148  18.470  10.330  0.2554  0.0795 -0.1583
  539loPI   PO4 8612   3.429  17.930  10.295 -0.0375  0.0436  0.0559
  539loPI   GL1 8613   3.554  17.971   9.841 -0.0862 -0.0212 -0.1266
  539loPI   GL2 8614   3.456  18.237   9.773  0.1531 -0.1090 -0.0663
  539loPI   C1A 8615   3.640  18.008   9.418  0.3229  0.0693 -0.0495
  539loPI   C2A 8616   3.508  18.057   8.953 -0.2500  0.0907 -0.1878
  539loPI   C3A 8617   3.616  17.974   8.517 -0.0557 -0.1612  0.0300
  539loPI   C4A 8618   3.583  17.866   8.062  0.1175 -0.2506  0.0609
  539loPI   C5A 8619   3.453  17.500   7.890 -0.2465 -0.0686  0.2930
  539loPI   C6A 8620   3.302  17.114   8.059  0.3129  0.1438 -0.3344
  539loPI   C1B 8621   3.349  18.396   9.344  0.1716 -0.3771  0.0986
  539loPI   C2B 8622   3.328  18.590   8.937  0.0124 -0.2452 -0.0753
  539loPI   C3B 8623   3.164  18.518   8.578 -0.0462  0.2413  0.0218
  539loPI   C4B 8624   2.801  18.440   8.276 -0.0328 -0.1517 -0.0711
  540loPI    C1 8625  14.159  18.236  10.558  0.1406 -0.0676  0.0007
  540loPI    C2 8626  13.940  18.202  10.891  0.2084  0.1034  0.0641
  540loPI    C3 8627  13.818  18.443  10.595  0.0933 -0.1305 -0.0815
  540loPI   PO4 8628  14.199  18.099  10.454 -0.0502 -0.1964  0.1648
  540loPI   GL1 8629  14.112  17.954  10.024  0.0472  0.1211  0.2427
  540loPI   GL2 8630  13.849  18.156  10.124 -0.0702 -0.1200 -0.3052
  540loPI   C1A 8631  14.248  17.874   9.630 -0.1630  0.1066  0.2280
  540loPI   C2A 8632  14.320  17.719   9.267  0.2563 -0.1334 -0.0827
  540loPI   C3A 8633  14.397  17.701   8.923 -0.2480 -0.0979  0.2781
  540loPI   C4A 8634  14.472  17.682   8.499 -0.3065  0.0341 -0.2408
  540loPI   C5A 8635  14.129  17.685   8.186  0.2612  0.2606  0.1007
  540loPI   C6A 8636  13.796  17.619   7.877 -0.0778  0.0356 -0.3189
  540loPI   C1B 8637  13.710  17.968   9.752  0.0159  0.0560  0.0903
  540loPI   C2B 8638  13.837  17.863   9.405 -0.1604 -0.1102  0.1274
  540loPI   C3B 8639  13.865  17.858   9.012 -0.1535  0.0517  0.0937
  540loPI   C4B 8640  13.854  17.706   8.611  0.0209 -0.0665 -0.0553
  541loPI    C1 8641  11.234  14.294  11.041 -0.5243 -0.0060  0.1399
  541loPI    C2 8642  11.508  14.578  11.107 -0.1683 -0.2726 -0.1511
  541loPI    C3 8643  11.385  14.345  11.408 -0.2036 -0.0423  0.0157
  541loPI   PO4 8644  11.276  14.268  10.754 -0.0525  0.1724 -0.0983
  541loPI   GL1 8645  11.042  14.215  10.375  0.1758  0.0952  0.2841
  541loPI   GL2 8646  11.135  14.473  10.186  0.0637 -0.3675  0.0549
  541loPI   C1A 8647  10.943  13.990   9.970  0.1124  0.0422  0.3673
  541loPI   C2A 8648  10.762  13.894   9.571 -0.3372 -0.0287  0.0029
  541loPI   C3A 8649  10.643  13.855   9.106 -0.0973  0.3098  0.1864
  541loPI   C4A 8650  10.760  13.841   8.593  0.0305  0.2292 -0.0467
  541loPI   C5A 8651  10.859  13.843   8.152 -0.0383  0.0132  0.1996
  541loPI   C6A 8652  10.934  14.123   7.891 -0.2123 -0.1085  0.0403
  541loPI   C1B 8653  11.029  14.478   9.728  0.1083 -0.0514 -0.2135
  541loPI   C2B 8654  10.936  14.305   9.382 -0.2316  0.5835  0.1022
  541loPI   C3B 8655  11.031  14.239   8.901  0.2783 -0.3496 -0.1001
  541loPI   C4B 8656  10.984  14.236   8.418  0.1807  0.2729 -0.0732
  542loPI    C1 8657   8.438   9.661  10.722  0.0536  0.1282  0.1455
  542loPI    C2 8658   8.059   9.683  10.596  0.1080  0.1220 -0.0224
  542loPI    C3 8659   8.145   9.496  10.939 -0.0637  0.3010  0.1208
  542loPI   PO4 8660   8.478   9.963  10.560  0.1525 -0.0704  0.1803
  542loPI   GL1 8661   8.806   9.902  10.193  0.0724  0.1802  0.0972
  542loPI   GL2 8662   9.053   9.718  10.185 -0.0126  0.3804 -0.0496
  542loPI   C1A 8663   8.588  10.044   9.763  0.2599 -0.1552  0.2775
  542loPI   C2A 8664   8.558  10.080   9.360  0.0544  0.2460 -0.1953
  542loPI   C3A 8665   8.505  10.131   8.933  0.3376  0.0573  0.0352
  542loPI   C4A 8666   8.443  10.152   8.460 -0.0370 -0.2520 -0.0206
  542loPI   C5A 8667   8.132   9.942   8.182 -0.1114 -0.2652  0.1448
  542loPI   C6A 8668   7.974   9.598   7.936  0.2009 -0.1482 -0.1815
  542loPI   C1B 8669   9.198  10.007   9.900  0.0615 -0.1645  0.2369
  542loPI   C2B 8670   9.127  10.149   9.507 -0.3675 -0.0592 -0.0452
  542loPI   C3B 8671   8.998  10.118   9.134  0.1968 -0.0325  0.3281
  542loPI   C4B 8672   8.927  10.206   8.692 -0.0952  0.3940  0.1214
  543loPI    C1 8673   8.190  14.524  11.155  0.2057  0.1927  0.0763
  543loPI    C2 8674   7.872  14.634  10.938  0.1558 -0.1213 -0.0150
  543loPI    C3 8675   7.866  14.674  11.336 -0.0212 -0.1786 -0.0110
  543loPI   PO4 8676   8.411  14.651  11.054 -0.1507 -0.0918  0.0034
  543loPI   GL1 8677   8.402  14.605  10.588  0.1200 -0.0557  0.1571
  543loPI   GL2 8678   8.117  14.421  10.590  0.2974  0.1390  0.0163
  543loPI   C1A 8679   8.592  14.315  10.158  0.0276 -0.2751  0.0276
  543loPI   C2A 8680   8.509  14.214   9.711 -0.1343  0.1681  0.1875
  543loPI   C3A 8681   8.405  14.090   9.371  0.0985 -0.0895  0.1222
  543loPI   C4A 8682   8.463  14.075   8.894  0.1201 -0.0103  0.0709
  543loPI   C5A 8683   8.422  13.947   8.537  0.3536 -0.0819  0.1092
  543loPI   C6A 8684   7.909  13.910   8.470 -0.0471  0.1533  0.2450
  543loPI   C1B 8685   8.122  14.383  10.241 -0.2998 -0.1368 -0.1687
  543loPI   C2B 8686   8.039  14.202   9.850  0.0938  0.0760  0.2678
  543loPI   C3B 8687   7.935  13.999   9.415 -0.3156  0.1345 -0.1286
  543loPI   C4B 8688   7.945  14.018   9.003 -0.2025  0.0600  0.2346
  544loPI    C1 8689   8.905   3.458  10.188  0.1251  0.1258  0.2012
  544loPI    C2 8690   8.585   3.217  10.187  0.1013  0.1575  0.1410
  544loPI    C3 8691   8.899   3.132  10.419  0.0733  0.0943  0.1558
  544loPI   PO4 8692   9.000   3.433   9.909  0.0750 -0.1596  0.1766
  544loPI   GL1 8693   9.013   3.497   9.480  0.0286 -0.1040 -0.2208
  544loPI   GL2 8694   9.059   3.776   9.371 -0.0720 -0.0348  0.1521
  544loPI   C1A 8695   8.846   3.299   9.074 -0.3000 -0.2025 -0.0385
  544loPI   C2A 8696   8.672   2.830   8.906 -0.2245 -0.2802  0.2033
  544loPI   C3A 8697   8.504   2.546   8.630 -0.1561 -0.3256  0.2799
  544loPI   C4A 8698   8.512   2.597   8.145 -0.1772  0.0370 -0.1389
  544loPI   C5A 8699   8.385   2.677   7.681  0.1601  0.1190  0.0953
  544loPI   C6A 8700   8.537   2.889   7.328 -0.0061  0.4055  0.2342
  544loPI   C1B 8701   8.960   3.797   9.027  0.1770 -0.0128  0.0081
  544loPI   C2B 8702   8.852   3.898   8.589 -0.0544  0.0277 -0.5258
  544loPI   C3B 8703   8.944   4.106   8.147  0.1629  0.2229 -0.0873
  544loPI   C4B 8704   9.279   4.290   7.904  0.1196  0.0219 -0.2489
  545loPI    C1 8705  13.353   2.634  10.347  0.0357 -0.1013 -0.1434
  545loPI    C2 8706  13.257   2.646  10.735  0.1319 -0.0475 -0.1213
  545loPI    C3 8707  13.239   2.979  10.514  0.0846 -0.0765 -0.1612
  545loPI   PO4 8708  13.220   2.437  10.187 -0.1175  0.0439 -0.0256
  545loPI   GL1 8709  13.360   2.107   9.862  0.0377 -0.0980  0.1364
  545loPI   GL2 8710  13.077   1.895   9.892 -0.1747 -0.2544  0.0503
  545loPI   C1A 8711  13.630   2.031   9.400  0.1627  0.0461 -0.0004
  545loPI   C2A 8712  13.578   2.027   8.957 -0.0023  0.0350 -0.0302
  545loPI   C3A 8713  13.621   1.962   8.563  0.1069 -0.3295 -0.0234
  545loPI   C4A 8714  13.616   2.050   8.112  0.0309 -0.0007 -0.0218
  545loPI   C5A 8715  13.702   2.000   7.653 -0.1202  0.0111  0.1308
  545loPI   C6A 8716  13.680   1.671   7.319 -0.0512 -0.0400 -0.0035
  545loPI   C1B 8717  13.062   1.996   9.413 -0.0158  0.0497  0.1668
  545loPI   C2B 8718  13.070   1.970   8.946  0.0329  0.1344  0.0023
  545loPI   C3B 8719  13.105   1.982   8.519 -0.1626 -0.2253  0.0588
  545loPI   C4B 8720  12.985   2.099   8.081 -0.0757 -0.1289 -0.3720
  546loPI    C1 8721   6.439   7.695  10.679 -0.1661 -0.3370 -0.0882
  546loPI    C2 8722   6.224   7.701  11.017  0.3257 -0.2468  0.2349
  546loPI    C3 8723   6.565   7.492  11.001  0.3994 -0.1054 -0.1521
  546loPI   PO4 8724   6.324   7.680  10.305  0.3042 -0.2036 -0.0324
  546loPI   GL1 8725   6.551   7.670   9.953 -0.2605 -0.0179  0.0814
  546loPI   GL2 8726   6.703   7.568   9.725 -0.2398  0.1635  0.2049
  546loPI   C1A 8727   6.450   7.975   9.598  0.2896 -0.2445  0.0236
  546loPI   C2A 8728   6.382   8.288   9.340  0.1958  0.1727 -0.0483
  546loPI   C3A 8729   6.485   8.712   9.137 -0.5135 -0.4567 -0.1410
  546loPI   C4A 8730   6.624   8.917   8.772  0.2029 -0.1169  0.2579
  546loPI   C5A 8731   6.681   8.941   8.369  0.0764 -0.1902  0.1731
  546loPI   C6A 8732   6.534   8.934   7.964  0.1364 -0.0822  0.0207
  546loPI   C1B 8733   6.602   7.614   9.336 -0.2075  0.1811  0.0388
  546loPI   C2B 8734   6.458   7.821   9.048 -0.2085 -0.2585  0.1096
  546loPI   C3B 8735   6.587   8.130   8.804  0.2138  0.1223  0.0335
  546loPI   C4B 8736   6.408   8.488   8.593  0.0706  0.0711 -0.1476
  547loPI    C1 8737  16.887   5.002  10.375  0.0327 -0.0289  0.1883
  547loPI    C2 8738  16.930   4.611  10.445 -0.0906 -0.0884 -0.0576
  547loPI    C3 8739  16.657   4.821  10.648  0.2856 -0.0298  0.4045
  547loPI   PO4 8740  17.179   5.029  10.334  0.0650 -0.2126 -0.0522
  547loPI   GL1 8741  17.280   5.192  10.028  0.0164  0.1947  0.3422
  547loPI   GL2 8742  17.206   5.539   9.885 -0.0811 -0.1448  0.0253
  547loPI   C1A 8743  17.497   4.924   9.645  0.1614 -0.1529  0.1081
  547loPI   C2A 8744  17.524   4.975   9.179 -0.0385  0.1107 -0.2085
  547loPI   C3A 8745  17.535   4.951   8.702  0.0282  0.1102  0.0432
  547loPI   C4A 8746  17.414   4.923   8.371 -0.1571  0.0310  0.0381
  547loPI   C5A 8747  17.499   5.214   8.018 -0.0229  0.1270 -0.0876
  547loPI   C6A 8748  17.517   5.510   7.634  0.0924 -0.0667 -0.2184
  547loPI   C1B 8749  17.289   5.414   9.430 -0.0140  0.0306 -0.3219
  547loPI   C2B 8750  17.212   5.349   9.002  0.0645  0.0907 -0.1604
  547loPI   C3B 8751  17.161   5.389   8.587 -0.2076 -0.1024 -0.1705
  547loPI   C4B 8752  17.212   5.554   8.207  0.0558 -0.2349 -0.0505
  548loPI    C1 8753   1.780  10.430  11.541  0.1041  0.4087  0.0153
  548loPI    C2 8754   1.401  10.336  11.455  0.2604 -0.0336 -0.2231
  548loPI    C3 8755   1.525  10.339  11.835  0.0049  0.1800 -0.1383
  548loPI   PO4 8756   1.897  10.319  11.246  0.0389 -0.1554 -0.1222
  548loPI   GL1 8757   1.734  10.322  10.806  0.1012  0.0972 -0.1106
  548loPI   GL2 8758   1.521  10.149  10.657  0.0229  0.0088 -0.0651
  548loPI   C1A 8759   1.863  10.419  10.473 -0.1053  0.0449 -0.0093
  548loPI   C2A 8760   1.884  10.165  10.126 -0.2821  0.1179 -0.0928
  548loPI   C3A 8761   1.842  10.283   9.681  0.0271  0.2077 -0.0063
  548loPI   C4A 8762   1.792  10.220   9.238 -0.1034  0.0341 -0.2694
  548loPI   C5A 8763   1.789  10.282   8.829 -0.1380  0.2652  0.2134
  548loPI   C6A 8764   1.472  10.163   8.486  0.2034  0.0398  0.0799
  548loPI   C1B 8765   1.413  10.250  10.267  0.0891  0.3823 -0.1618
  548loPI   C2B 8766   1.372  10.227   9.762 -0.1325  0.0487  0.0428
  548loPI   C3B 8767   1.323  10.156   9.322 -0.0451  0.0956  0.0237
  548loPI   C4B 8768   1.317  10.103   8.955 -0.1788  0.1808 -0.1800
  549loPI    C1 8769   8.837   5.712  10.372 -0.0794 -0.0159  0.2238
  549loPI    C2 8770   8.813   5.323  10.281 -0.0082 -0.0363  0.2916
  549loPI    C3 8771   8.627   5.464  10.606  0.0272 -0.0275  0.3081
  549loPI   PO4 8772   8.844   5.757  10.037 -0.1990 -0.1769 -0.0654
  549loPI   GL1 8773   9.045   5.863   9.654 -0.1282 -0.0170  0.2660
  549loPI   GL2 8774   8.720   5.799   9.482 -0.1191  0.1587  0.2461
  549loPI   C1A 8775   9.265   5.749   9.237 -0.0419 -0.1993 -0.1954
  549loPI   C2A 8776   9.457   5.562   8.892 -0.2826  0.0752 -0.3295
  549loPI   C3A 8777   9.453   5.385   8.641 -0.2117  0.1479  0.0261
  549loPI   C4A 8778   9.465   5.354   8.249 -0.2651 -0.1387 -0.0702
  549loPI   C5A 8779   9.474   5.362   7.656 -0.0346  0.0869 -0.3377
  549loPI   C6A 8780   9.564   5.378   7.231  0.0114 -0.2331 -0.1117
  549loPI   C1B 8781   8.788   5.693   9.015 -0.3258  0.0174 -0.1504
  549loPI   C2B 8782   9.024   5.666   8.664  0.1776  0.1013  0.1083
  549loPI   C3B 8783   9.258   5.936   8.431 -0.0152  0.0173  0.2571
  549loPI   C4B 8784   9.215   6.222   8.009 -0.2602  0.1711 -0.0571
  550loPI    C1 8785  15.629   4.856  10.319  0.0562 -0.1651 -0.0317
  550loPI    C2 8786  15.297   4.985  10.500  0.0302  0.0188 -0.2064
  550loPI    C3 8787  15.578   4.794  10.711 -0.1403 -0.0500 -0.0376
  550loPI   PO4 8788  15.649   5.017  10.127  0.1488 -0.2084 -0.1931
  550loPI   GL1 8789  15.652   4.873   9.705  0.1648  0.2394  0.0703
  550loPI   GL2 8790  15.313   4.948   9.625 -0.0057 -0.1608  0.0929
  550loPI   C1A 8791  15.672   5.126   9.313  0.1557  0.0316 -0.1853
  550loPI   C2A 8792  15.595   5.284   8.927  0.1469  0.0863 -0.2348
  550loPI   C3A 8793  15.666   5.156   8.519  0.1357 -0.2769 -0.0594
  550loPI   C4A 8794  15.592   4.835   8.149 -0.0319 -0.0327  0.1349
  550loPI   C5A 8795  15.571   4.452   7.879 -0.0155  0.1072 -0.2190
  550loPI   C6A 8796  15.242   4.227   7.795  0.1244  0.1090 -0.1999
  550loPI   C1B 8797  15.426   4.700   9.281  0.1083 -0.0581  0.1261
  550loPI   C2B 8798  15.456   4.783   8.793  0.0869  0.5166 -0.0803
  550loPI   C3B 8799  15.637   4.489   8.512 -0.0067  0.0979  0.0121
  550loPI   C4B 8800  16.020   4.299   8.365  0.1727 -0.0878 -0.5673
  551loPI    C1 8801   2.331   5.631  10.654 -0.0054 -0.1143 -0.0159
  551loPI    C2 8802   1.963   5.502  10.568 -0.1073 -0.1467  0.4429
  551loPI    C3 8803   2.068   5.566  10.948  0.2525  0.1966  0.2925
  551loPI   PO4 8804   2.500   5.677  10.406 -0.1466 -0.1278  0.0485
  551loPI   GL1 8805   2.532   5.517   9.924  0.0370 -0.0718 -0.1246
  551loPI   GL2 8806   2.832   5.668   9.950 -0.0796 -0.2030  0.0714
  551loPI   C1A 8807   2.771   5.611   9.450  0.1126 -0.1287 -0.0370
  551loPI   C2A 8808   2.893   5.875   9.102 -0.1023 -0.0643 -0.1812
  551loPI   C3A 8809   2.843   5.906   8.737 -0.1162 -0.6048 -0.2140
  551loPI   C4A 8810   2.809   6.087   8.324  0.2126 -0.0402  0.1165
  551loPI   C5A 8811   2.533   6.247   8.029  0.0180 -0.2317 -0.2563
  551loPI   C6A 8812   2.195   6.258   7.620  0.2116  0.0194 -0.1035
  551loPI   C1B 8813   2.711   5.997   9.802 -0.2562  0.0561  0.1161
  551loPI   C2B 8814   2.644   6.270   9.444 -0.3820  0.0836 -0.1078
  551loPI   C3B 8815   2.501   6.355   9.045 -0.1367  0.0115  0.0510
  551loPI   C4B 8816   2.461   6.298   8.652  0.1171 -0.2007 -0.0103
  552loPI    C1 8817  14.492   0.923  10.783  0.0066 -0.0327 -0.0495
  552loPI    C2 8818  14.800   1.134  10.640  0.0497 -0.0433  0.0268
  552loPI    C3 8819  14.678   1.189  11.017 -0.1288  0.0587 -0.0443
  552loPI   PO4 8820  14.419   0.883  10.465  0.0151 -0.2150  0.0409
  552loPI   GL1 8821  14.423   0.734  10.018  0.0864 -0.0526  0.3411
  552loPI   GL2 8822  14.378   1.100   9.788  0.3013  0.3386 -0.1590
  552loPI   C1A 8823  14.640   0.599   9.730  0.2328  0.0212 -0.1789
  552loPI   C2A 8824  14.733   0.509   9.263 -0.3380  0.2564  0.1205
  552loPI   C3A 8825  14.726   0.534   8.851  0.0305 -0.1695 -0.2149
  552loPI   C4A 8826  14.720   0.499   8.515  0.0792 -0.0745 -0.0839
  552loPI   C5A 8827  14.722   0.487   8.090  0.0542  0.2406 -0.4179
  552loPI   C6A 8828  14.358   0.482   7.793 -0.2588 -0.2155  0.1909
  552loPI   C1B 8829  14.547   0.988   9.370  0.1634  0.2515  0.0065
  552loPI   C2B 8830  14.527   0.973   8.868  0.1172 -0.0345 -0.1705
  552loPI   C3B 8831  14.431   1.084   8.449 -0.1518 -0.2046  0.0619
  552loPI   C4B 8832  14.525   0.937   8.122 -0.0051  0.0828  0.0721
  553loPI    C1 8833  15.990  11.723  10.457 -0.0317 -0.4656 -0.0436
  553loPI    C2 8834  16.140  11.551  10.786  0.0558  0.1199  0.2371
  553loPI    C3 8835  16.377  11.770  10.549 -0.1178  0.1188  0.0596
  553loPI   PO4 8836  15.844  11.432  10.364 -0.3970 -0.2891  0.2512
  553loPI   GL1 8837  15.658  11.470   9.859  0.2550 -0.1050 -0.0375
  553loPI   GL2 8838  15.496  11.208   9.997  0.1046 -0.2113  0.2674
  553loPI   C1A 8839  15.555  11.508   9.449 -0.2648  0.2334 -0.1599
  553loPI   C2A 8840  15.563  11.540   9.034  0.1432  0.0255  0.0977
  553loPI   C3A 8841  15.530  11.649   8.647 -0.1077  0.1769 -0.0544
  553loPI   C4A 8842  15.767  11.553   8.320  0.2265 -0.0137  0.0900
  553loPI   C5A 8843  15.887  11.227   8.099  0.0510 -0.0702 -0.0749
  553loPI   C6A 8844  15.978  11.010   7.848 -0.1831 -0.1396 -0.2032
  553loPI   C1B 8845  15.371  11.058   9.567  0.0168 -0.0926  0.2220
  553loPI   C2B 8846  15.275  11.043   9.071 -0.1070 -0.3092  0.1466
  553loPI   C3B 8847  15.281  11.141   8.598  0.1329  0.0655 -0.2776
  553loPI   C4B 8848  15.479  11.022   8.176 -0.1510  0.2323 -0.2038
  554loPI    C1 8849  12.515  12.620  10.924  0.0268 -0.2154 -0.0298
  554loPI    C2 8850  12.267  12.460  11.194 -0.1868  0.2210  0.0401
  554loPI    C3 8851  12.583  12.674  11.314  0.2078 -0.2924 -0.0497
  554loPI   PO4 8852  12.299  12.586  10.664 -0.0218  0.1092  0.3392
  554loPI   GL1 8853  12.124  12.418  10.311 -0.0109  0.1653  0.1954
  554loPI   GL2 8854  11.972  12.152  10.198 -0.1633  0.0043 -0.2011
  554loPI   C1A 8855  12.184  12.612   9.845  0.1336 -0.0706 -0.1818
  554loPI   C2A 8856  12.189  12.684   9.485  0.1386 -0.2771 -0.3112
  554loPI   C3A 8857  12.172  12.611   9.044  0.0020  0.1748 -0.2207
  554loPI   C4A 8858  12.171  12.620   8.607  0.2514  0.2680 -0.1472
  554loPI   C5A 8859  12.191  12.715   8.127 -0.4094  0.1648  0.4922
  554loPI   C6A 8860  11.865  12.599   7.729 -0.0243 -0.0256 -0.1915
  554loPI   C1B 8861  12.022  12.162   9.783 -0.1233 -0.0557 -0.0194
  554loPI   C2B 8862  12.011  12.213   9.400 -0.1824  0.0794  0.2211
  554loPI   C3B 8863  11.927  12.130   8.944 -0.1182  0.3173  0.1293
  554loPI   C4B 8864  11.934  12.182   8.477 -0.0926  0.2223  0.1301
  555loPI    C1 8865  18.080   8.181  10.903  0.0852  0.0745 -0.2340
  555loPI    C2 8866  18.032   8.483  11.160 -0.2351  0.1262 -0.3506
  555loPI    C3 8867  18.373   8.274  11.159 -0.2312  0.1204  0.1187
  555loPI   PO4 8868  18.028   8.258  10.610 -0.2487  0.1055 -0.2276
  555loPI   GL1 8869  17.858   8.240  10.218 -0.2970 -0.0008 -0.0177
  555loPI   GL2 8870  17.553   8.306  10.075 -0.2871  0.1522  0.1558
  555loPI   C1A 8871  18.053   8.128   9.903  0.0644  0.1629  0.2100
  555loPI   C2A 8872  18.012   8.165   9.465  0.1035 -0.0550 -0.0003
  555loPI   C3A 8873  17.949   8.085   8.952 -0.0374  0.0422  0.2465
  555loPI   C4A 8874  18.091   8.209   8.545  0.2577 -0.0288 -0.3093
  555loPI   C5A 8875  17.972   8.213   8.245 -0.0687 -0.0108 -0.1474
  555loPI   C6A 8876  17.626   8.329   7.982  0.0924  0.0707 -0.1198
  555loPI   C1B 8877  17.488   8.111   9.648 -0.1037  0.1894 -0.0569
  555loPI   C2B 8878  17.458   8.090   9.266  0.0722  0.1318 -0.3869
  555loPI   C3B 8879  17.485   8.051   8.912  0.0571  0.2914  0.0059
  555loPI   C4B 8880  17.530   8.142   8.453  0.1449  0.2050 -0.1294
  556loPI    C1 8881   1.905   0.065  10.514 -0.0416  0.1821  0.1926
  556loPI    C2 8882   2.015   0.394  10.714 -0.0796  0.1592  0.2515
  556loPI    C3 8883   1.909   0.064  10.914  0.2721  0.0053  0.1915
  556loPI   PO4 8884   1.806   0.226  10.194 -0.2228  0.3154  0.0746
  556loPI   GL1 8885   1.915   0.137   9.824 -0.0569 -0.0528 -0.2007
  556loPI   GL2 8886   1.514   0.128   9.778 -0.0789 -0.0714 -0.3636
  556loPI   C1A 8887   1.962   0.029   9.401 -0.2282 -0.2242 -0.0035
  556loPI   C2A 8888   2.335   0.008   9.165  0.1125 -0.1137  0.1500
  556loPI   C3A 8889   2.408  -0.330   8.841 -0.2207 -0.1319  0.0124
  556loPI   C4A 8890   2.567  -0.498   8.482  0.0278 -0.1299 -0.2179
  556loPI   C5A 8891   2.654  -0.593   8.055 -0.0878 -0.1377  0.5168
  556loPI   C6A 8892   2.718  -0.454   7.665  0.1391  0.1171 -0.0021
  556loPI   C1B 8893   1.402   0.078   9.336  0.5931  0.4697 -0.5173
  556loPI   C2B 8894   1.171   0.054   8.980  0.4088 -0.0767 -0.0402
  556loPI   C3B 8895   1.210   0.068   8.578 -0.5258  0.2919  0.1850
  556loPI   C4B 8896   1.579  -0.005   8.401  0.1920 -0.0761  0.2159
  557loPI    C1 8897   5.712   9.595  10.438  0.1052  0.4171  0.0125
  557loPI    C2 8898   5.933   9.479  10.751  0.0716  0.0255 -0.1034
  557loPI    C3 8899   5.628   9.734  10.804 -0.0517 -0.1813  0.2144
  557loPI   PO4 8900   5.897   9.617  10.262  0.0555  0.0449  0.0770
  557loPI   GL1 8901   5.939   9.725   9.912  0.2735 -0.0942  0.1222
  557loPI   GL2 8902   6.186   9.438   9.790  0.2761  0.0460 -0.0670
  557loPI   C1A 8903   5.574   9.674   9.639 -0.1810 -0.1464  0.1061
  557loPI   C2A 8904   5.445   9.738   9.178 -0.1053 -0.1796  0.0958
  557loPI   C3A 8905   5.487   9.728   8.683 -0.0641  0.0092 -0.2041
  557loPI   C4A 8906   5.396   9.815   8.309  0.0488 -0.1492  0.1314
  557loPI   C5A 8907   5.233   9.530   7.939  0.1967  0.2071  0.3224
  557loPI   C6A 8908   4.851   9.372   7.616  0.0199 -0.1718 -0.2110
  557loPI   C1B 8909   6.011   9.610   9.428 -0.3289  0.1800 -0.3482
  557loPI   C2B 8910   6.044   9.764   9.031  0.0407 -0.1498  0.0648
  557loPI   C3B 8911   6.041   9.823   8.575  0.3887  0.0326  0.0662
  557loPI   C4B 8912   6.203   9.813   8.113 -0.0360 -0.2123  0.1672
  558loPI    C1 8913   6.300  10.095  10.724 -0.1495  0.1028  0.1619
  558loPI    C2 8914   6.607  10.045  10.473 -0.1377  0.3136  0.1326
  558loPI    C3 8915   6.671  10.055  10.868 -0.1256  0.2206  0.1333
  558loPI   PO4 8916   6.133   9.954  10.582  0.4063  0.2248  0.2427
  558loPI   GL1 8917   5.835  10.104  10.240 -0.1695  0.0661 -0.1225
  558loPI   GL2 8918   6.135  10.312  10.185  0.1040  0.5540 -0.0057
  558loPI   C1A 8919   5.696  10.226   9.808 -0.0712 -0.0208 -0.1674
  558loPI   C2A 8920   5.740  10.067   9.398 -0.0346 -0.0601  0.0787
  558loPI   C3A 8921   5.670  10.135   8.942  0.0099  0.0719 -0.0324
  558loPI   C4A 8922   5.659  10.194   8.525  0.0854  0.2436 -0.1690
  558loPI   C5A 8923   5.567  10.232   8.064  0.3526  0.0494  0.2636
  558loPI   C6A 8924   5.393  10.077   7.730  0.1967 -0.1918 -0.2789
  558loPI   C1B 8925   6.218  10.261   9.703  0.1055 -0.0402  0.1421
  558loPI   C2B 8926   6.211  10.207   9.220 -0.0826 -0.7105 -0.0740
  558loPI   C3B 8927   6.174  10.306   8.805  0.0507  0.0920  0.2087
  558loPI   C4B 8928   6.181  10.237   8.297 -0.0146  0.0875 -0.1038
  559loPI    C1 8929   9.552  11.438  10.742 -0.3183  0.0257  0.1003
  559loPI    C2 8930   9.898  11.487  10.936 -0.1412  0.0567 -0.2160
  559loPI    C3 8931   9.573  11.364  11.134  0.0361  0.0778  0.0943
  559loPI   PO4 8932   9.578  11.634  10.592  0.3271 -0.0186  0.0293
  559loPI   GL1 8933   9.607  11.634  10.141  0.2317  0.0257  0.5191
  559loPI   GL2 8934   9.329  11.854  10.145 -0.0727 -0.0408 -0.0136
  559loPI   C1A 8935   9.768  11.553   9.777  0.3175 -0.1987  0.1492
  559loPI   C2A 8936   9.739  11.475   9.433  0.0507 -0.0305 -0.4314
  559loPI   C3A 8937   9.605  11.537   8.997  0.2892 -0.1816 -0.1893
  559loPI   C4A 8938   9.613  11.584   8.592 -0.3366  0.1515 -0.1265
  559loPI   C5A 8939   9.337  11.466   8.144 -0.3156 -0.0590  0.1158
  559loPI   C6A 8940   9.346  11.152   7.812  0.0488 -0.0844 -0.2609
  559loPI   C1B 8941   9.326  11.986   9.711 -0.1521  0.1344  0.0162
  559loPI   C2B 8942   9.383  11.922   9.260 -0.3271  0.0594 -0.0009
  559loPI   C3B 8943   9.324  11.941   8.846  0.1715  0.0035 -0.0024
  559loPI   C4B 8944   9.342  11.947   8.404  0.2164 -0.3232 -0.0593
  560loPI    C1 8945  16.306  14.704  10.632 -0.0152  0.2080  0.0702
  560loPI    C2 8946  16.365  14.319  10.540 -0.0766  0.2556 -0.1750
  560loPI    C3 8947  16.451  14.452  10.907 -0.2020 -0.0251 -0.0407
  560loPI   PO4 8948  16.469  14.819  10.420 -0.2995  0.2917  0.0288
  560loPI   GL1 8949  16.542  14.781  10.065  0.5204  0.3389  0.1868
  560loPI   GL2 8950  16.592  14.407  10.069 -0.2540  0.0058 -0.0755
  560loPI   C1A 8951  16.508  14.760   9.657 -0.0075 -0.1821 -0.0105
  560loPI   C2A 8952  16.672  14.657   9.219 -0.1775  0.1655 -0.1155
  560loPI   C3A 8953  16.602  14.285   8.846 -0.2479  0.2263 -0.2197
  560loPI   C4A 8954  16.420  14.056   8.510  0.4651 -0.1192  0.0984
  560loPI   C5A 8955  16.295  14.119   8.188  0.0473 -0.0568 -0.0884
  560loPI   C6A 8956  16.261  13.983   7.734  0.0018 -0.4624 -0.0490
  560loPI   C1B 8957  16.208  14.335   9.885  0.0437  0.2553 -0.1667
  560loPI   C2B 8958  15.969  14.129   9.596 -0.0975  0.1847  0.2332
  560loPI   C3B 8959  15.456  14.134   9.586 -0.0285  0.3149  0.1236
  560loPI   C4B 8960  14.968  14.193   9.464 -0.1340 -0.1168  0.1512
  561loPI    C1 8961   8.059  15.870  10.951 -0.0138 -0.0523  0.0776
  561loPI    C2 8962   8.210  16.156  11.185 -0.1243  0.1856 -0.1368
  561loPI    C3 8963   7.817  16.144  11.114 -0.1146  0.0050 -0.1637
  561loPI   PO4 8964   8.288  15.788  10.732  0.1683  0.2209 -0.0721
  561loPI   GL1 8965   8.363  15.667  10.238  0.0836 -0.0093  0.1984
  561loPI   GL2 8966   8.034  15.618  10.110  0.0115 -0.1662  0.0428
  561loPI   C1A 8967   8.328  15.319   9.874  0.3290 -0.0211 -0.1738
  561loPI   C2A 8968   8.407  15.051   9.532  0.1158  0.0047  0.2171
  561loPI   C3A 8969   8.442  14.974   9.114 -0.4178  0.2155  0.0886
  561loPI   C4A 8970   8.464  14.950   8.524 -0.0422  0.0291 -0.3379
  561loPI   C5A 8971   8.479  14.670   8.281  0.5642  0.1065  0.0218
  561loPI   C6A 8972   8.707  14.217   8.230 -0.1077  0.3332  0.0501
  561loPI   C1B 8973   7.897  15.534   9.704  0.2420  0.0898  0.0318
  561loPI   C2B 8974   8.086  15.374   9.257  0.2230  0.0714 -0.0753
  561loPI   C3B 8975   8.209  15.370   8.813 -0.0230  0.0099  0.1012
  561loPI   C4B 8976   8.339  15.606   8.371 -0.0571 -0.2696  0.0073
  562loPI    C1 8977  12.796  13.447  10.757 -0.1486  0.2540  0.1424
  562loPI    C2 8978  12.918  13.193  11.040 -0.0915  0.0280 -0.0814
  562loPI    C3 8979  12.561  13.143  10.867 -0.1083  0.1401 -0.0800
  562loPI   PO4 8980  13.051  13.478  10.598 -0.0177  0.0154  0.0796
  562loPI   GL1 8981  13.168  13.251  10.180  0.1492  0.1383 -0.2868
  562loPI   GL2 8982  13.479  13.284  10.086 -0.4103  0.2013 -0.0732
  562loPI   C1A 8983  12.891  13.135   9.911  0.1432  0.0059 -0.0253
  562loPI   C2A 8984  12.919  13.132   9.464 -0.0274 -0.1197  0.0531
  562loPI   C3A 8985  12.966  13.176   9.006  0.0316  0.1385  0.0624
  562loPI   C4A 8986  12.909  13.057   8.602  0.1921  0.0405  0.1844
  562loPI   C5A 8987  12.815  13.050   8.208  0.3177 -0.1169  0.3549
  562loPI   C6A 8988  12.688  12.879   7.816  0.2999  0.0993 -0.1011
  562loPI   C1B 8989  13.353  13.203   9.643  0.1345  0.6029 -0.1695
  562loPI   C2B 8990  13.459  13.087   9.213  0.3454 -0.2508 -0.1564
  562loPI   C3B 8991  13.419  13.234   8.724 -0.0224  0.1406  0.1222
  562loPI   C4B 8992  13.412  13.278   8.209  0.1460 -0.1906  0.1960
  563loPI    C1 8993  18.345  10.772  11.092  0.0346  0.3087 -0.1286
  563loPI    C2 8994  18.668  10.992  11.175  0.2470 -0.0184 -0.0711
  563loPI    C3 8995  18.640  10.617  11.313 -0.1240 -0.0202 -0.1405
  563loPI   PO4 8996  18.316  10.743  10.799  0.1719 -0.0848 -0.0795
  563loPI   GL1 8997  18.186  10.434  10.492 -0.2630 -0.3254  0.2983
  563loPI   GL2 8998  18.459  10.423  10.433 -0.0158  0.4924  0.1449
  563loPI   C1A 8999  18.080  10.278  10.062 -0.2303  0.1104 -0.0228
  563loPI   C2A 9000  18.088  10.315   9.598 -0.1395  0.0118 -0.0197
  563loPI   C3A 9001  18.068  10.375   9.129  0.2557  0.2327 -0.3304
  563loPI   C4A 9002  18.030  10.340   8.660  0.0744  0.1864 -0.0309
  563loPI   C5A 9003  18.263  10.519   8.254 -0.2974 -0.2376  0.1016
  563loPI   C6A 9004  18.354  10.956   7.990  0.1551  0.1675 -0.1612
  563loPI   C1B 9005  18.574  10.486  10.008 -0.0061  0.2128  0.1542
  563loPI   C2B 9006  18.571  10.472   9.513  0.1154 -0.1031  0.2720
  563loPI   C3B 9007  18.535  10.424   9.183 -0.1253  0.0457 -0.0254
  563loPI   C4B 9008  18.515  10.476   8.736 -0.0591 -0.0977  0.4232
  564loPI    C1 9009   8.378   1.331  10.107  0.1046 -0.0711 -0.0149
  564loPI    C2 9010   8.385   1.151  10.463 -0.0246  0.1787  0.1165
  564loPI    C3 9011   8.664   1.422  10.371 -0.0425  0.1785  0.0616
  564loPI   PO4 9012   8.127   1.312  10.060  0.2611 -0.2271  0.2883
  564loPI   GL1 9013   7.783   1.032   9.850 -0.0692  0.3010  0.0069
  564loPI   GL2 9014   8.072   0.868   9.800 -0.0456  0.2541 -0.0459
  564loPI   C1A 9015   7.663   0.808   9.523  0.0211 -0.1259 -0.1004
  564loPI   C2A 9016   7.690   0.520   9.190 -0.0580 -0.1012  0.0950
  564loPI   C3A 9017   7.464   0.145   8.954  0.2440 -0.2235 -0.0264
  564loPI   C4A 9018   7.500  -0.036   8.497 -0.0520  0.0245  0.0306
  564loPI   C5A 9019   7.663  -0.272   8.165  0.0063 -0.1640  0.2105
  564loPI   C6A 9020   8.021  -0.116   7.892 -0.0877  0.0513 -0.0153
  564loPI   C1B 9021   8.134   0.877   9.272  0.1130 -0.1255 -0.1560
  564loPI   C2B 9022   8.002   0.704   8.872  0.0007 -0.1632 -0.2387
  564loPI   C3B 9023   7.821   0.377   8.605  0.0167  0.0023 -0.1783
  564loPI   C4B 9024   7.903   0.186   8.243  0.1167  0.2222 -0.2135
  565loPI    C1 9025  16.737  18.424  10.681 -0.0429 -0.3673 -0.0421
  565loPI    C2 9026  17.040  18.281  10.462  0.0789 -0.0403 -0.0938
  565loPI    C3 9027  17.051  18.252  10.861  0.1345 -0.1115 -0.1002
  565loPI   PO4 9028  16.525  18.404  10.425  0.0537 -0.1715  0.1711
  565loPI   GL1 9029  16.440  18.719  10.151 -0.1556  0.2501  0.3218
  565loPI   GL2 9030  16.823  18.686  10.195 -0.1580 -0.3654  0.0881
  565loPI   C1A 9031  16.511  18.563   9.803  0.0731  0.2859  0.1905
  565loPI   C2A 9032  16.455  18.466   9.425  0.0254 -0.0929 -0.1066
  565loPI   C3A 9033  16.486  18.478   8.983 -0.1898 -0.0618 -0.0636
  565loPI   C4A 9034  16.398  18.381   8.500 -0.2182 -0.1625  0.0273
  565loPI   C5A 9035  16.603  18.378   8.162 -0.0234  0.1123  0.0477
  565loPI   C6A 9036  16.997  18.264   8.076 -0.2026  0.0504 -0.2543
  565loPI   C1B 9037  17.046  18.473   9.865 -0.1068 -0.0535  0.2866
  565loPI   C2B 9038  17.002  18.472   9.472 -0.4160  0.1554 -0.0351
  565loPI   C3B 9039  16.988  18.427   9.042  0.0969 -0.1136 -0.2068
  565loPI   C4B 9040  16.904  18.301   8.567  0.1115 -0.1790  0.1280
  566loPI    C1 9041  17.049   1.753  10.687  0.1276  0.1666 -0.0696
  566loPI    C2 9042  16.777   1.977  10.875 -0.0981 -0.0019 -0.1915
  566loPI    C3 9043  16.890   1.626  11.031 -0.1103 -0.0315 -0.2489
  566loPI   PO4 9044  16.980   1.783  10.413  0.3100  0.0348  0.1373
  566loPI   GL1 9045  17.028   1.861   9.992  0.2456 -0.0164 -0.0936
  566loPI   GL2 9046  16.833   1.638   9.886 -0.2494 -0.1214  0.0319
  566loPI   C1A 9047  16.896   2.099   9.566 -0.2650  0.0008  0.2355
  566loPI   C2A 9048  16.939   2.123   9.166 -0.1952 -0.1120 -0.2424
  566loPI   C3A 9049  17.000   2.075   8.697 -0.1565 -0.1759  0.0009
  566loPI   C4A 9050  16.873   2.138   8.334  0.1799  0.2608  0.3168
  566loPI   C5A 9051  16.661   2.151   8.033  0.1407 -0.3147  0.0124
  566loPI   C6A 9052  16.321   2.601   7.955  0.0570  0.0768  0.0648
  566loPI   C1B 9053  17.130   1.695   9.475 -0.1757 -0.1109 -0.0471
  566loPI   C2B 9054  17.161   1.729   9.060 -0.0443  0.1076  0.0405
  566loPI   C3B 9055  17.121   1.565   8.695 -0.0056 -0.1576  0.1263
  566loPI   C4B 9056  17.103   1.607   8.303 -0.1721  0.4573  0.1013
  567loPI    C1 9057  12.769  15.296  10.452  0.0240  0.1619  0.0561
  567loPI    C2 9058  13.152  15.383  10.524  0.0607  0.0299  0.0220
  567loPI    C3 9059  12.922  15.239  10.817  0.0384  0.1038  0.0410
  567loPI   PO4 9060  12.758  15.278  10.255  0.0346 -0.0600  0.1765
  567loPI   GL1 9061  12.419  15.187   9.943  0.1643  0.1715  0.1114
  567loPI   GL2 9062  12.353  14.764  10.002  0.1752  0.2091  0.1020
  567loPI   C1A 9063  12.293  14.991   9.587  0.0495  0.1567 -0.0778
  567loPI   C2A 9064  12.267  14.815   9.166 -0.1815 -0.2712  0.0455
  567loPI   C3A 9065  12.190  14.769   8.615 -0.1771 -0.0816  0.0343
  567loPI   C4A 9066  12.211  14.846   8.164  0.0114  0.1466  0.1454
  567loPI   C5A 9067  12.155  15.207   7.859 -0.1209 -0.0450  0.0190
  567loPI   C6A 9068  12.113  15.600   7.558 -0.1852  0.2894  0.2840
  567loPI   C1B 9069  12.095  14.534   9.667  0.2202 -0.2507 -0.1068
  567loPI   C2B 9070  11.886  14.387   9.282  0.3342 -0.1154  0.1584
  567loPI   C3B 9071  11.957  14.347   8.795 -0.0176 -0.1683  0.5283
  567loPI   C4B 9072  12.055  14.381   8.397 -0.1909 -0.0571  0.2419
  568loPI    C1 9073  14.842   2.686  10.471  0.2310  0.3968  0.0652
  568loPI    C2 9074  14.717   2.483  10.792  0.0573  0.0796 -0.1972
  568loPI    C3 9075  14.992   2.770  10.833  0.3008 -0.1969  0.1862
  568loPI   PO4 9076  14.676   2.728  10.367  0.3830 -0.1453  0.1624
  568loPI   GL1 9077  14.560   2.612  10.004 -0.0238 -0.0284 -0.0006
  568loPI   GL2 9078  14.240   2.478   9.816 -0.0565  0.1033  0.3833
  568loPI   C1A 9079  14.796   2.777   9.644 -0.0833 -0.1346 -0.2262
  568loPI   C2A 9080  14.695   2.870   9.214 -0.4083  0.0600  0.2209
  568loPI   C3A 9081  14.736   2.849   8.799  0.1760 -0.0017  0.2479
  568loPI   C4A 9082  14.908   2.877   8.348  0.2083  0.0690 -0.1121
  568loPI   C5A 9083  15.001   2.841   7.895 -0.3600 -0.3344  0.0530
  568loPI   C6A 9084  14.835   3.055   7.444  0.0165  0.1928  0.1628
  568loPI   C1B 9085  13.962   2.465   9.516 -0.1699 -0.1860  0.0056
  568loPI   C2B 9086  13.951   2.492   9.090  0.0133 -0.2132 -0.0256
  568loPI   C3B 9087  13.898   2.471   8.709  0.1551 -0.2137  0.1443
  568loPI   C4B 9088  13.797   2.460   8.294  0.0034  0.1352 -0.0921
  569loPI    C1 9089   7.028  10.490  10.809 -0.0183  0.1219 -0.0280
  569loPI    C2 9090   7.134  10.210  11.074  0.2906  0.2035 -0.0626
  569loPI    C3 9091   6.844  10.470  11.164  0.1534  0.0116  0.0562
  569loPI   PO4 9092   6.976  10.330  10.574  0.1099 -0.2230  0.1193
  569loPI   GL1 9093   6.906  10.229  10.178 -0.3557  0.1494  0.3052
  569loPI   GL2 9094   7.123   9.941  10.276  0.1051  0.0170  0.3148
  569loPI   C1A 9095   6.713  10.135   9.797  0.2270  0.3040 -0.1579
  569loPI   C2A 9096   6.684  10.164   9.412  0.1294 -0.0554 -0.0050
  569loPI   C3A 9097   6.694  10.455   9.001 -0.0817 -0.0735 -0.0403
  569loPI   C4A 9098   6.636  10.385   8.535  0.1474 -0.3819  0.1116
  569loPI   C5A 9099   6.898  10.372   8.234  0.0791 -0.5670  0.0268
  569loPI   C6A 9100   7.227  10.285   8.018 -0.2687  0.2052 -0.0701
  569loPI   C1B 9101   7.322   9.950   9.776 -0.0180  0.2076  0.0920
  569loPI   C2B 9102   7.491   9.978   9.399 -0.2931 -0.1456  0.2133
  569loPI   C3B 9103   7.531  10.098   8.973 -0.0972 -0.1440 -0.2470
  569loPI   C4B 9104   7.641  10.452   8.819  0.1019 -0.0762  0.1922
  570loPI    C1 9105  10.591   9.684  10.225 -0.2699  0.2025 -0.0495
  570loPI    C2 9106  10.311   9.417  10.124 -0.1996  0.1631 -0.1418
  570loPI    C3 9107  10.368   9.512  10.509 -0.0024 -0.2018 -0.0763
  570loPI   PO4 9108  10.571   9.860   9.985 -0.3933 -0.0206 -0.2173
  570loPI   GL1 9109  10.382   9.828   9.615  0.2151  0.2071  0.3031
  570loPI   GL2 9110  10.037   9.874   9.604  0.0007 -0.2556 -0.4111
  570loPI   C1A 9111  10.377   9.832   9.203 -0.4004 -0.2273 -0.2115
  570loPI   C2A 9112  10.228   9.786   8.777  0.0212  0.1796  0.1656
  570loPI   C3A 9113  10.269   9.895   8.392 -0.1792  0.0139 -0.0029
  570loPI   C4A 9114  10.169   9.805   7.939 -0.0713  0.3121 -0.1989
  570loPI   C5A 9115  10.104  10.052   7.668 -0.0605  0.1899  0.1825
  570loPI   C6A 9116  10.051  10.446   7.507 -0.1260 -0.3889 -0.1689
  570loPI   C1B 9117   9.848   9.758   9.157  0.3306 -0.0109  0.1500
  570loPI   C2B 9118   9.760   9.761   8.665  0.0297  0.2402  0.3558
  570loPI   C3B 9119   9.724   9.787   8.171 -0.2053  0.2234  0.0211
  570loPI   C4B 9120   9.702   9.729   7.738  0.1732  0.3328 -0.1796
  571loPI    C1 9121   3.156  17.057  10.262  0.0954  0.0581  0.0567
  571loPI    C2 9122   2.878  17.108  10.546  0.0078  0.0996 -0.0356
  571loPI    C3 9123   3.260  17.043  10.648  0.0388  0.4596  0.0908
  571loPI   PO4 9124   2.929  17.006  10.046 -0.1168 -0.0414  0.4146
  571loPI   GL1 9125   2.712  16.799   9.696 -0.3488 -0.2822  0.0702
  571loPI   GL2 9126   3.091  16.962   9.583 -0.0764 -0.1396 -0.1570
  571loPI   C1A 9127   2.725  16.857   9.207  0.1034 -0.0233 -0.2572
  571loPI   C2A 9128   2.854  16.733   8.843  0.2433 -0.2051  0.0642
  571loPI   C3A 9129   2.809  16.570   8.496  0.1134 -0.1989 -0.0878
  571loPI   C4A 9130   2.689  16.508   8.161 -0.0331  0.1103  0.1778
  571loPI   C5A 9131   2.335  16.638   7.835  0.0873 -0.0582  0.2468
  571loPI   C6A 9132   2.168  16.993   7.852 -0.0130  0.0630 -0.3157
  571loPI   C1B 9133   3.102  16.480   9.343  0.3221 -0.0704  0.3293
  571loPI   C2B 9134   3.067  16.243   8.855 -0.0070 -0.1634  0.0407
  571loPI   C3B 9135   3.049  16.158   8.466 -0.0909 -0.0192 -0.1675
  571loPI   C4B 9136   3.105  16.195   8.139 -0.1887 -0.0798 -0.2632
  572loPI    C1 9137   3.319   2.138  10.700  0.1314 -0.1544  0.0006
  572loPI    C2 9138   3.696   2.230  10.797  0.0602  0.0120  0.1232
  572loPI    C3 9139   3.551   1.866  10.878  0.2244 -0.0849 -0.0137
  572loPI   PO4 9140   3.289   2.221  10.459 -0.1787  0.2367 -0.2071
  572loPI   GL1 9141   3.395   2.237  10.054 -0.3204  0.0837  0.0684
  572loPI   GL2 9142   3.649   2.367   9.865  0.3614  0.0622  0.1302
  572loPI   C1A 9143   3.145   2.257   9.645  0.3696 -0.0872 -0.0836
  572loPI   C2A 9144   3.064   2.294   9.316  0.0541  0.3389 -0.2802
  572loPI   C3A 9145   3.094   2.330   8.800 -0.0861 -0.1431 -0.1700
  572loPI   C4A 9146   3.092   2.384   8.373  0.1677 -0.0678 -0.0731
  572loPI   C5A 9147   2.930   2.306   7.867  0.0027  0.0571 -0.0542
  572loPI   C6A 9148   2.507   2.430   7.733 -0.0172  0.0267  0.2539
  572loPI   C1B 9149   3.562   2.410   9.362 -0.0994 -0.1453 -0.1529
  572loPI   C2B 9150   3.676   2.383   8.952  0.0599 -0.1346 -0.2430
  572loPI   C3B 9151   3.523   2.181   8.602 -0.1540  0.1566  0.0786
  572loPI   C4B 9152   3.468   1.883   8.285  0.1280  0.2950  0.2898
  573loPI    C1 9153   3.481   6.719  10.423  0.0310 -0.0457 -0.2335
  573loPI    C2 9154   3.805   6.953  10.399  0.0135  0.0266  0.1671
  573loPI    C3 9155   3.823   6.606  10.597 -0.1237 -0.0249  0.0911
  573loPI   PO4 9156   3.386   6.717  10.188 -0.1151 -0.0599  0.1026
  573loPI   GL1 9157   3.615   6.837   9.955 -0.1366 -0.0813 -0.1784
  573loPI   GL2 9158   3.952   6.894   9.857 -0.2245 -0.0862 -0.1704
  573loPI   C1A 9159   3.579   7.043   9.498  0.0334  0.0968  0.2858
  573loPI   C2A 9160   3.232   6.840   9.285 -0.4806 -0.3625  0.0231
  573loPI   C3A 9161   3.125   6.877   8.821 -0.1281  0.0604 -0.1013
  573loPI   C4A 9162   3.270   7.128   8.559  0.0917 -0.1579  0.0716
  573loPI   C5A 9163   3.092   7.158   8.190 -0.3015 -0.0019 -0.3386
  573loPI   C6A 9164   2.781   7.207   7.755  0.0863 -0.1650  0.0871
  573loPI   C1B 9165   3.816   6.607   9.491 -0.1347  0.0583  0.3702
  573loPI   C2B 9166   3.537   6.567   9.039  0.0412 -0.1242 -0.1545
  573loPI   C3B 9167   3.568   6.608   8.660  0.1929 -0.0955  0.1490
  573loPI   C4B 9168   3.393   6.627   8.340  0.2368  0.0273 -0.0621
  574loPI    C1 9169  15.057   5.833  10.031  0.1059  0.1849 -0.2912
  574loPI    C2 9170  14.997   6.227   9.999 -0.2846  0.1660  0.1171
  574loPI    C3 9171  14.709   5.971   9.890  0.0524 -0.0215 -0.3648
  574loPI   PO4 9172  15.319   5.846  10.026  0.0357 -0.1354  0.1379
  574loPI   GL1 9173  15.572   6.056   9.759  0.2119  0.0465  0.3326
  574loPI   GL2 9174  15.474   6.404   9.920 -0.1674  0.2005  0.1552
  574loPI   C1A 9175  15.598   6.084   9.376 -0.1663 -0.0193  0.3510
  574loPI   C2A 9176  15.617   6.147   8.899 -0.0226  0.1020  0.0463
  574loPI   C3A 9177  15.563   6.151   8.442 -0.0313  0.1082 -0.1995
  574loPI   C4A 9178  15.527   6.265   7.984  0.3169 -0.1109  0.1071
  574loPI   C5A 9179  15.435   6.559   7.821  0.1803  0.0679  0.0788
  574loPI   C6A 9180  15.024   6.657   7.778  0.1349 -0.1741 -0.1839
  574loPI   C1B 9181  15.280   6.423   9.516 -0.0023 -0.2343 -0.0447
  574loPI   C2B 9182  15.312   6.513   9.093 -0.0227  0.2203  0.2143
  574loPI   C3B 9183  15.193   6.636   8.700 -0.1532 -0.0842 -0.0661
  574loPI   C4B 9184  15.341   6.573   8.348 -0.1565  0.1680 -0.1378
  575loPI    C1 9185   0.807  11.397  10.930  0.1304 -0.0658  0.0712
  575loPI    C2 9186   1.178  11.484  11.052  0.1409 -0.0096 -0.0000
  575loPI    C3 9187   0.863  11.598  11.272  0.1697 -0.1671  0.1246
  575loPI   PO4 9188   0.890  11.423  10.640  0.0847 -0.0615 -0.1027
  575loPI   GL1 9189   0.528  11.314  10.255 -0.1149  0.1094 -0.1477
  575loPI   GL2 9190   0.901  11.438  10.165  0.2668 -0.1372 -0.1485
  575loPI   C1A 9191   0.521  11.354   9.792  0.2522 -0.0016  0.0111
  575loPI   C2A 9192   0.398  11.318   9.313 -0.0186 -0.0544 -0.0161
  575loPI   C3A 9193   0.440  11.479   8.910  0.1036  0.1789  0.1039
  575loPI   C4A 9194   0.362  11.441   8.542  0.1400 -0.0313  0.1688
  575loPI   C5A 9195   0.477  11.433   8.119 -0.0724  0.2492  0.0117
  575loPI   C6A 9196   0.426  11.646   7.870 -0.1803  0.2091  0.1622
  575loPI   C1B 9197   0.959  11.497   9.622 -0.1485  0.2672  0.0252
  575loPI   C2B 9198   0.950  11.411   9.231  0.4525  0.0059 -0.1427
  575loPI   C3B 9199   0.944  11.474   8.789 -0.0791 -0.0932 -0.1357
  575loPI   C4B 9200   0.896  11.516   8.411  0.1282  0.0252  0.0061
  576loPI    C1 9201   2.269   8.575  10.752 -0.1314 -0.0504 -0.0501
  576loPI    C2 9202   2.363   8.790  11.076  0.0170  0.0423 -0.1537
  576loPI    C3 9203   2.339   8.391  11.100 -0.1482  0.0613  0.0127
  576loPI   PO4 9204   2.413   8.632  10.566  0.0398  0.1838  0.1412
  576loPI   GL1 9205   2.342   8.784  10.182  0.0486 -0.3422  0.1416
  576loPI   GL2 9206   2.635   8.926  10.228 -0.0897  0.4310  0.1033
  576loPI   C1A 9207   2.205   8.876   9.718  0.3409 -0.0073  0.1475
  576loPI   C2A 9208   2.231   8.867   9.302 -0.1717  0.2371 -0.1785
  576loPI   C3A 9209   2.301   8.908   8.975 -0.0521 -0.2162 -0.0293
  576loPI   C4A 9210   2.307   8.893   8.590 -0.0345  0.1062 -0.2118
  576loPI   C5A 9211   2.585   8.816   8.220 -0.6495 -0.0317  0.0386
  576loPI   C6A 9212   2.915   8.876   8.030 -0.2269  0.2646 -0.1989
  576loPI   C1B 9213   2.699   8.935   9.858 -0.2895  0.0302 -0.0365
  576loPI   C2B 9214   2.767   8.935   9.465 -0.0408  0.2284 -0.0225
  576loPI   C3B 9215   2.799   9.012   9.010 -0.0738 -0.0127 -0.2013
  576loPI   C4B 9216   2.777   9.075   8.599 -0.1201 -0.3268  0.1421
  577loPI    C1 9217   2.116   9.064  10.782  0.2961 -0.0861 -0.0238
  577loPI    C2 9218   2.267   9.180  10.430  0.0350  0.2188 -0.0403
  577loPI    C3 9219   2.192   9.451  10.714 -0.0922  0.0195  0.1190
  577loPI   PO4 9220   1.903   8.895  10.679  0.0421  0.0115 -0.1157
  577loPI   GL1 9221   1.851   8.818  10.312 -0.2057  0.1135  0.0888
  577loPI   GL2 9222   1.566   8.832  10.290  0.1445 -0.0366  0.2151
  577loPI   C1A 9223   2.013   9.175  10.071  0.1323 -0.1225  0.1372
  577loPI   C2A 9224   1.894   9.385   9.741  0.0157  0.1563  0.3464
  577loPI   C3A 9225   1.950   9.366   9.292  0.1022 -0.1172 -0.0948
  577loPI   C4A 9226   1.930   9.293   8.874 -0.2204  0.0660  0.1955
  577loPI   C5A 9227   1.832   8.996   8.613 -0.0055  0.1334 -0.1115
  577loPI   C6A 9228   1.676   8.951   8.225 -0.0689  0.2001  0.0429
  577loPI   C1B 9229   1.599   8.843   9.784 -0.0332 -0.0378 -0.0636
  577loPI   C2B 9230   1.763   8.923   9.459 -0.4090  0.0293 -0.2327
  577loPI   C3B 9231   1.675   8.844   9.053  0.1227 -0.1937 -0.1368
  577loPI   C4B 9232   1.209   8.830   8.907  0.1464  0.4139  0.1546
  578loPI    C1 9233  14.311   4.352  10.655  0.0218  0.0660 -0.1682
  578loPI    C2 9234  14.538   4.588  10.885  0.0213 -0.0934 -0.0020
  578loPI    C3 9235  14.163   4.501  10.995 -0.0724  0.0492 -0.2015
  578loPI   PO4 9236  14.316   4.513  10.429 -0.0823  0.0377  0.0005
  578loPI   GL1 9237  14.524   4.640   9.976  0.3518 -0.1903  0.3806
  578loPI   GL2 9238  14.723   4.925   9.862  0.3204 -0.1174 -0.2667
  578loPI   C1A 9239  14.496   4.592   9.593  0.0313 -0.3119  0.1915
  578loPI   C2A 9240  14.408   4.698   9.221  0.1822 -0.1476 -0.1284
  578loPI   C3A 9241  14.223   4.707   8.824  0.2282  0.1259  0.0717
  578loPI   C4A 9242  14.053   4.911   8.301 -0.3754  0.0388 -0.1390
  578loPI   C5A 9243  13.997   5.221   7.930 -0.0343 -0.0530 -0.1126
  578loPI   C6A 9244  13.841   5.370   7.610  0.0319 -0.0915  0.2213
  578loPI   C1B 9245  14.863   4.954   9.391  0.0775  0.2304  0.0903
  578loPI   C2B 9246  15.165   5.083   9.159  0.0619  0.0868 -0.0166
  578loPI   C3B 9247  15.122   5.262   8.728  0.1883  0.0089 -0.1882
  578loPI   C4B 9248  15.126   5.283   8.308 -0.4833  0.0800  0.0324
  579loPI    C1 9249  11.888   2.065  10.298  0.0440 -0.0256  0.0328
  579loPI    C2 9250  11.669   1.803  10.506  0.0124  0.0114  0.0463
  579loPI    C3 9251  12.013   1.941  10.658  0.0280 -0.0205  0.0401
  579loPI   PO4 9252  11.919   1.963  10.012  0.0646 -0.0624 -0.2873
  579loPI   GL1 9253  11.857   1.866   9.696 -0.0253 -0.1943 -0.2297
  579loPI   GL2 9254  12.020   2.201   9.534  0.1053 -0.0488 -0.0181
  579loPI   C1A 9255  12.090   1.745   9.365 -0.0897 -0.0374 -0.1672
  579loPI   C2A 9256  12.274   1.678   8.885 -0.0665 -0.2454  0.1472
  579loPI   C3A 9257  12.229   1.755   8.478  0.0164 -0.0942 -0.0053
  579loPI   C4A 9258  12.335   1.738   7.944 -0.0925  0.2207 -0.2269
  579loPI   C5A 9259  12.072   1.683   7.561  0.3312 -0.0336 -0.0586
  579loPI   C6A 9260  11.656   1.633   7.478 -0.0247  0.1442  0.3164
  579loPI   C1B 9261  11.970   2.121   9.031 -0.1278 -0.5765  0.0420
  579loPI   C2B 9262  11.983   2.171   8.604 -0.1445 -0.0972 -0.1686
  579loPI   C3B 9263  12.090   2.110   8.169  0.0114  0.1851  0.0862
  579loPI   C4B 9264  12.002   2.104   7.840 -0.1706  0.2529  0.0148
  580loPI    C1 9265  14.002   9.996  10.543  0.1249  0.1164  0.0381
  580loPI    C2 9266  13.807  10.104  10.875 -0.0442 -0.0889  0.0079
  580loPI    C3 9267  13.948   9.732  10.838  0.1393 -0.0126 -0.0739
  580loPI   PO4 9268  13.911  10.064  10.375 -0.0700  0.0901 -0.2471
  580loPI   GL1 9269  13.820  10.479  10.165  0.1122 -0.2195 -0.0613
  580loPI   GL2 9270  13.953  10.363   9.865  0.1461  0.2576  0.0534
  580loPI   C1A 9271  13.722  10.862   9.879  0.1869 -0.2248  0.1036
  580loPI   C2A 9272  13.757  10.883   9.481 -0.1480  0.0665  0.0787
  580loPI   C3A 9273  13.863  10.958   9.092  0.2041  0.0371  0.0455
  580loPI   C4A 9274  13.955  11.092   8.621 -0.0255  0.3030  0.1353
  580loPI   C5A 9275  14.143  11.024   8.161 -0.2120  0.1195  0.0185
  580loPI   C6A 9276  13.989  11.085   7.654 -0.3286 -0.1049  0.1051
  580loPI   C1B 9277  14.076  10.447   9.431 -0.0277 -0.0832 -0.5784
  580loPI   C2B 9278  14.079  10.494   9.077 -0.0206  0.0914  0.0359
  580loPI   C3B 9279  14.089  10.656   8.608 -0.2338 -0.1008 -0.4553
  580loPI   C4B 9280  14.060  10.535   8.207 -0.2664 -0.2938 -0.1618
  581loPI    C1 9281   1.351   2.171  10.595 -0.1094 -0.0587  0.1163
  581loPI    C2 9282   1.063   2.348  10.381  0.0072 -0.0743 -0.0559
  581loPI    C3 9283   1.123   2.453  10.762 -0.0117  0.1630 -0.1172
  581loPI   PO4 9284   1.468   2.029  10.362  0.3318  0.0135 -0.1010
  581loPI   GL1 9285   1.431   1.898  10.024  0.0621 -0.1915 -0.0300
  581loPI   GL2 9286   1.723   2.103   9.925  0.0433  0.0604  0.0737
  581loPI   C1A 9287   1.062   2.084   9.706 -0.1178  0.1448 -0.0945
  581loPI   C2A 9288   1.007   1.935   9.253  0.1122 -0.0044  0.0870
  581loPI   C3A 9289   1.014   2.029   8.809  0.1490 -0.1572 -0.0937
  581loPI   C4A 9290   0.908   1.813   8.374 -0.1826  0.0645 -0.0543
  581loPI   C5A 9291   0.814   1.738   7.940  0.2794  0.1252 -0.0285
  581loPI   C6A 9292   0.525   1.602   7.619 -0.3987  0.0284  0.1673
  581loPI   C1B 9293   1.538   1.960   9.527 -0.5090 -0.2672 -0.2632
  581loPI   C2B 9294   1.484   1.927   9.004 -0.1288 -0.0175 -0.2172
  581loPI   C3B 9295   1.448   1.908   8.586  0.1749  0.0771  0.0623
  581loPI   C4B 9296   1.314   2.069   8.182 -0.1328 -0.1482  0.2172
  582loPI    C1 9297   1.879  16.158  10.413 -0.1279  0.4432 -0.1022
  582loPI    C2 9298   1.627  16.045  10.702  0.1611 -0.0722 -0.0402
  582loPI    C3 9299   1.927  16.297  10.785 -0.1946  0.3732 -0.0674
  582loPI   PO4 9300   1.801  16.221  10.287  0.0139 -0.0892  0.3262
  582loPI   GL1 9301   1.664  16.257   9.950 -0.0752  0.1627  0.2075
  582loPI   GL2 9302   1.458  16.037   9.919  0.1683  0.0767  0.1610
  582loPI   C1A 9303   1.833  16.362   9.498  0.0820 -0.2296  0.1484
  582loPI   C2A 9304   2.071  16.165   9.104  0.0799 -0.1781  0.1187
  582loPI   C3A 9305   2.049  16.210   8.636 -0.3445  0.0875  0.0637
  582loPI   C4A 9306   2.130  16.264   8.190 -0.0675  0.0329  0.1459
  582loPI   C5A 9307   2.163  16.196   7.845 -0.0813 -0.1213 -0.0339
  582loPI   C6A 9308   2.014  15.780   7.562 -0.1311 -0.3801  0.1763
  582loPI   C1B 9309   1.511  15.963   9.520  0.2135  0.2203  0.1754
  582loPI   C2B 9310   1.840  15.740   9.267 -0.1391 -0.0710 -0.0204
  582loPI   C3B 9311   1.822  15.783   8.865  0.2110 -0.0183 -0.0478
  582loPI   C4B 9312   1.799  15.547   8.422  0.1909 -0.0632  0.2172
  583loPI    C1 9313   3.711  15.490  10.854 -0.0982  0.3712  0.2930
  583loPI    C2 9314   4.022  15.243  10.898 -0.1887  0.1709 -0.1369
  583loPI    C3 9315   3.946  15.519  11.177  0.1527 -0.0177  0.1532
  583loPI   PO4 9316   3.650  15.367  10.522 -0.0446  0.0027 -0.3040
  583loPI   GL1 9317   3.410  15.144  10.227 -0.0759  0.0521  0.0330
  583loPI   GL2 9318   3.234  14.907  10.396 -0.0577  0.0104 -0.0841
  583loPI   C1A 9319   3.375  15.156   9.858  0.2197  0.2568  0.2999
  583loPI   C2A 9320   3.377  14.995   9.430  0.2256  0.2569  0.1491
  583loPI   C3A 9321   3.312  14.921   9.035  0.1274 -0.1075 -0.1079
  583loPI   C4A 9322   3.451  14.914   8.650  0.2858  0.0905 -0.3242
  583loPI   C5A 9323   3.396  15.004   8.248  0.3567 -0.1166 -0.0554
  583loPI   C6A 9324   3.568  15.353   8.052 -0.1501 -0.2302  0.2133
  583loPI   C1B 9325   3.143  14.595  10.112  0.0344  0.0090  0.2147
  583loPI   C2B 9326   3.194  14.620   9.689 -0.2534 -0.0794 -0.0988
  583loPI   C3B 9327   3.123  14.563   9.291  0.0716  0.2171 -0.0388
  583loPI   C4B 9328   3.144  14.522   8.823  0.0329 -0.2653 -0.1381
  584loPI    C1 9329  16.798   0.731  10.532 -0.1272  0.0752 -0.3855
  584loPI    C2 9330  16.404   0.799  10.516 -0.1759 -0.0828  0.0267
  584loPI    C3 9331  16.542   0.424  10.537  0.0050 -0.0341 -0.2382
  584loPI   PO4 9332  16.934   0.788  10.265 -0.0595 -0.2575 -0.0423
  584loPI   GL1 9333  16.910   0.799   9.788 -0.3754  0.1652  0.1828
  584loPI   GL2 9334  16.700   0.497   9.892  0.1549 -0.1625 -0.2108
  584loPI   C1A 9335  17.024   0.821   9.333 -0.0143  0.1952  0.0894
  584loPI   C2A 9336  17.062   0.678   8.836 -0.2183  0.1061  0.0285
  584loPI   C3A 9337  17.113   0.682   8.436  0.0479  0.2655 -0.1117
  584loPI   C4A 9338  17.130   0.817   8.008  0.1298  0.0583  0.1035
  584loPI   C5A 9339  17.242   0.978   7.651 -0.1739  0.1644  0.1350
  584loPI   C6A 9340  17.733   1.281   7.734 -0.2642 -0.4168 -0.1616
  584loPI   C1B 9341  16.736   0.311   9.412 -0.1289 -0.2165  0.0904
  584loPI   C2B 9342  16.745   0.345   9.000 -0.0803  0.1286  0.0708
  584loPI   C3B 9343  16.756   0.206   8.601 -0.2643 -0.3444  0.1936
  584loPI   C4B 9344  16.854   0.339   8.121 -0.0094 -0.0324  0.0030
  585loPI    C1 9345  12.299   9.609  10.349  0.1968  0.0342  0.2906
  585loPI    C2 9346  12.335   9.949  10.556  0.0129  0.2571 -0.0339
  585loPI    C3 9347  12.020   9.894  10.315  0.0306 -0.1541  0.0296
  585loPI   PO4 9348  12.620   9.565  10.082  0.0814  0.2609 -0.0947
  585loPI   GL1 9349  12.681   9.515   9.701  0.1111  0.0964  0.1597
  585loPI   GL2 9350  12.819   9.859   9.594 -0.0033 -0.1369 -0.0445
  585loPI   C1A 9351  12.567   9.433   9.326  0.0973 -0.1758 -0.0507
  585loPI   C2A 9352  12.536   9.438   8.879 -0.3991  0.3938 -0.2560
  585loPI   C3A 9353  12.525   9.554   8.425 -0.3434  0.0397 -0.0439
  585loPI   C4A 9354  12.571   9.524   8.033  0.0442  0.1669 -0.0447
  585loPI   C5A 9355  12.539   9.844   7.691 -0.0753 -0.1378 -0.3346
  585loPI   C6A 9356  12.463  10.282   7.491  0.2107 -0.1078  0.0831
  585loPI   C1B 9357  12.847   9.912   9.152  0.1276 -0.0019 -0.1036
  585loPI   C2B 9358  12.806  10.007   8.645  0.3211 -0.1829 -0.0834
  585loPI   C3B 9359  12.954   9.828   8.280 -0.0919 -0.1605  0.1809
  585loPI   C4B 9360  13.010   9.869   7.882 -0.0197 -0.0701  0.1199
  586loPI    C1 9361  13.273   5.354   9.990  0.0291 -0.0560  0.3878
  586loPI    C2 9362  13.262   4.999   9.806  0.2220  0.0598  0.1476
  586loPI    C3 9363  12.998   5.083  10.094 -0.0420 -0.1503 -0.0287
  586loPI   PO4 9364  13.315   5.497   9.701 -0.0231  0.1183 -0.1641
  586loPI   GL1 9365  13.137   5.396   9.324  0.1208 -0.0715  0.1626
  586loPI   GL2 9366  13.051   5.739   9.384  0.1956 -0.0428  0.0186
  586loPI   C1A 9367  13.067   5.429   8.946  0.0936 -0.0242 -0.3725
  586loPI   C2A 9368  13.158   5.242   8.555  0.0843 -0.0861 -0.0658
  586loPI   C3A 9369  13.152   5.391   8.112 -0.0750 -0.1645 -0.0525
  586loPI   C4A 9370  13.380   5.574   7.768 -0.1780 -0.0651 -0.0404
  586loPI   C5A 9371  13.576   5.924   7.573 -0.1665 -0.1104  0.2914
  586loPI   C6A 9372  13.729   6.333   7.323 -0.1481 -0.0574 -0.1282
  586loPI   C1B 9373  12.949   5.978   9.074  0.0081  0.1280 -0.1843
  586loPI   C2B 9374  13.184   5.855   8.689 -0.0558 -0.3195 -0.1153
  586loPI   C3B 9375  13.460   5.714   8.310 -0.0026  0.0387 -0.0711
  586loPI   C4B 9376  13.793   5.741   8.127 -0.3663  0.1123 -0.1486
  587loPI    C1 9377  17.623  12.281  10.305  0.3399 -0.0882 -0.2129
  587loPI    C2 9378  17.836  12.515  10.550 -0.0843  0.1682 -0.0789
  587loPI    C3 9379  17.671  12.178  10.689  0.0924  0.0545 -0.1416
  587loPI   PO4 9380  17.778  12.163  10.122  0.0771  0.1976  0.0282
  587loPI   GL1 9381  17.955  12.365   9.707  0.0576  0.0472  0.0473
  587loPI   GL2 9382  17.897  12.040   9.671 -0.0606 -0.0811  0.0522
  587loPI   C1A 9383  18.091  12.613   9.458 -0.0908  0.1263  0.2768
  587loPI   C2A 9384  17.964  12.697   9.067 -0.0885  0.1188  0.0120
  587loPI   C3A 9385  17.772  12.998   8.823  0.1103 -0.2295  0.0475
  587loPI   C4A 9386  17.733  13.239   8.363  0.0212 -0.0795 -0.1461
  587loPI   C5A 9387  17.488  13.549   8.122  0.0015 -0.1816  0.2788
  587loPI   C6A 9388  17.517  13.989   8.120 -0.0178  0.1715  0.1349
  587loPI   C1B 9389  17.781  12.091   9.258  0.1420 -0.1518  0.0434
  587loPI   C2B 9390  17.865  12.112   8.839  0.0740  0.1773 -0.2229
  587loPI   C3B 9391  17.856  12.259   8.537 -0.0436  0.1690 -0.1954
  587loPI   C4B 9392  18.001  12.656   8.548  0.0104 -0.1332  0.1782
  588loPI    C1 9393   8.040  12.530  10.422 -0.2002 -0.3141  0.1008
  588loPI    C2 9394   8.139  12.711  10.765 -0.2050  0.1513 -0.1358
  588loPI    C3 9395   7.770  12.563  10.716 -0.2411  0.1894  0.0146
  588loPI   PO4 9396   8.138  12.288  10.387 -0.0477  0.1830  0.0768
  588loPI   GL1 9397   8.191  12.057  10.175 -0.2115  0.3249  0.4168
  588loPI   GL2 9398   8.407  11.807  10.088  0.0014 -0.1632 -0.2014
  588loPI   C1A 9399   8.042  12.206   9.801 -0.0023 -0.1171 -0.2412
  588loPI   C2A 9400   8.012  12.215   9.369 -0.0169  0.0727 -0.1232
  588loPI   C3A 9401   8.058  12.297   9.013  0.0011 -0.0520  0.2981
  588loPI   C4A 9402   8.003  12.304   8.616  0.1095  0.1274  0.2571
  588loPI   C5A 9403   8.060  12.236   8.191 -0.1049  0.1108  0.1068
  588loPI   C6A 9404   8.280  12.351   7.799  0.2229 -0.0398 -0.1848
  588loPI   C1B 9405   8.394  11.844   9.674  0.0645  0.1081 -0.1562
  588loPI   C2B 9406   8.382  11.886   9.242 -0.2059 -0.1590  0.0092
  588loPI   C3B 9407   8.249  11.824   8.878  0.0113  0.3295  0.2097
  588loPI   C4B 9408   8.310  11.819   8.535 -0.2049  0.1392  0.0116
  589loPI    C1 9409  14.020   7.077  10.618 -0.0123  0.0490  0.1678
  589loPI    C2 9410  14.084   7.454  10.736  0.2300  0.0340  0.0897
  589loPI    C3 9411  14.267   7.151  10.924 -0.2311 -0.0760  0.3784
  589loPI   PO4 9412  13.925   7.186  10.311 -0.0899 -0.3362 -0.3287
  589loPI   GL1 9413  13.953   7.175   9.922 -0.1600  0.1561  0.0903
  589loPI   GL2 9414  13.990   6.913   9.755 -0.4004  0.0917  0.2443
  589loPI   C1A 9415  14.284   7.286   9.598 -0.1422 -0.0462  0.2866
  589loPI   C2A 9416  14.595   7.163   9.316  0.1095 -0.1973 -0.0694
  589loPI   C3A 9417  14.678   7.370   8.906  0.2284 -0.4718  0.0472
  589loPI   C4A 9418  14.515   7.342   8.529  0.1844  0.0230  0.0401
  589loPI   C5A 9419  14.497   7.431   8.112  0.2055 -0.2378  0.1290
  589loPI   C6A 9420  14.238   7.563   7.769  0.0514  0.2768 -0.1903
  589loPI   C1B 9421  14.040   6.901   9.277 -0.0055  0.1851  0.1652
  589loPI   C2B 9422  13.886   6.874   8.857  0.1023  0.3204 -0.0536
  589loPI   C3B 9423  13.642   6.886   8.475  0.2326 -0.0616 -0.1970
  589loPI   C4B 9424  13.573   6.556   8.246 -0.2974  0.0696  0.0459
  590loPI    C1 9425  15.292   1.191  10.448  0.0769 -0.2042 -0.0955
  590loPI    C2 9426  15.286   1.084  10.834 -0.0188  0.0445 -0.0264
  590loPI    C3 9427  15.635   1.122  10.642  0.0352  0.0503  0.0726
  590loPI   PO4 9428  15.167   1.059  10.293  0.0244  0.3164  0.2352
  590loPI   GL1 9429  15.049   0.873   9.877 -0.0177  0.4216  0.0562
  590loPI   GL2 9430  15.302   0.642  10.058  0.0917 -0.2491  0.0510
  590loPI   C1A 9431  15.042   0.859   9.462  0.0515 -0.1856  0.1575
  590loPI   C2A 9432  15.086   1.013   8.994 -0.2584  0.0506 -0.2728
  590loPI   C3A 9433  14.924   0.994   8.616 -0.0477  0.0995 -0.1372
  590loPI   C4A 9434  15.035   0.959   8.189 -0.1397  0.0468  0.1075
  590loPI   C5A 9435  15.322   1.175   8.003  0.0257 -0.0587  0.0818
  590loPI   C6A 9436  15.322   1.478   7.593 -0.3187  0.0868 -0.0486
  590loPI   C1B 9437  15.215   0.474   9.636 -0.1446  0.0738  0.2815
  590loPI   C2B 9438  15.257   0.444   9.155  0.1496 -0.2284 -0.1174
  590loPI   C3B 9439  15.261   0.561   8.807 -0.4205 -0.0553 -0.2808
  590loPI   C4B 9440  15.201   0.491   8.333  0.2604  0.1531  0.2389
  591loPI    C1 9441   1.454   6.344  10.948 -0.1313  0.0972  0.0652
  591loPI    C2 9442   1.097   6.497  11.044 -0.3158 -0.0671 -0.3353
  591loPI    C3 9443   1.213   6.147  11.199 -0.2979  0.0186 -0.1531
  591loPI   PO4 9444   1.442   6.275  10.657  0.0424  0.0256 -0.0462
  591loPI   GL1 9445   1.331   6.579  10.304 -0.0863  0.4474 -0.0552
  591loPI   GL2 9446   1.569   6.772  10.100  0.0456 -0.1406  0.1233
  591loPI   C1A 9447   1.188   6.486   9.941 -0.3839  0.0551  0.1014
  591loPI   C2A 9448   1.176   6.571   9.436  0.0946 -0.0158 -0.0502
  591loPI   C3A 9449   1.225   6.482   8.943 -0.0482 -0.2516 -0.1849
  591loPI   C4A 9450   1.154   6.599   8.493  0.0650  0.0512 -0.0356
  591loPI   C5A 9451   1.336   6.558   8.013 -0.2421  0.2746  0.2353
  591loPI   C6A 9452   1.428   6.903   7.787  0.0867  0.2640 -0.1762
  591loPI   C1B 9453   1.359   6.934   9.772  0.0580 -0.3721  0.2110
  591loPI   C2B 9454   1.334   6.971   9.225 -0.1780 -0.0797  0.0312
  591loPI   C3B 9455   1.398   7.134   8.747  0.0312 -0.2588 -0.2527
  591loPI   C4B 9456   1.389   7.053   8.319 -0.1242 -0.1366 -0.1837
  592loPI    C1 9457   3.339  13.052  11.179  0.2023 -0.1469  0.0697
  592loPI    C2 9458   3.278  13.198  11.546 -0.0594 -0.0065 -0.0268
  592loPI    C3 9459   3.135  12.838  11.448 -0.1758  0.0467 -0.0547
  592loPI   PO4 9460   3.193  13.279  11.017 -0.0646 -0.0657 -0.1840
  592loPI   GL1 9461   2.968  13.201  10.545  0.3461  0.0125 -0.0803
  592loPI   GL2 9462   2.664  13.166  10.384 -0.3381  0.0305 -0.0567
  592loPI   C1A 9463   3.120  13.338  10.184 -0.0737 -0.3490  0.1672
  592loPI   C2A 9464   3.069  13.188   9.815  0.3081  0.4148 -0.2036
  592loPI   C3A 9465   3.042  13.230   9.356  0.1468 -0.1227 -0.3091
  592loPI   C4A 9466   3.041  13.075   8.912 -0.4210  0.0808 -0.0438
  592loPI   C5A 9467   3.131  13.157   8.408 -0.0743  0.0960 -0.3547
  592loPI   C6A 9468   3.581  13.283   8.328 -0.0015  0.1625  0.0403
  592loPI   C1B 9469   2.622  13.174  10.017 -0.0535 -0.0517  0.3967
  592loPI   C2B 9470   2.423  13.120   9.602 -0.0372 -0.0357 -0.3571
  592loPI   C3B 9471   2.534  13.147   9.264 -0.0410  0.0374 -0.0878
  592loPI   C4B 9472   2.544  13.042   8.849 -0.1717 -0.0268 -0.2141
  593loPI    C1 9473   1.342  17.497  10.894 -0.2358 -0.0200  0.0795
  593loPI    C2 9474   1.066  17.318  11.121 -0.1444 -0.2787 -0.0096
  593loPI    C3 9475   1.446  17.196  11.135 -0.0429  0.0375  0.0694
  593loPI   PO4 9476   1.136  17.520  10.665 -0.0845 -0.0384 -0.2083
  593loPI   GL1 9477   1.218  17.479  10.270  0.2095  0.0186  0.3321
  593loPI   GL2 9478   0.976  17.582  10.018  0.1837 -0.1244 -0.1496
  593loPI   C1A 9479   1.388  17.251   9.892  0.2971 -0.3703  0.1470
  593loPI   C2A 9480   1.310  17.235   9.461  0.1156  0.0127  0.0531
  593loPI   C3A 9481   1.457  17.329   9.128  0.1364 -0.1690 -0.1886
  593loPI   C4A 9482   1.646  17.549   8.725 -0.0078  0.0086  0.0916
  593loPI   C5A 9483   1.379  17.395   8.316  0.1641 -0.1224 -0.0732
  593loPI   C6A 9484   0.928  17.279   8.428  0.3967  0.1658 -0.1799
  593loPI   C1B 9485   0.823  17.360   9.659  0.2032 -0.1098 -0.0447
  593loPI   C2B 9486   0.880  17.291   9.206  0.1892  0.0919  0.0036
  593loPI   C3B 9487   1.064  17.264   8.895 -0.0190  0.1276  0.0331
  593loPI   C4B 9488   1.521  17.061   8.739 -0.0161 -0.0941  0.1753
  594loPI    C1 9489  15.466   4.518   9.970  0.0693  0.0015  0.1310
  594loPI    C2 9490  15.266   4.481  10.314 -0.0340  0.1062  0.0827
  594loPI    C3 9491  15.190   4.789  10.071 -0.1160 -0.0838 -0.1361
  594loPI   PO4 9492  15.462   4.238   9.928  0.0465 -0.1226 -0.0030
  594loPI   GL1 9493  15.537   4.135   9.487 -0.0538  0.0694  0.0223
  594loPI   GL2 9494  15.787   4.399   9.552 -0.1239 -0.0269 -0.0763
  594loPI   C1A 9495  15.237   4.203   9.265 -0.1226 -0.3536 -0.0032
  594loPI   C2A 9496  15.198   4.308   8.818  0.2191 -0.0940 -0.1414
  594loPI   C3A 9497  15.193   4.180   8.328  0.0349 -0.1472  0.0799
  594loPI   C4A 9498  15.591   4.011   8.089 -0.3527  0.0944 -0.2266
  594loPI   C5A 9499  15.954   4.140   7.876 -0.2715  0.1522  0.0837
  594loPI   C6A 9500  16.361   3.986   7.822 -0.0543 -0.2145 -0.0199
  594loPI   C1B 9501  15.794   4.365   9.095 -0.1482  0.1287 -0.3354
  594loPI   C2B 9502  15.760   4.066   8.773  0.2299  0.1318  0.1026
  594loPI   C3B 9503  15.459   3.841   8.588  0.2077 -0.3630 -0.3846
  594loPI   C4B 9504  15.240   3.671   8.280  0.0529 -0.2422 -0.0505
  595loPI    C1 9505   5.756  18.495  10.378 -0.4123 -0.0718 -0.0208
  595loPI    C2 9506   5.684  18.719  10.702  0.0340 -0.0150  0.0451
  595loPI    C3 9507   5.586  18.331  10.701 -0.0691  0.0095  0.2060
  595loPI   PO4 9508   5.676  18.708  10.173  0.0459 -0.2701  0.0654
  595loPI   GL1 9509   5.331  18.818   9.836  0.3011  0.0413  0.1557
  595loPI   GL2 9510   5.688  18.577   9.678 -0.1661  0.0953 -0.2089
  595loPI   C1A 9511   5.318  18.799   9.396  0.1735  0.0816 -0.1484
  595loPI   C2A 9512   5.142  18.572   9.062 -0.0766  0.1421  0.0042
  595loPI   C3A 9513   4.805  18.586   8.739  0.2404  0.2148  0.0469
  595loPI   C4A 9514   4.727  18.794   8.424 -0.1703  0.1101 -0.0436
  595loPI   C5A 9515   4.909  19.047   8.067 -0.0540 -0.2382 -0.0229
  595loPI   C6A 9516   5.001  18.993   7.602  0.0688  0.1473  0.0355
  595loPI   C1B 9517   5.732  18.516   9.302 -0.2422  0.1322 -0.2788
  595loPI   C2B 9518   5.641  18.414   8.874 -0.0294 -0.2867 -0.0339
  595loPI   C3B 9519   5.512  18.347   8.484 -0.0217  0.0509 -0.1081
  595loPI   C4B 9520   5.299  17.964   8.326 -0.1971 -0.3388 -0.0343
  596loPI    C1 9521  10.855  15.967  10.595 -0.0083 -0.0976  0.1606
  596loPI    C2 9522  10.834  15.655  10.844 -0.0128 -0.2593 -0.0401
  596loPI    C3 9523  11.188  15.769  10.697 -0.0222 -0.2254 -0.0367
  596loPI   PO4 9524  10.722  15.887  10.385 -0.0478 -0.3574 -0.1976
  596loPI   GL1 9525  10.925  16.059   9.959  0.2483  0.2319  0.2321
  596loPI   GL2 9526  10.935  16.182   9.805  0.2662 -0.0209  0.3902
  596loPI   C1A 9527  11.180  15.834   9.601 -0.0198 -0.0485 -0.1659
  596loPI   C2A 9528  11.278  15.462   9.321 -0.0496  0.3537 -0.0904
  596loPI   C3A 9529  11.451  15.222   9.094  0.2472  0.0829 -0.2714
  596loPI   C4A 9530  11.475  15.200   8.640 -0.0311 -0.1715  0.3532
  596loPI   C5A 9531  11.294  14.900   8.215 -0.2492  0.0642 -0.0893
  596loPI   C6A 9532  11.019  14.753   7.886  0.2288 -0.0071 -0.0184
  596loPI   C1B 9533  10.810  16.205   9.371 -0.2827 -0.1225 -0.2693
  596loPI   C2B 9534  10.934  16.518   9.028  0.2826  0.2815  0.0928
  596loPI   C3B 9535  11.098  16.475   8.606  0.3775 -0.3544  0.2660
  596loPI   C4B 9536  11.061  16.704   8.267 -0.0409  0.4113 -0.1723
  597loPI    C1 9537  15.986   0.532  10.938  0.0231 -0.3095 -0.1044
  597loPI    C2 9538  15.875   0.619  11.313 -0.1056 -0.0166 -0.2079
  597loPI    C3 9539  15.789   0.261  11.157  0.0789 -0.1948  0.0905
  597loPI   PO4 9540  15.889   0.692  10.790  0.5617 -0.2163 -0.2083
  597loPI   GL1 9541  15.927   0.758  10.358 -0.0299 -0.2760  0.3113
  597loPI   GL2 9542  15.653   0.940  10.184 -0.1055 -0.0568 -0.0536
  597loPI   C1A 9543  16.185   0.559   9.970  0.1192 -0.0726  0.0642
  597loPI   C2A 9544  16.222   0.400   9.550  0.2254 -0.2159 -0.1928
  597loPI   C3A 9545  16.262   0.417   9.110 -0.2087  0.2265  0.1794
  597loPI   C4A 9546  16.248   0.308   8.641 -0.0786  0.1104  0.1704
  597loPI   C5A 9547  16.347   0.451   8.210  0.0297 -0.0564 -0.3324
  597loPI   C6A 9548  16.583   0.667   7.957  0.1234  0.2623 -0.0000
  597loPI   C1B 9549  15.512   0.933   9.666 -0.1041  0.0295 -0.2084
  597loPI   C2B 9550  15.492   0.923   9.267 -0.2810  0.3214 -0.2963
  597loPI   C3B 9551  15.583   0.937   8.908 -0.0936  0.0662 -0.2970
  597loPI   C4B 9552  15.416   0.928   8.505  0.1124  0.3217 -0.0024
  598loPI    C1 9553   2.710   9.435  10.638  0.2664 -0.3461 -0.0513
  598loPI    C2 9554   2.693   9.040  10.695 -0.0950 -0.3000  0.1959
  598loPI    C3 9555   2.612   9.289  10.997  0.1832 -0.0334  0.0567
  598loPI   PO4 9556   2.637   9.538  10.419 -0.2686  0.2043 -0.1403
  598loPI   GL1 9557   2.498   9.365  10.028  0.0104 -0.0247  0.3904
  598loPI   GL2 9558   2.713   9.680   9.958  0.1343  0.1608  0.4093
  598loPI   C1A 9559   2.402   9.355   9.608 -0.2338  0.3870 -0.2527
  598loPI   C2A 9560   2.414   9.409   9.192  0.0540  0.1241 -0.0936
  598loPI   C3A 9561   2.486   9.386   8.868 -0.1573  0.1741  0.1005
  598loPI   C4A 9562   2.407   9.582   8.468 -0.1832  0.0756 -0.1340
  598loPI   C5A 9563   2.193   9.707   8.057  0.0330 -0.0829  0.0496
  598loPI   C6A 9564   1.864  10.091   8.046 -0.1990 -0.1374 -0.0314
  598loPI   C1B 9565   2.625   9.840   9.523  0.0850 -0.2987 -0.2583
  598loPI   C2B 9566   2.545   9.975   9.166  0.1350 -0.1330  0.2031
  598loPI   C3B 9567   2.598   9.933   8.717 -0.0910 -0.1053 -0.1415
  598loPI   C4B 9568   2.522  10.048   8.296 -0.0788  0.1824 -0.0516
  599loPI    C1 9569  17.483   7.655  10.640 -0.1302  0.0302 -0.0393
  599loPI    C2 9570  17.875   7.735  10.652 -0.1603  0.1654  0.0687
  599loPI    C3 9571  17.690   7.591  10.976 -0.1697 -0.0483 -0.0297
  599loPI   PO4 9572  17.448   7.529  10.453 -0.2335 -0.1941 -0.0782
  599loPI   GL1 9573  17.706   7.497  10.210 -0.1810 -0.2058  0.0977
  599loPI   GL2 9574  17.613   7.765  10.072 -0.0548  0.3186  0.0659
  599loPI   C1A 9575  17.957   7.320   9.899  0.2205 -0.0221  0.0588
  599loPI   C2A 9576  17.977   7.260   9.452  0.0225  0.1259 -0.2030
  599loPI   C3A 9577  18.010   7.242   8.987 -0.0644 -0.1740 -0.1819
  599loPI   C4A 9578  17.990   7.247   8.517 -0.1725 -0.1005  0.1577
  599loPI   C5A 9579  18.147   7.349   8.126  0.0959 -0.2398  0.0316
  599loPI   C6A 9580  18.207   7.177   7.715 -0.1311 -0.4425  0.1582
  599loPI   C1B 9581  17.737   7.679   9.606  0.1923  0.1623  0.1938
  599loPI   C2B 9582  17.769   7.650   9.242 -0.1004  0.0326  0.3474
  599loPI   C3B 9583  17.805   7.653   8.783  0.0375  0.1736  0.0694
  599loPI   C4B 9584  17.898   7.772   8.420 -0.0861 -0.0500  0.3585
  600loPI    C1 9585   6.263   7.081  10.581 -0.1530 -0.0755 -0.1144
  600loPI    C2 9586   6.621   7.057  10.758 -0.1162  0.1265 -0.1587
  600loPI    C3 9587   6.288   7.060  10.980 -0.0999 -0.2105 -0.1244
  600loPI   PO4 9588   6.282   7.209  10.376  0.1213 -0.0502  0.2453
  600loPI   GL1 9589   6.380   7.235   9.958 -0.0024 -0.0939 -0.1252
  600loPI   GL2 9590   6.120   6.977   9.995  0.0126 -0.0764  0.1849
  600loPI   C1A 9591   6.134   7.415   9.627  0.3661  0.0186 -0.2510
  600loPI   C2A 9592   6.096   7.390   9.204  0.1474 -0.0260  0.1585
  600loPI   C3A 9593   6.175   7.540   8.797 -0.3893  0.0512 -0.1471
  600loPI   C4A 9594   6.214   7.848   8.565 -0.2999 -0.0840  0.2732
  600loPI   C5A 9595   6.316   8.103   8.209  0.0282 -0.1119  0.0805
  600loPI   C6A 9596   6.318   8.489   8.086  0.1272 -0.2791 -0.2856
  600loPI   C1B 9597   6.068   6.805   9.608  0.0105 -0.1168 -0.1389
  600loPI   C2B 9598   6.205   6.922   9.236 -0.0294  0.2408 -0.0649
  600loPI   C3B 9599   6.145   7.040   8.839 -0.3920  0.1068  0.3762
  600loPI   C4B 9600   6.101   7.151   8.367 -0.1367  0.1851  0.0994
  601loPI    C1 9601   9.985  15.754  10.795  0.0759 -0.2407 -0.1624
  601loPI    C2 9602  10.336  15.838  10.622  0.0670 -0.2068 -0.1641
  601loPI    C3 9603  10.320  15.756  11.013  0.0157  0.2643 -0.0625
  601loPI   PO4 9604   9.845  15.791  10.484 -0.0372  0.1776  0.1612
  601loPI   GL1 9605   9.803  16.069  10.102 -0.0573  0.1721 -0.0766
  601loPI   GL2 9606   9.913  16.207   9.819 -0.0747  0.1526 -0.3342
  601loPI   C1A 9607   9.489  15.942   9.865  0.0915  0.3877 -0.3090
  601loPI   C2A 9608   9.223  15.699   9.580 -0.1455  0.0822 -0.2416
  601loPI   C3A 9609   9.146  15.617   9.284  0.1376  0.3006 -0.0345
  601loPI   C4A 9610   9.160  15.458   8.791  0.1810  0.1004  0.0129
  601loPI   C5A 9611   9.238  15.382   8.332  0.2034  0.1698 -0.3899
  601loPI   C6A 9612   9.138  15.102   7.996  0.2396 -0.2104 -0.2518
  601loPI   C1B 9613   9.838  16.122   9.367  0.0708 -0.1836 -0.0074
  601loPI   C2B 9614   9.823  16.049   8.946 -0.0866  0.0670 -0.0395
  601loPI   C3B 9615   9.816  16.000   8.500 -0.2004 -0.0461  0.0711
  601loPI   C4B 9616   9.712  16.041   8.052 -0.1324  0.1393  0.0895
  602loPI    C1 9617   2.154  15.349  10.468  0.0055 -0.0513  0.0944
  602loPI    C2 9618   1.945  15.658  10.611  0.0360 -0.0324  0.0982
  602loPI    C3 9619   1.980  15.323  10.827  0.1307  0.0174  0.1611
  602loPI   PO4 9620   2.099  15.307  10.268  0.0796 -0.1722  0.1958
  602loPI   GL1 9621   1.821  15.176   9.909 -0.0270 -0.0717  0.4269
  602loPI   GL2 9622   1.723  15.494   9.716 -0.3223  0.1168 -0.0914
  602loPI   C1A 9623   1.837  14.898   9.611 -0.1906 -0.1631 -0.0730
  602loPI   C2A 9624   1.881  14.805   9.166  0.1960  0.0928  0.0544
  602loPI   C3A 9625   1.847  14.765   8.761  0.4129 -0.2845  0.1847
  602loPI   C4A 9626   1.804  14.595   8.333 -0.1165 -0.0853  0.0983
  602loPI   C5A 9627   1.796  14.430   7.934  0.2646 -0.1692  0.4806
  602loPI   C6A 9628   1.398  14.287   7.830  0.0894  0.3526  0.0646
  602loPI   C1B 9629   1.667  15.211   9.256 -0.2025 -0.2027  0.0096
  602loPI   C2B 9630   1.524  15.147   8.862 -0.2756 -0.1848 -0.0408
  602loPI   C3B 9631   1.589  15.092   8.410  0.0879 -0.0275  0.0895
  602loPI   C4B 9632   1.767  14.941   7.975 -0.0117 -0.0217 -0.1766
  603loPI    C1 9633  18.267   5.950  10.603 -0.0500 -0.1069  0.1138
  603loPI    C2 9634  18.261   5.766  10.958  0.0761  0.0052  0.1750
  603loPI    C3 9635  17.972   6.026  10.863 -0.2429 -0.4043 -0.0118
  603loPI   PO4 9636  18.242   5.833  10.280  0.1246  0.1724 -0.1099
  603loPI   GL1 9637  18.112   5.781   9.900  0.1979 -0.0367  0.1372
  603loPI   GL2 9638  17.959   5.917   9.800 -0.4045  0.2093 -0.1554
  603loPI   C1A 9639  18.508   5.966   9.719  0.1819 -0.3353  0.2756
  603loPI   C2A 9640  18.551   5.947   9.272  0.1846  0.0810 -0.0185
  603loPI   C3A 9641  18.438   5.884   8.809 -0.0476  0.2210  0.0262
  603loPI   C4A 9642  18.469   5.982   8.391 -0.2553 -0.1353 -0.0962
  603loPI   C5A 9643  18.523   6.028   7.974 -0.1416  0.1887 -0.0644
  603loPI   C6A 9644  18.536   5.932   7.520 -0.2732 -0.1711  0.6451
  603loPI   C1B 9645  17.990   5.815   9.335  0.1603 -0.3372 -0.1844
  603loPI   C2B 9646  17.951   5.861   8.909  0.2736 -0.1724  0.0866
  603loPI   C3B 9647  17.909   5.839   8.410  0.0199  0.1190 -0.1755
  603loPI   C4B 9648  17.654   5.707   8.067 -0.3401 -0.2637 -0.0243
  604loPI    C1 9649  15.472  15.861  11.042  0.0463  0.1253 -0.0422
  604loPI    C2 9650  15.232  16.120  11.228  0.0386  0.1058 -0.0249
  604loPI    C3 9651  15.518  15.930  11.433 -0.1508 -0.1267  0.0283
  604loPI   PO4 9652  15.322  15.767  10.770 -0.1667 -0.0507 -0.0424
  604loPI   GL1 9653  15.363  15.823  10.377 -0.1254  0.0954  0.0222
  604loPI   GL2 9654  15.253  15.402  10.343 -0.1715  0.1826 -0.0303
  604loPI   C1A 9655  15.222  15.962   9.845  0.1519 -0.0187  0.1232
  604loPI   C2A 9656  15.200  15.888   9.446 -0.2557 -0.2154 -0.2042
  604loPI   C3A 9657  15.249  15.849   9.020  0.1795 -0.0383  0.1240
  604loPI   C4A 9658  15.242  15.680   8.572 -0.1806 -0.2282  0.1444
  604loPI   C5A 9659  15.338  15.349   8.295 -0.4047  0.2110  0.4013
  604loPI   C6A 9660  15.628  15.296   7.963  0.0896 -0.5735  0.0354
  604loPI   C1B 9661  15.477  15.456   9.996  0.0309 -0.1078 -0.0136
  604loPI   C2B 9662  15.374  15.453   9.510  0.3392 -0.1914 -0.0822
  604loPI   C3B 9663  15.398  15.366   9.129  0.4647  0.2565  0.1539
  604loPI   C4B 9664  15.414  15.233   8.756 -0.2806 -0.3232 -0.0815
  605loPI    C1 9665  18.224  10.002  10.917  0.1381  0.0600 -0.0317
  605loPI    C2 9666  18.544  10.238  10.874  0.0552  0.2092  0.1553
  605loPI    C3 9667  18.301  10.286  11.188 -0.0474 -0.0267  0.1142
  605loPI   PO4 9668  18.180   9.936  10.670 -0.2629  0.3687  0.0049
  605loPI   GL1 9669  18.339   9.905  10.242 -0.0656 -0.2024 -0.2645
  605loPI   GL2 9670  18.615   9.913  10.380 -0.1736  0.0339  0.4690
  605loPI   C1A 9671  18.394   9.982   9.808  0.1628  0.1398 -0.0759
  605loPI   C2A 9672  18.344   9.959   9.339 -0.1588 -0.0758  0.1059
  605loPI   C3A 9673  18.286   9.949   8.888 -0.0362  0.1435  0.1819
  605loPI   C4A 9674  18.456  10.039   8.499  0.0320  0.1675  0.1196
  605loPI   C5A 9675  18.414  10.014   8.057  0.0964 -0.0411 -0.0058
  605loPI   C6A 9676  18.733   9.780   7.776  0.0078 -0.2041  0.1873
  605loPI   C1B 9677  18.841  10.107  10.109  0.1541  0.0080  0.0010
  605loPI   C2B 9678  18.848  10.082   9.705 -0.0985 -0.0181  0.1424
  605loPI   C3B 9679  18.930  10.033   9.319 -0.0062  0.0262 -0.2967
  605loPI   C4B 9680  18.883  10.021   8.912  0.0496  0.2626  0.1312
  606loPI    C1 9681  10.091  17.937  10.500  0.0079 -0.1193 -0.0097
  606loPI    C2 9682  10.157  17.844  10.883  0.1536 -0.0371 -0.0144
  606loPI    C3 9683   9.803  17.994  10.772  0.1226 -0.0294  0.0937
  606loPI   PO4 9684  10.139  17.711  10.338 -0.1012 -0.1140 -0.1305
  606loPI   GL1 9685  10.092  17.515   9.933 -0.1000  0.1049  0.4567
  606loPI   GL2 9686   9.930  17.375   9.764  0.1245 -0.0388 -0.0519
  606loPI   C1A 9687  10.526  17.521   9.733  0.0092  0.0645  0.3263
  606loPI   C2A 9688  10.604  17.815   9.475  0.0054 -0.2105 -0.2065
  606loPI   C3A 9689  10.580  18.028   9.106 -0.1356 -0.0867 -0.1254
  606loPI   C4A 9690  10.767  17.969   8.689  0.0741 -0.1457 -0.2939
  606loPI   C5A 9691  10.627  17.663   8.467 -0.2899  0.5265 -0.1090
  606loPI   C6A 9692  10.483  17.273   8.296 -0.0114 -0.0395  0.3061
  606loPI   C1B 9693  10.137  17.540   9.391 -0.0507 -0.2811 -0.1923
  606loPI   C2B 9694  10.337  17.663   8.980 -0.0149  0.1464 -0.1320
  606loPI   C3B 9695  10.196  17.606   8.630 -0.1320  0.1275 -0.1179
  606loPI   C4B 9696  10.031  17.604   8.247 -0.0904 -0.0508 -0.0307
  607loPI    C1 9697   4.877   0.210  10.186  0.1159  0.1063 -0.1473
  607loPI    C2 9698   5.229   0.202  10.376  0.0307  0.0678  0.0115
  607loPI    C3 9699   4.896   0.295  10.577 -0.1098 -0.3049 -0.0404
  607loPI   PO4 9700   4.949   0.045   9.989  0.4244 -0.0997 -0.3096
  607loPI   GL1 9701   4.878   0.066   9.505 -0.3826 -0.0548 -0.0673
  607loPI   GL2 9702   5.138  -0.215   9.560  0.3300  0.2134  0.1162
  607loPI   C1A 9703   4.795  -0.399   9.213  0.0001 -0.2599  0.2765
  607loPI   C2A 9704   4.575  -0.868   9.351  0.1083  0.1520 -0.3637
  607loPI   C3A 9705   4.565  -1.290   9.091  0.0422  0.2152  0.0094
  607loPI   C4A 9706   4.693  -1.354   8.680 -0.1513  0.1633 -0.1483
  607loPI   C5A 9707   4.739  -1.440   8.172 -0.3223  0.0126 -0.2812
  607loPI   C6A 9708   4.556  -1.688   7.886  0.2113  0.0592  0.2698
  607loPI   C1B 9709   5.380  -0.398   9.250  0.2851 -0.0773 -0.0542
  607loPI   C2B 9710   5.271  -0.481   8.906  0.0046 -0.3949  0.1789
  607loPI   C3B 9711   4.922  -0.436   8.609 -0.0900 -0.0864  0.2599
  607loPI   C4B 9712   4.531  -0.236   8.347 -0.0270 -0.0427 -0.1233
  608loPI    C1 9713   0.447   7.962  10.640 -0.0948 -0.0765 -0.1415
  608loPI    C2 9714   0.253   7.882  10.981  0.0145 -0.1088 -0.0864
  608loPI    C3 9715   0.618   8.046  10.992  0.0367 -0.1506 -0.1868
  608loPI   PO4 9716   0.353   7.741  10.515 -0.1445  0.0069  0.3507
  608loPI   GL1 9717   0.264   7.804  10.128  0.2165 -0.3958  0.2122
  608loPI   GL2 9718   0.041   8.172   9.958  0.1496  0.1008  0.1385
  608loPI   C1A 9719   0.194   7.735   9.710 -0.2168 -0.2372  0.1094
  608loPI   C2A 9720   0.255   7.873   9.317  0.1713  0.0439 -0.0532
  608loPI   C3A 9721   0.308   7.827   8.858 -0.0841  0.2748 -0.2144
  608loPI   C4A 9722   0.248   7.907   8.434 -0.1670  0.1404 -0.1836
  608loPI   C5A 9723  -0.123   7.874   8.185 -0.0303  0.0558  0.0955
  608loPI   C6A 9724  -0.515   7.854   7.911  0.1721 -0.1261  0.2357
  608loPI   C1B 9725   0.011   8.236   9.509  0.0006 -0.0046  0.2652
  608loPI   C2B 9726   0.024   8.229   9.033 -0.1092  0.1006  0.0304
  608loPI   C3B 9727   0.020   8.418   8.631  0.3360  0.2367  0.0881
  608loPI   C4B 9728  -0.049   8.379   8.151  0.1087  0.0523 -0.0320
  609loPI    C1 9729   8.590  12.477  10.683  0.0335  0.0620 -0.0355
  609loPI    C2 9730   8.989  12.486  10.655  0.0491 -0.2716  0.0326
  609loPI    C3 9731   8.807  12.650  10.971  0.1176  0.0425 -0.0868
  609loPI   PO4 9732   8.554  12.609  10.420  0.2026 -0.2238 -0.0078
  609loPI   GL1 9733   8.524  12.495  10.026 -0.2857  0.1395 -0.0854
  609loPI   GL2 9734   8.610  12.238  10.027 -0.0811 -0.1202  0.1073
  609loPI   C1A 9735   8.478  12.336   9.560 -0.0845  0.1233  0.1940
  609loPI   C2A 9736   8.577  12.302   9.116  0.0074  0.1737  0.0710
  609loPI   C3A 9737   8.498  12.207   8.754 -0.2349 -0.2979  0.2098
  609loPI   C4A 9738   8.602  12.204   8.308  0.1277  0.1857 -0.1200
  609loPI   C5A 9739   8.859  12.060   8.012 -0.0727 -0.1606  0.1025
  609loPI   C6A 9740   9.318  12.072   7.895 -0.1044  0.0177  0.0759
  609loPI   C1B 9741   8.866  11.935   9.873  0.3459 -0.1522 -0.1444
  609loPI   C2B 9742   8.865  11.955   9.400 -0.0032  0.1873  0.0340
  609loPI   C3B 9743   8.895  11.932   9.047 -0.0227  0.0496 -0.4069
  609loPI   C4B 9744   8.853  11.867   8.606 -0.3328 -0.3991  0.1409
  610loPI    C1 9745   9.423   9.393  10.567 -0.0014  0.0127  0.0723
  610loPI    C2 9746   9.811   9.451  10.492  0.0094  0.0759  0.1760
  610loPI    C3 9747   9.694   9.321  10.852 -0.0427 -0.2232  0.0539
  610loPI   PO4 9748   9.354   9.350  10.337  0.2234 -0.1287 -0.0584
  610loPI   GL1 9749   9.370   9.283   9.954  0.1453 -0.0307 -0.0404
  610loPI   GL2 9750   9.355   8.892   9.948  0.2589 -0.0365  0.0896
  610loPI   C1A 9751   9.343   9.558   9.706 -0.1746  0.0083  0.1543
  610loPI   C2A 9752   9.295   9.710   9.277 -0.1206  0.2128  0.0571
  610loPI   C3A 9753   9.286   9.741   8.784  0.2064  0.1132  0.4668
  610loPI   C4A 9754   9.258   9.828   8.353  0.1406  0.0991 -0.1840
  610loPI   C5A 9755   9.267  10.140   8.021  0.2276 -0.0270 -0.0158
  610loPI   C6A 9756   9.672  10.205   7.809  0.0269 -0.1277  0.1199
  610loPI   C1B 9757   9.320   8.862   9.561 -0.1186  0.1484  0.2223
  610loPI   C2B 9758   9.326   8.877   9.020 -0.1863  0.2917  0.0309
  610loPI   C3B 9759   9.262   8.922   8.623 -0.0233 -0.0006  0.2372
  610loPI   C4B 9760   9.178   8.699   8.168  0.1671 -0.1053 -0.2084
  611loPI    C1 9761  10.225   4.348   9.973 -0.1807  0.0876 -0.1036
  611loPI    C2 9762  10.253   4.676  10.200 -0.2158  0.1033 -0.1218
  611loPI    C3 9763  10.067   4.351  10.341  0.2555 -0.0824  0.0918
  611loPI   PO4 9764  10.474   4.362   9.864 -0.1748 -0.0254  0.1361
  611loPI   GL1 9765  10.639   4.107   9.609  0.2507 -0.1449  0.1865
  611loPI   GL2 9766  10.274   3.967   9.623  0.3160 -0.0086  0.1628
  611loPI   C1A 9767  10.696   4.286   9.124 -0.0017 -0.0416  0.2888
  611loPI   C2A 9768  10.700   4.105   8.813 -0.3378  0.1110  0.3081
  611loPI   C3A 9769  10.752   4.022   8.351 -0.1827 -0.1164  0.0786
  611loPI   C4A 9770  10.703   4.082   7.913 -0.0109 -0.2195 -0.0833
  611loPI   C5A 9771  10.561   4.454   7.651 -0.4132 -0.0364  0.1064
  611loPI   C6A 9772  10.806   4.716   7.489  0.0354  0.2422  0.2719
  611loPI   C1B 9773  10.325   3.849   9.276  0.0263 -0.2257  0.2845
  611loPI   C2B 9774  10.364   3.755   8.853 -0.0512  0.2722 -0.0626
  611loPI   C3B 9775  10.375   3.714   8.504  0.1198 -0.2255 -0.0211
  611loPI   C4B 9776  10.400   3.695   8.081  0.1276  0.2677 -0.0933
  612loPI    C1 9777  17.146  10.012  10.926 -0.0608 -0.0290 -0.0924
  612loPI    C2 9778  16.937   9.768  11.164  0.0676 -0.0420  0.0081
  612loPI    C3 9779  17.047  10.130  11.295  0.2166 -0.0844  0.0026
  612loPI   PO4 9780  16.893   9.869  10.637 -0.0753 -0.2683  0.0325
  612loPI   GL1 9781  16.662   9.988  10.281  0.1572 -0.2829 -0.0432
  612loPI   GL2 9782  16.449  10.137  10.084 -0.0966  0.0856  0.2558
  612loPI   C1A 9783  16.655   9.751   9.879  0.2686  0.0754 -0.0135
  612loPI   C2A 9784  16.710   9.808   9.461  0.0063 -0.0435 -0.0213
  612loPI   C3A 9785  16.769   9.766   8.983 -0.1571  0.0298  0.1697
  612loPI   C4A 9786  16.806   9.794   8.525  0.0283  0.4010 -0.2640
  612loPI   C5A 9787  16.907   9.934   8.140  0.0019 -0.1560 -0.1004
  612loPI   C6A 9788  16.903  10.360   7.894 -0.1980 -0.2018 -0.0224
  612loPI   C1B 9789  16.485  10.177   9.700  0.2691  0.1697 -0.1531
  612loPI   C2B 9790  16.413  10.110   9.289 -0.0975  0.1331  0.2222
  612loPI   C3B 9791  16.484  10.230   8.892  0.2110 -0.0860 -0.0025
  612loPI   C4B 9792  16.469  10.252   8.515  0.3415 -0.0299  0.0358
  613loPI    C1 9793   9.769   5.633  10.183  0.5035  0.1219 -0.0213
  613loPI    C2 9794   9.773   5.481  10.553 -0.0675  0.0745 -0.0261
  613loPI    C3 9795   9.644   5.854  10.491  0.0470  0.0902 -0.1760
  613loPI   PO4 9796   9.720   5.515  10.018  0.1503 -0.1252  0.0923
  613loPI   GL1 9797   9.672   5.638   9.532 -0.2274 -0.0981  0.1030
  613loPI   GL2 9798   9.863   5.466   9.446  0.2125  0.2025  0.0311
  613loPI   C1A 9799   9.725   5.912   9.181  0.0595  0.0460  0.1135
  613loPI   C2A 9800   9.674   5.971   8.766 -0.1471 -0.0621  0.0725
  613loPI   C3A 9801   9.589   6.267   8.344 -0.5104 -0.3802  0.3164
  613loPI   C4A 9802   9.926   6.266   8.090 -0.1090 -0.2560  0.0659
  613loPI   C5A 9803  10.163   5.954   7.858 -0.1713 -0.0069  0.0260
  613loPI   C6A 9804  10.256   5.535   7.747  0.1522  0.0662  0.1489
  613loPI   C1B 9805   9.883   5.282   9.033  0.0313 -0.0476  0.2631
  613loPI   C2B 9806   9.861   5.115   8.594 -0.0753  0.0742  0.0746
  613loPI   C3B 9807   9.554   4.869   8.525 -0.3943  0.0692 -0.1499
  613loPI   C4B 9808   9.335   4.618   8.254  0.1156  0.5437  0.0676
  614loPI    C1 9809  13.907  15.093  10.822 -0.0486 -0.0606  0.0319
  614loPI    C2 9810  13.544  15.005  10.678 -0.0399 -0.0118 -0.0201
  614loPI    C3 9811  13.585  15.287  10.958 -0.0559 -0.1010  0.0728
  614loPI   PO4 9812  14.059  15.219  10.622 -0.4253 -0.0336  0.1206
  614loPI   GL1 9813  14.212  15.303  10.271 -0.1575 -0.0035  0.0672
  614loPI   GL2 9814  14.272  14.992  10.105 -0.4274 -0.0357 -0.1349
  614loPI   C1A 9815  14.360  15.527   9.990 -0.3602 -0.3701 -0.3273
  614loPI   C2A 9816  14.478  15.578   9.501  0.2738  0.3994 -0.1285
  614loPI   C3A 9817  14.425  15.591   9.099 -0.1470 -0.0220  0.1576
  614loPI   C4A 9818  14.410  15.506   8.691 -0.2248  0.2841  0.2090
  614loPI   C5A 9819  14.445  15.186   8.392 -0.0821 -0.0592 -0.4513
  614loPI   C6A 9820  14.413  14.893   8.042 -0.1362  0.2690  0.0102
  614loPI   C1B 9821  14.201  15.182   9.707 -0.0127  0.0633 -0.0554
  614loPI   C2B 9822  14.095  15.107   9.271 -0.0088  0.0245 -0.1724
  614loPI   C3B 9823  13.664  15.098   9.007  0.1043  0.1441 -0.1044
  614loPI   C4B 9824  13.663  14.970   8.658  0.2926  0.0748  0.1751
  615loPI    C1 9825   9.655  16.685  10.373 -0.0776 -0.0691 -0.0778
  615loPI    C2 9826   9.322  16.695  10.594  0.0368  0.0293  0.0933
  615loPI    C3 9827   9.675  16.628  10.768  0.1238  0.0670 -0.0669
  615loPI   PO4 9828   9.604  16.507  10.099 -0.0276  0.0702 -0.0123
  615loPI   GL1 9829   9.486  16.423   9.746 -0.2304 -0.2488  0.1825
  615loPI   GL2 9830   9.361  16.599   9.513 -0.1143 -0.0579  0.0577
  615loPI   C1A 9831   9.219  16.124   9.378  0.0703  0.0467 -0.2531
  615loPI   C2A 9832   9.277  16.018   8.902 -0.2418  0.1630  0.0149
  615loPI   C3A 9833   9.340  15.874   8.532  0.0929 -0.1164  0.3235
  615loPI   C4A 9834   9.216  15.835   8.023 -0.4906  0.2628 -0.3477
  615loPI   C5A 9835   9.356  16.004   7.702  0.0361  0.0911  0.3122
  615loPI   C6A 9836   9.160  16.215   7.344  0.1971 -0.0710 -0.2625
  615loPI   C1B 9837   9.446  16.541   9.158 -0.1491  0.2897 -0.0578
  615loPI   C2B 9838   9.549  16.581   8.773 -0.0528 -0.2376  0.1537
  615loPI   C3B 9839   9.644  16.860   8.410  0.1676 -0.2762  0.1467
  615loPI   C4B 9840  10.081  16.997   8.334 -0.0524 -0.1280 -0.0560
  616loPI    C1 9841   5.127  10.877  10.990  0.0980  0.2542 -0.0459
  616loPI    C2 9842   5.231  10.834  11.373 -0.1223  0.0522 -0.0063
  616loPI    C3 9843   5.064  10.529  11.176  0.1211  0.1079 -0.3065
  616loPI   PO4 9844   4.890  11.111  10.937 -0.0376  0.2599  0.2643
  616loPI   GL1 9845   4.824  11.304  10.567 -0.2033  0.0931  0.3129
  616loPI   GL2 9846   4.980  11.429  10.374  0.2403 -0.0174 -0.2483
  616loPI   C1A 9847   4.581  11.165  10.187  0.1145 -0.1439  0.0956
  616loPI   C2A 9848   4.569  11.012   9.868 -0.0241  0.2602  0.1310
  616loPI   C3A 9849   4.559  11.114   9.373  0.0965  0.0003  0.1575
  616loPI   C4A 9850   4.570  11.039   8.967  0.0029 -0.4774  0.0657
  616loPI   C5A 9851   4.513  11.044   8.542  0.1138  0.1992  0.1720
  616loPI   C6A 9852   4.559  11.387   8.144  0.0411 -0.1302  0.1472
  616loPI   C1B 9853   4.876  11.579  10.056  0.2120 -0.0262  0.3046
  616loPI   C2B 9854   4.792  11.530   9.568  0.0797 -0.0487  0.1042
  616loPI   C3B 9855   4.814  11.482   9.071  0.0611 -0.2277  0.0903
  616loPI   C4B 9856   4.757  11.520   8.602  0.2782 -0.0815 -0.0994
  617loPI    C1 9857  11.116  11.967  10.489 -0.4315  0.1677  0.1567
  617loPI    C2 9858  11.169  12.301  10.702  0.0817  0.0222  0.2716
  617loPI    C3 9859  11.341  12.264  10.343 -0.1418 -0.0411  0.1692
  617loPI   PO4 9860  10.870  11.937  10.452  0.0778 -0.0625 -0.0328
  617loPI   GL1 9861  10.746  11.790  10.011  0.4036 -0.0320  0.3840
  617loPI   GL2 9862  10.728  12.085   9.983  0.0359  0.0001 -0.0509
  617loPI   C1A 9863  10.709  11.631   9.767  0.1490 -0.1684 -0.2324
  617loPI   C2A 9864  10.725  11.605   9.380 -0.0108 -0.1189  0.2977
  617loPI   C3A 9865  10.695  11.563   9.016  0.0341  0.2334  0.4121
  617loPI   C4A 9866  10.743  11.610   8.638 -0.0314 -0.0763  0.0069
  617loPI   C5A 9867  10.659  11.617   8.221 -0.0843  0.2067 -0.1397
  617loPI   C6A 9868  10.513  11.540   7.803  0.1339  0.1713  0.0302
  617loPI   C1B 9869  10.942  12.106   9.607  0.2834  0.0404  0.2407
  617loPI   C2B 9870  10.879  12.055   9.149  0.2580  0.0727 -0.3285
  617loPI   C3B 9871  10.909  12.129   8.790 -0.1949  0.0848 -0.0165
  617loPI   C4B 9872  10.883  12.052   8.310 -0.2429  0.0388  0.0809
  618loPI    C1 9873   3.237  16.281  10.466  0.1012  0.1420 -0.1992
  618loPI    C2 9874   3.042  16.625  10.405  0.0148  0.1526  0.1202
  618loPI    C3 9875   3.152  16.520  10.775  0.0898 -0.1382  0.0183
  618loPI   PO4 9876   3.237  16.180  10.174 -0.1114  0.2212 -0.0614
  618loPI   GL1 9877   3.025  16.037   9.835 -0.0441 -0.0354 -0.4637
  618loPI   GL2 9878   3.315  16.054   9.748 -0.0360  0.1363  0.0043
  618loPI   C1A 9879   2.809  15.929   9.479 -0.0105 -0.2424 -0.0608
  618loPI   C2A 9880   2.781  15.789   9.085 -0.2516 -0.5149 -0.0461
  618loPI   C3A 9881   2.847  15.716   8.582  0.0708 -0.2163 -0.0090
  618loPI   C4A 9882   2.909  15.700   8.256  0.2802 -0.1489  0.0838
  618loPI   C5A 9883   2.775  15.891   7.903  0.1713  0.3634 -0.3764
  618loPI   C6A 9884   2.746  16.340   7.687 -0.0051 -0.1176  0.0730
  618loPI   C1B 9885   3.340  15.943   9.301 -0.1018  0.1294  0.0751
  618loPI   C2B 9886   3.368  15.781   8.796 -0.2359 -0.1871  0.0471
  618loPI   C3B 9887   3.395  15.782   8.358  0.2304  0.1388  0.0375
  618loPI   C4B 9888   3.279  15.806   7.967  0.2378  0.0435  0.0466
  619loPI    C1 9889   1.321   4.201  10.253 -0.2290 -0.1153  0.0629
  619loPI    C2 9890   1.691   4.255  10.395 -0.2200  0.1781 -0.0653
  619loPI    C3 9891   1.374   4.360  10.616 -0.2370 -0.2363  0.1178
  619loPI   PO4 9892   1.335   4.248  10.054  0.1635  0.1165  0.0773
  619loPI   GL1 9893   1.744   4.381   9.898 -0.1293  0.0915 -0.1506
  619loPI   GL2 9894   1.839   4.066   9.932 -0.1066  0.0285 -0.2018
  619loPI   C1A 9895   1.794   4.421   9.433 -0.0367 -0.4281  0.1932
  619loPI   C2A 9896   1.757   4.457   8.998  0.0562  0.1740  0.1951
  619loPI   C3A 9897   1.689   4.405   8.595 -0.0867 -0.3456  0.1312
  619loPI   C4A 9898   1.729   4.239   8.116 -0.1361 -0.1774  0.1081
  619loPI   C5A 9899   1.862   3.944   7.782  0.2442 -0.1787  0.0546
  619loPI   C6A 9900   2.305   3.749   7.732 -0.0422 -0.2127  0.0129
  619loPI   C1B 9901   2.048   4.021   9.554  0.2716 -0.1142 -0.1070
  619loPI   C2B 9902   1.995   4.007   9.140 -0.1637  0.3485  0.0074
  619loPI   C3B 9903   2.009   3.967   8.653 -0.1738 -0.2788  0.3901
  619loPI   C4B 9904   1.861   3.712   8.243  0.2593  0.1147 -0.2342
  620loPI    C1 9905  15.221   3.455  10.432  0.0984  0.0833  0.1517
  620loPI    C2 9906  14.896   3.245  10.535  0.0205  0.2017  0.1490
  620loPI    C3 9907  14.964   3.603  10.701  0.1172  0.2044  0.1039
  620loPI   PO4 9908  15.278   3.307  10.207  0.2088 -0.0689 -0.0105
  620loPI   GL1 9909  15.154   3.263   9.779 -0.0699 -0.2349  0.1362
  620loPI   GL2 9910  15.504   3.406   9.744 -0.2455  0.3523  0.0267
  620loPI   C1A 9911  14.979   3.208   9.401 -0.2788  0.0996 -0.0730
  620loPI   C2A 9912  15.007   3.211   8.980 -0.0971 -0.0357 -0.1695
  620loPI   C3A 9913  15.059   3.299   8.553 -0.1119 -0.1704  0.0175
  620loPI   C4A 9914  15.278   3.170   8.226  0.2424 -0.0476 -0.0087
  620loPI   C5A 9915  15.300   3.292   7.793 -0.1122  0.0632  0.0961
  620loPI   C6A 9916  15.255   3.438   7.339 -0.2382  0.1275  0.3115
  620loPI   C1B 9917  15.499   3.074   9.454  0.1088  0.1263 -0.1234
  620loPI   C2B 9918  15.536   3.117   8.973 -0.2228 -0.1611 -0.1381
  620loPI   C3B 9919  15.591   3.198   8.586 -0.3492  0.2010  0.1795
  620loPI   C4B 9920  15.679   3.454   8.168  0.0866  0.2230  0.0887
  621loPI    C1 9921  14.017  16.939  10.995 -0.0524  0.0530  0.0783
  621loPI    C2 9922  14.348  16.745  11.108 -0.0640  0.0513  0.1101
  621loPI    C3 9923  14.204  17.043  11.333  0.0227  0.1786 -0.0011
  621loPI   PO4 9924  14.029  17.097  10.705  0.0968 -0.2113  0.3508
  621loPI   GL1 9925  13.901  17.131  10.272  0.1427  0.1449  0.2145
  621loPI   GL2 9926  13.968  16.806  10.208  0.0373 -0.1111 -0.0633
  621loPI   C1A 9927  13.673  17.127   9.907 -0.1425 -0.0186  0.0284
  621loPI   C2A 9928  13.680  16.947   9.485 -0.0362  0.0258 -0.1309
  621loPI   C3A 9929  13.713  16.929   9.073  0.1796  0.1559  0.0976
  621loPI   C4A 9930  13.854  16.873   8.672 -0.1418 -0.1788  0.1019
  621loPI   C5A 9931  13.847  16.782   8.255  0.3043 -0.1865 -0.0932
  621loPI   C6A 9932  13.538  16.648   8.058  0.0577  0.1025  0.0410
  621loPI   C1B 9933  13.839  16.621   9.854  0.1871 -0.1815 -0.1353
  621loPI   C2B 9934  13.957  16.473   9.501  0.0537 -0.0598  0.1690
  621loPI   C3B 9935  13.881  16.462   9.073  0.0755 -0.3503  0.0092
  621loPI   C4B 9936  13.994  16.437   8.743 -0.1226 -0.0179  0.2077
  622loPI    C1 9937   5.056   9.130  10.856 -0.0628  0.1394 -0.0431
  622loPI    C2 9938   5.021   8.757  10.994  0.0752  0.1032 -0.1044
  622loPI    C3 9939   5.138   9.050  11.239 -0.0259  0.1053 -0.0580
  622loPI   PO4 9940   4.874   9.185  10.732 -0.2258 -0.1820 -0.0260
  622loPI   GL1 9941   4.825   9.082  10.316  0.3889 -0.0160 -0.0795
  622loPI   GL2 9942   4.991   9.158  10.144 -0.0413  0.0729  0.2363
  622loPI   C1A 9943   4.637   8.765   9.969 -0.1672 -0.1636 -0.2525
  622loPI   C2A 9944   4.614   8.638   9.599 -0.0208  0.0598 -0.1914
  622loPI   C3A 9945   4.667   8.748   9.192  0.1358  0.0167  0.1698
  622loPI   C4A 9946   4.562   8.811   8.811  0.1443  0.2038 -0.2995
  622loPI   C5A 9947   4.593   8.853   8.404 -0.0089 -0.0053 -0.2357
  622loPI   C6A 9948   4.525   8.611   8.104 -0.2816 -0.4068 -0.1598
  622loPI   C1B 9949   4.740   9.252   9.838 -0.0419  0.2251  0.1139
  622loPI   C2B 9950   4.730   9.236   9.470 -0.1975  0.4915  0.0229
  622loPI   C3B 9951   4.765   9.259   9.001 -0.1486  0.2757 -0.0993
  622loPI   C4B 9952   4.736   9.311   8.601  0.3101 -0.2362 -0.2714
  623loPI    C1 9953   4.425  17.954  10.502 -0.0689  0.0713 -0.0124
  623loPI    C2 9954   4.146  18.237  10.553 -0.0044  0.1346 -0.0079
  623loPI    C3 9955   4.136  17.903  10.773 -0.1221  0.1012 -0.0633
  623loPI   PO4 9956   4.433  17.847  10.236 -0.3198 -0.1331 -0.2404
  623loPI   GL1 9957   4.205  17.795   9.824  0.0489 -0.0874  0.1209
  623loPI   GL2 9958   4.172  18.112   9.882  0.2561 -0.1106  0.0773
  623loPI   C1A 9959   4.018  17.758   9.469 -0.2493 -0.1279 -0.1886
  623loPI   C2A 9960   4.147  17.843   9.050  0.0062 -0.1583  0.0322
  623loPI   C3A 9961   4.480  17.708   8.737 -0.0548  0.2011  0.0684
  623loPI   C4A 9962   4.520  17.821   8.349  0.1503  0.1997  0.0098
  623loPI   C5A 9963   4.815  18.013   8.096  0.4472 -0.2319  0.1456
  623loPI   C6A 9964   5.130  18.084   7.891  0.0255 -0.0755  0.1904
  623loPI   C1B 9965   4.326  18.299   9.410  0.2962  0.1954 -0.1703
  623loPI   C2B 9966   4.409  18.317   8.872 -0.0717 -0.1163 -0.1528
  623loPI   C3B 9967   4.184  18.135   8.641 -0.1385 -0.0164 -0.0639
  623loPI   C4B 9968   3.995  18.170   8.251  0.0329 -0.1912  0.4081
  624loPI    C1 9969   7.189  11.091  10.287 -0.1446  0.0698 -0.2585
  624loPI    C2 9970   6.969  10.920  10.575 -0.0176  0.1144 -0.1335
  624loPI    C3 9971   7.125  10.696  10.283 -0.2563  0.0872 -0.2433
  624loPI   PO4 9972   7.080  11.398  10.307 -0.1753  0.1575 -0.1491
  624loPI   GL1 9973   6.961  11.711  10.111 -0.0184 -0.1526  0.1189
  624loPI   GL2 9974   6.621  11.552  10.126  0.2794 -0.0997  0.0337
  624loPI   C1A 9975   6.926  11.544   9.748 -0.1569  0.0707  0.1548
  624loPI   C2A 9976   6.793  11.742   9.301 -0.3746 -0.0251  0.1087
  624loPI   C3A 9977   6.774  11.762   8.910  0.0912 -0.1960  0.0091
  624loPI   C4A 9978   6.695  11.729   8.429 -0.1149 -0.1043  0.0857
  624loPI   C5A 9979   6.753  12.072   8.065 -0.2695 -0.1461 -0.0311
  624loPI   C6A 9980   6.538  12.354   7.819 -0.0475  0.1269  0.0313
  624loPI   C1B 9981   6.409  11.588   9.670 -0.3296  0.0517 -0.2061
  624loPI   C2B 9982   6.285  11.690   9.243 -0.1525  0.0717 -0.2959
  624loPI   C3B 9983   6.294  11.648   8.777 -0.0794 -0.0118  0.0280
  624loPI   C4B 9984   6.144  11.681   8.342 -0.0336 -0.0386 -0.0808
  625loPI    C1 9985   3.340   3.674  10.077  0.2003  0.0913 -0.0485
  625loPI    C2 9986   3.354   3.934  10.381 -0.2119  0.2041 -0.1190
  625loPI    C3 9987   3.297   3.545  10.453  0.2887  0.1414 -0.0208
  625loPI   PO4 9988   3.586   3.715   9.933  0.3478 -0.2036 -0.0978
  625loPI   GL1 9989   3.505   3.766   9.597 -0.0129  0.0724  0.1891
  625loPI   GL2 9990   3.810   3.634   9.417 -0.0124  0.1284 -0.1530
  625loPI   C1A 9991   3.220   4.026   9.444  0.0338 -0.1165 -0.0491
  625loPI   C2A 9992   2.952   4.003   9.130  0.0985  0.0593  0.0011
  625loPI   C3A 9993   2.904   4.314   8.802  0.3766  0.0845  0.1009
  625loPI   C4A 9994   2.655   4.425   8.459 -0.0219  0.1728 -0.0259
  625loPI   C5A 9995   2.515   4.525   8.138  0.1314 -0.2879 -0.0853
  625loPI   C6A 9996   2.713   4.460   7.769  0.0360 -0.0051 -0.1429
  625loPI   C1B 9997   3.886   3.259   9.006  0.3278  0.1788  0.1499
  625loPI   C2B 9998   3.711   3.098   8.587  0.0222 -0.1810 -0.1112
  625loPI   C3B 9999   4.032   3.271   8.213  0.1612  0.3921 -0.0325
  625loPI   C4B10000   4.397   3.414   7.940 -0.1399  0.0178  0.2846
  626loPI    C110001  18.470   1.865  10.505  0.2107 -0.0474 -0.0702
  626loPI    C210002  18.622   1.557  10.710 -0.2146 -0.2473 -0.0440
  626loPI    C310003  18.377   1.816  10.891  0.0562  0.0513 -0.0942
  626loPI   PO410004  18.686   1.993  10.401  0.0861 -0.1961 -0.3116
  626loPI   GL110005  18.646   2.110  10.020  0.1132  0.0186 -0.1673
  626loPI   GL210006  18.346   1.822   9.966 -0.1659  0.1298  0.2133
  626loPI   C1A10007  18.569   2.021   9.617  0.0832  0.0185  0.0852
  626loPI   C2A10008  18.523   2.030   9.166  0.3229 -0.1365  0.0765
  626loPI   C3A10009  18.454   1.983   8.762 -0.1408  0.0643  0.0993
  626loPI   C4A10010  18.544   1.872   8.348 -0.0211 -0.2877 -0.2173
  626loPI   C5A10011  18.370   2.182   8.172 -0.1602  0.1279  0.1215
  626loPI   C6A10012  18.125   2.471   7.926 -0.1449  0.4661  0.0106
  626loPI   C1B10013  18.200   1.791   9.529  0.0711  0.1264 -0.0551
  626loPI   C2B10014  18.237   1.558   9.085 -0.1616  0.2527 -0.3132
  626loPI   C3B10015  18.196   1.566   8.601  0.3423 -0.0804 -0.1875
  626loPI   C4B10016  18.144   1.693   8.127  0.0946  0.1253 -0.2243
  627loPI    C110017   3.957   9.233  10.432 -0.0407  0.0896 -0.0772
  627loPI    C210018   3.627   9.006  10.431 -0.0871  0.1560 -0.2305
  627loPI    C310019   3.681   9.281  10.717 -0.1144  0.0733 -0.1455
  627loPI   PO410020   3.883   9.398  10.218 -0.4688  0.2558  0.1444
  627loPI   GL110021   3.936   9.446   9.850 -0.0238 -0.1245 -0.1002
  627loPI   GL210022   4.282   9.711   9.964  0.0701 -0.0359  0.2368
  627loPI   C1A10023   3.952   9.682   9.465  0.1918  0.0086  0.0007
  627loPI   C2A10024   3.936   9.637   9.117  0.1829  0.0457 -0.0280
  627loPI   C3A10025   3.943   9.696   8.738 -0.4626  0.2981  0.0040
  627loPI   C4A10026   3.925   9.703   8.339  0.1726 -0.1253 -0.0294
  627loPI   C5A10027   3.879   9.323   8.060 -0.0223  0.0085 -0.1580
  627loPI   C6A10028   3.891   9.058   7.734 -0.1950 -0.1457  0.1298
  627loPI   C1B10029   4.418   9.641   9.644  0.0842  0.1370  0.1214
  627loPI   C2B10030   4.457   9.767   9.257  0.0727  0.0547 -0.4026
  627loPI   C3B10031   4.483   9.724   8.873  0.4750  0.0266 -0.0195
  627loPI   C4B10032   4.370   9.692   8.509 -0.3402 -0.1317  0.1863
  628loPI    C110033  15.980   8.509  10.545 -0.1014  0.0331 -0.0108
  628loPI    C210034  15.891   8.297  10.872 -0.1342  0.0548 -0.0056
  628loPI    C310035  15.600   8.480  10.667 -0.0720  0.3565  0.1693
  628loPI   PO410036  16.082   8.381  10.389 -0.3582  0.3468  0.0861
  628loPI   GL110037  16.091   8.280   9.993  0.1574 -0.0016 -0.2479
  628loPI   GL210038  16.397   8.188   9.940 -0.0608 -0.0950  0.1887
  628loPI   C1A10039  16.111   8.452   9.589  0.0185  0.1523  0.0801
  628loPI   C2A10040  16.051   8.422   9.244  0.2634  0.1086 -0.0938
  628loPI   C3A10041  16.135   8.351   8.827  0.3446 -0.0935 -0.2299
  628loPI   C4A10042  16.053   8.416   8.357  0.1739  0.0913 -0.0904
  628loPI   C5A10043  16.128   8.365   8.008 -0.0791 -0.2068 -0.2467
  628loPI   C6A10044  16.040   8.555   7.600 -0.2842 -0.0069 -0.4424
  628loPI   C1B10045  16.511   8.042   9.546 -0.3269 -0.0985  0.1239
  628loPI   C2B10046  16.425   7.993   9.107 -0.1438  0.1732  0.3532
  628loPI   C3B10047  16.436   8.017   8.760 -0.0787  0.2819 -0.0741
  628loPI   C4B10048  16.403   7.986   8.353  0.1272  0.2214 -0.1447
  629loPI    C110049  11.745  16.301   9.799 -0.1077 -0.2720 -0.2333
  629loPI    C210050  11.647  16.296  10.187  0.1624  0.1091 -0.1538
  629loPI    C310051  11.442  16.073   9.925 -0.0791 -0.0840  0.1920
  629loPI   PO410052  11.993  16.494   9.854  0.0288  0.0177 -0.2783
  629loPI   GL110053  12.055  16.699   9.528 -0.0627  0.2584  0.0228
  629loPI   GL210054  12.068  16.389   9.249  0.0434  0.0274  0.1242
  629loPI   C1A10055  11.828  16.900   9.176  0.2781  0.0609 -0.4423
  629loPI   C2A10056  11.884  17.044   8.881 -0.2146  0.0664  0.2471
  629loPI   C3A10057  11.810  17.050   8.500 -0.0172 -0.3545  0.2770
  629loPI   C4A10058  11.659  16.989   8.105 -0.0310 -0.2543  0.2240
  629loPI   C5A10059  11.224  16.867   7.857  0.2054 -0.0773  0.1489
  629loPI   C6A10060  10.754  16.973   7.903 -0.2382 -0.0508 -0.1893
  629loPI   C1B10061  11.745  16.179   8.951  0.0435  0.0329 -0.0634
  629loPI   C2B10062  11.791  16.117   8.448 -0.1516 -0.1891  0.1490
  629loPI   C3B10063  11.800  16.228   8.070  0.0449 -0.1636 -0.0766
  629loPI   C4B10064  12.060  16.256   7.725 -0.2163  0.2791 -0.2445
  630loPI    C110065   0.904   5.578  10.422  0.0312 -0.0924  0.1139
  630loPI    C210066   0.710   5.912  10.525  0.0181 -0.1244  0.1935
  630loPI    C310067   0.700   5.593  10.766  0.0553 -0.1723  0.1318
  630loPI   PO410068   0.808   5.459  10.213  0.0527 -0.0761  0.0168
  630loPI   GL110069   0.780   5.285   9.719  0.1606 -0.0270 -0.1159
  630loPI   GL210070   0.957   5.611   9.766 -0.0592  0.3248  0.1425
  630loPI   C1A10071   0.746   5.440   9.228 -0.2984 -0.0575 -0.1714
  630loPI   C2A10072   0.766   5.632   8.795 -0.2141 -0.2271  0.1356
  630loPI   C3A10073   0.781   5.609   8.401 -0.1776  0.3320 -0.1234
  630loPI   C4A10074   0.875   5.816   8.022  0.3473 -0.1061 -0.1245
  630loPI   C5A10075   1.088   5.501   7.807 -0.0129 -0.0922  0.4651
  630loPI   C6A10076   1.185   5.041   7.859  0.3374 -0.0705  0.1181
  630loPI   C1B10077   0.957   5.818   9.429  0.2624  0.0077  0.0745
  630loPI   C2B10078   0.926   6.049   9.005 -0.2810 -0.0568 -0.1901
  630loPI   C3B10079   0.921   6.082   8.532  0.3167  0.0498 -0.2286
  630loPI   C4B10080   1.019   6.200   8.226 -0.1485 -0.0912  0.1449
  631loPI    C110081   6.475   3.973  10.405 -0.0935 -0.0258 -0.1789
  631loPI    C210082   6.127   4.168  10.426 -0.1013 -0.0509 -0.0666
  631loPI    C310083   6.162   3.804  10.588 -0.0431 -0.0786 -0.1410
  631loPI   PO410084   6.672   4.210  10.273 -0.3657 -0.3107  0.3451
  631loPI   GL110085   6.846   4.063   9.901 -0.1349  0.0136 -0.0201
  631loPI   GL210086   6.563   3.868   9.925  0.0941  0.1308  0.3625
  631loPI   C1A10087   6.888   4.206   9.541  0.1855 -0.1525 -0.1130
  631loPI   C2A10088   6.774   4.131   9.105  0.0801 -0.0007  0.3387
  631loPI   C3A10089   6.560   4.176   8.701  0.0107  0.0338  0.1386
  631loPI   C4A10090   6.431   4.315   8.393  0.0296  0.0806 -0.0116
  631loPI   C5A10091   6.103   4.421   7.969  0.1133 -0.0077 -0.0839
  631loPI   C6A10092   5.816   4.688   7.773  0.2153  0.3209 -0.0582
  631loPI   C1B10093   6.476   3.826   9.428 -0.1648 -0.0586 -0.0559
  631loPI   C2B10094   6.228   4.054   9.149  0.0960 -0.5676  0.1487
  631loPI   C3B10095   6.007   4.307   8.804 -0.0936  0.0123  0.1498
  631loPI   C4B10096   6.041   4.624   8.427  0.0282 -0.3732  0.1715
  632loPI    C110097   0.382  12.287  10.764 -0.0317  0.4099 -0.0548
  632loPI    C210098   0.323  12.292  11.159  0.1114 -0.4550 -0.0016
  632loPI    C310099   0.032  12.167  10.915  0.0221  0.0799 -0.1839
  632loPI   PO410100   0.550  12.157  10.637 -0.3996  0.1299 -0.1436
  632loPI   GL110101   0.643  12.311  10.216  0.6693 -0.4469  0.0735
  632loPI   GL210102   0.581  12.032   9.915  0.1052  0.0128 -0.1544
  632loPI   C1A10103   0.798  12.442   9.779  0.0642 -0.0536 -0.0860
  632loPI   C2A10104   0.822  12.388   9.303  0.0094 -0.0288 -0.1922
  632loPI   C3A10105   0.750  12.396   8.880  0.2275 -0.0709  0.2256
  632loPI   C4A10106   0.742  12.412   8.488  0.1205 -0.3277  0.2263
  632loPI   C5A10107   0.771  12.294   8.110 -0.2732  0.0219 -0.1281
  632loPI   C6A10108   0.787  12.516   7.805 -0.2480 -0.0008 -0.1121
  632loPI   C1B10109   0.518  11.785   9.493  0.0064  0.1639  0.0984
  632loPI   C2B10110   0.642  11.886   9.199 -0.0661  0.1618  0.2711
  632loPI   C3B10111   0.584  11.928   8.811 -0.0072 -0.2704  0.0108
  632loPI   C4B10112   0.545  11.902   8.402  0.3197 -0.3806 -0.1241
  633loPI    C110113   1.429  13.826  10.585 -0.2341 -0.0169  0.1755
  633loPI    C210114   1.577  14.155  10.411  0.0087 -0.1641  0.0982
  633loPI    C310115   1.586  14.118  10.810 -0.1703 -0.0072  0.1184
  633loPI   PO410116   1.318  13.732  10.399  0.2736 -0.1404 -0.0905
  633loPI   GL110117   1.036  13.787  10.118  0.1607 -0.2107  0.1489
  633loPI   GL210118   1.297  13.937   9.919 -0.3335 -0.0062 -0.0277
  633loPI   C1A10119   1.148  13.426   9.795 -0.0463  0.0601  0.3075
  633loPI   C2A10120   1.206  13.318   9.408  0.2247 -0.0887 -0.1571
  633loPI   C3A10121   1.208  13.323   8.973  0.0331  0.0541 -0.0889
  633loPI   C4A10122   1.103  13.312   8.510  0.0651  0.0968  0.1045
  633loPI   C5A10123   1.295  13.301   8.082  0.1077  0.0034 -0.0044
  633loPI   C6A10124   1.708  13.131   8.008  0.2798  0.1778 -0.0982
  633loPI   C1B10125   1.403  13.827   9.491  0.0236 -0.3198 -0.2270
  633loPI   C2B10126   1.375  13.768   9.055 -0.0964 -0.1050  0.2472
  633loPI   C3B10127   1.327  13.745   8.651  0.1846  0.1810  0.2768
  633loPI   C4B10128   1.444  13.712   8.222  0.1788  0.1124 -0.2660
  634loPI    C110129  10.116   0.787  10.339 -0.0897  0.1555  0.1682
  634loPI    C210130  10.162   0.392  10.380  0.0507  0.1362 -0.1442
  634loPI    C310131   9.931   0.594  10.636 -0.0091 -0.1443  0.0279
  634loPI   PO410132  10.355   0.862  10.238 -0.0667 -0.4052 -0.1612
  634loPI   GL110133  10.543   0.853   9.771 -0.0320  0.3934  0.0712
  634loPI   GL210134  10.834   0.893   9.691  0.0724  0.0287  0.0986
  634loPI   C1A10135  10.575   0.869   9.248 -0.0007  0.2154  0.0775
  634loPI   C2A10136  10.606   0.861   8.704 -0.1080 -0.1973  0.0179
  634loPI   C3A10137  10.687   0.855   8.294  0.1340 -0.3455  0.0097
  634loPI   C4A10138  10.735   0.620   7.925  0.3211 -0.0113  0.2520
  634loPI   C5A10139  10.749   0.559   7.500  0.0203 -0.2295  0.1322
  634loPI   C6A10140  10.454   0.218   7.238  0.3178  0.5006  0.0788
  634loPI   C1B10141  11.093   0.734   9.432 -0.3866  0.1183 -0.1839
  634loPI   C2B10142  11.169   0.881   8.943 -0.1046  0.0124  0.0062
  634loPI   C3B10143  11.120   0.959   8.541  0.0505 -0.1143 -0.4405
  634loPI   C4B10144  11.187   0.757   8.120  0.1802  0.1182  0.1393
  635loPI    C110145  13.236   3.358  10.131  0.3481  0.1300  0.0120
  635loPI    C210146  13.341   3.493  10.493  0.2047  0.3106 -0.0124
  635loPI    C310147  13.043   3.669  10.292  0.1715  0.1043 -0.1469
  635loPI   PO410148  13.418   3.136  10.083 -0.0562 -0.3545 -0.1332
  635loPI   GL110149  13.369   2.801   9.834 -0.1443 -0.2596 -0.0181
  635loPI   GL210150  13.096   3.075   9.697 -0.3858  0.1875  0.0277
  635loPI   C1A10151  13.468   2.529   9.499 -0.0503  0.0013  0.2280
  635loPI   C2A10152  13.460   2.485   9.037  0.1505  0.0142 -0.0262
  635loPI   C3A10153  13.258   2.454   8.672  0.1762  0.2364  0.1383
  635loPI   C4A10154  13.279   2.520   8.267 -0.0301 -0.0009 -0.0328
  635loPI   C5A10155  13.391   2.562   7.818 -0.1842 -0.1993 -0.0667
  635loPI   C6A10156  13.185   2.835   7.508  0.2566 -0.1224 -0.1135
  635loPI   C1B10157  13.203   2.981   9.275 -0.1323 -0.2272  0.2414
  635loPI   C2B10158  13.240   2.926   8.900 -0.0875 -0.0636  0.3034
  635loPI   C3B10159  13.091   2.982   8.492 -0.3773  0.0139  0.1920
  635loPI   C4B10160  13.109   2.952   7.954 -0.0923 -0.1007 -0.2092
  636loPI    C110161   9.637   6.078  10.034  0.0704 -0.1092 -0.0259
  636loPI    C210162   9.469   6.438   9.985  0.2656 -0.0288 -0.1163
  636loPI    C310163   9.569   6.312  10.351  0.3061  0.0595 -0.0968
  636loPI   PO410164   9.495   5.980   9.811 -0.0731 -0.3494 -0.1122
  636loPI   GL110165   9.406   6.184   9.474 -0.3394 -0.1963 -0.2624
  636loPI   GL210166   9.250   6.460   9.453 -0.2113  0.2739 -0.2671
  636loPI   C1A10167   9.576   6.393   9.083 -0.1281 -0.0777 -0.0493
  636loPI   C2A10168   9.666   6.582   8.720  0.0333  0.1336 -0.0465
  636loPI   C3A10169   9.791   6.707   8.243  0.0867 -0.5636 -0.2058
  636loPI   C4A10170   9.729   6.719   7.811  0.1130 -0.1794 -0.0211
  636loPI   C5A10171   9.684   6.959   7.541  0.3213 -0.0436 -0.1898
  636loPI   C6A10172  10.044   7.237   7.467  0.0591  0.0705  0.1968
  636loPI   C1B10173   9.033   6.623   9.058  0.0990 -0.2279  0.3094
  636loPI   C2B10174   9.235   6.809   8.671  0.0792  0.0437 -0.0299
  636loPI   C3B10175   9.318   6.766   8.186 -0.1222  0.5063  0.1248
  636loPI   C4B10176   9.393   7.159   7.940  0.0451  0.0345 -0.1969
  637loPI    C110177   2.262  15.819  10.258  0.0405 -0.0603  0.1181
  637loPI    C210178   2.340  16.207  10.318 -0.0423 -0.0598  0.2257
  637loPI    C310179   2.351  15.951  10.625 -0.0923 -0.1244  0.1740
  637loPI   PO410180   2.169  15.791  10.095  0.1185 -0.1224 -0.2570
  637loPI   GL110181   1.985  15.874   9.792  0.0917 -0.1121 -0.0767
  637loPI   GL210182   2.148  16.205   9.831 -0.2567 -0.1432  0.1281
  637loPI   C1A10183   2.291  15.825   9.433 -0.1921  0.3874  0.1331
  637loPI   C2A10184   2.286  15.735   9.026 -0.0899  0.2603  0.1533
  637loPI   C3A10185   2.268  15.724   8.566 -0.0532 -0.0591  0.0193
  637loPI   C4A10186   2.140  15.753   8.090  0.1225  0.1369 -0.0806
  637loPI   C5A10187   1.985  15.410   7.892 -0.1767  0.0743 -0.0908
  637loPI   C6A10188   1.645  15.386   7.820  0.0764 -0.0569  0.3608
  637loPI   C1B10189   2.478  16.296   9.600 -0.1449 -0.1171 -0.1152
  637loPI   C2B10190   2.587  16.208   9.147 -0.0912  0.1963  0.0970
  637loPI   C3B10191   2.590  16.107   8.727  0.0740 -0.1056 -0.0642
  637loPI   C4B10192   2.525  16.065   8.329 -0.2833 -0.1639  0.1238
  638loPI    C110193   8.154   5.191  10.141  0.2759  0.2103 -0.0700
  638loPI    C210194   8.426   5.045  10.395 -0.2309 -0.1417  0.2895
  638loPI    C310195   8.156   5.311  10.522  0.0423  0.3430 -0.1087
  638loPI   PO410196   8.289   5.134   9.874  0.1098  0.0613  0.0394
  638loPI   GL110197   8.499   4.951   9.569  0.0457  0.0365  0.1636
  638loPI   GL210198   8.284   4.741   9.560 -0.2502 -0.2211  0.0530
  638loPI   C1A10199   8.579   4.892   9.147 -0.0949 -0.2660 -0.1113
  638loPI   C2A10200   8.462   4.869   8.698 -0.2665 -0.4509  0.0797
  638loPI   C3A10201   8.417   4.816   8.325 -0.2218 -0.1898  0.0192
  638loPI   C4A10202   8.167   4.694   7.991  0.1064  0.1639 -0.1810
  638loPI   C5A10203   8.070   4.603   7.697 -0.0887  0.2367 -0.0270
  638loPI   C6A10204   8.178   4.168   7.484  0.0637  0.1279  0.1637
  638loPI   C1B10205   8.091   5.037   9.148 -0.2821  0.1481  0.0550
  638loPI   C2B10206   8.057   5.071   8.729 -0.1073 -0.1251  0.2469
  638loPI   C3B10207   7.917   5.071   8.323  0.1443  0.0351  0.4202
  638loPI   C4B10208   8.266   5.218   8.100 -0.1655 -0.0423  0.0332
  639loPI    C110209  11.001   7.811  10.230 -0.2551 -0.0428  0.0465
  639loPI    C210210  10.920   7.481  10.441 -0.0072 -0.0428  0.1454
  639loPI    C310211  10.854   7.841  10.601 -0.0793 -0.0434  0.1174
  639loPI   PO410212  11.201   7.694  10.089  0.0385  0.0745  0.2890
  639loPI   GL110213  11.485   7.597   9.730 -0.1120 -0.0707  0.0494
  639loPI   GL210214  11.541   7.879   9.661  0.0551 -0.1541 -0.1163
  639loPI   C1A10215  11.291   7.532   9.292 -0.0120  0.1004 -0.1404
  639loPI   C2A10216  11.233   7.538   8.886 -0.0748 -0.2173  0.1449
  639loPI   C3A10217  11.598   7.601   8.561  0.3837  0.4413  0.1991
  639loPI   C4A10218  11.767   7.693   8.156 -0.0967  0.0252 -0.3021
  639loPI   C5A10219  11.595   7.922   7.737  0.1728  0.0371  0.1203
  639loPI   C6A10220  11.442   8.171   7.534 -0.0360 -0.1927  0.1353
  639loPI   C1B10221  11.391   8.000   9.200  0.2004 -0.0661  0.1191
  639loPI   C2B10222  11.418   8.118   8.747 -0.5022 -0.1620 -0.0102
  639loPI   C3B10223  11.415   8.052   8.250  0.1092 -0.1091  0.0204
  639loPI   C4B10224  11.138   8.037   7.905  0.1429 -0.1333  0.0060
  640loPI    C110225   0.209   8.911  10.823  0.0781 -0.2787  0.0583
  640loPI    C210226   0.537   9.105  10.944 -0.0983 -0.0030  0.1041
  640loPI    C310227   0.334   8.875  11.201 -0.0280 -0.0514  0.1166
  640loPI   PO410228   0.055   9.094  10.745  0.0826 -0.0568 -0.0544
  640loPI   GL110229  -0.103   9.267  10.383 -0.1905  0.0704 -0.3854
  640loPI   GL210230  -0.352   8.935  10.414 -0.1573 -0.3925 -0.0441
  640loPI   C1A10231  -0.022   9.471   9.988  0.0348  0.3568 -0.3511
  640loPI   C2A10232  -0.278   9.532   9.548 -0.0405  0.0125  0.0564
  640loPI   C3A10233  -0.398   9.492   9.149 -0.1266 -0.1950  0.0790
  640loPI   C4A10234  -0.496   9.542   8.765 -0.3700  0.0396  0.1848
  640loPI   C5A10235  -0.520   9.809   8.398  0.3847 -0.2514  0.2081
  640loPI   C6A10236  -0.661  10.131   8.130 -0.0298 -0.2396 -0.0307
  640loPI   C1B10237  -0.170   8.976   9.976  0.0239  0.0763  0.0843
  640loPI   C2B10238   0.035   9.123   9.558  0.2212 -0.3298  0.1331
  640loPI   C3B10239  -0.126   9.047   9.158 -0.1497 -0.0014 -0.0949
  640loPI   C4B10240  -0.124   9.097   8.695  0.2334 -0.1687 -0.4458
  641loPI    C110241   7.883   8.690  10.389 -0.1763 -0.2423  0.0056
  641loPI    C210242   8.231   8.706  10.585  0.0051 -0.1881 -0.3143
  641loPI    C310243   7.906   8.559  10.766  0.0843  0.1740  0.1414
  641loPI   PO410244   7.942   8.804  10.166  0.1393 -0.0880  0.1240
  641loPI   GL110245   7.887   9.243   9.948 -0.1001 -0.0315 -0.2396
  641loPI   GL210246   7.690   9.065   9.789 -0.1823  0.0601 -0.2994
  641loPI   C1A10247   8.127   9.368   9.757 -0.1579  0.0397 -0.0756
  641loPI   C2A10248   8.300   9.625   9.462 -0.0332  0.0632  0.0523
  641loPI   C3A10249   8.325   9.687   9.064 -0.2511  0.0675 -0.0963
  641loPI   C4A10250   8.278   9.635   8.566 -0.0282 -0.1220  0.2081
  641loPI   C5A10251   8.464   9.557   8.089  0.0410  0.1541 -0.1494
  641loPI   C6A10252   8.313   9.450   7.617 -0.1865 -0.2204 -0.0464
  641loPI   C1B10253   7.894   9.145   9.356 -0.1363 -0.3854  0.1639
  641loPI   C2B10254   8.022   9.237   8.962  0.2795 -0.1501  0.2420
  641loPI   C3B10255   8.036   9.136   8.583  0.3247 -0.0723 -0.1280
  641loPI   C4B10256   7.837   8.804   8.510 -0.2409  0.0605 -0.1211
  642loPI    C110257  15.021   0.335  10.516  0.2979 -0.0581  0.0756
  642loPI    C210258  14.882   0.679  10.366  0.3050 -0.1179 -0.0701
  642loPI    C310259  14.949   0.644  10.759  0.2007  0.0114 -0.0403
  642loPI   PO410260  15.218   0.222  10.364  0.3862 -0.2108  0.2052
  642loPI   GL110261  15.267   0.138   9.969  0.0362  0.3048  0.0888
  642loPI   GL210262  14.880   0.185   9.986 -0.1691  0.0549  0.0500
  642loPI   C1A10263  15.422   0.011   9.656 -0.0344  0.1283  0.0315
  642loPI   C2A10264  15.441   0.001   9.187  0.1494  0.0459 -0.2494
  642loPI   C3A10265  15.507  -0.036   8.735  0.0368 -0.1401 -0.0258
  642loPI   C4A10266  15.461  -0.018   8.309 -0.1797 -0.0976  0.0256
  642loPI   C5A10267  15.302  -0.025   7.850 -0.1317  0.1943 -0.1537
  642loPI   C6A10268  15.240   0.084   7.473 -0.2017 -0.0236  0.0100
  642loPI   C1B10269  14.885   0.066   9.587  0.2336 -0.1247 -0.0766
  642loPI   C2B10270  14.975   0.071   9.137  0.0209 -0.1677  0.1687
  642loPI   C3B10271  15.016   0.129   8.719 -0.1745 -0.4008 -0.0329
  642loPI   C4B10272  14.901   0.052   8.268  0.1489 -0.1771 -0.0899
  643loPI    C110273   4.287   0.950  10.305 -0.0583 -0.1010  0.0002
  643loPI    C210274   3.955   0.925  10.527 -0.0254  0.0679  0.0701
  643loPI    C310275   4.305   1.012  10.699  0.0933 -0.3039  0.0269
  643loPI   PO410276   4.182   1.063  10.085 -0.1178  0.3914 -0.2244
  643loPI   GL110277   4.094   0.877   9.739 -0.1161  0.2053  0.1219
  643loPI   GL210278   4.413   0.774   9.513  0.3249  0.3019 -0.1303
  643loPI   C1A10279   3.912   1.115   9.356 -0.0766 -0.1790 -0.1392
  643loPI   C2A10280   3.903   1.270   8.897 -0.1286  0.4059  0.1633
  643loPI   C3A10281   4.079   1.356   8.442  0.0322 -0.0270 -0.2223
  643loPI   C4A10282   4.369   1.310   8.103  0.1195  0.0911  0.0115
  643loPI   C5A10283   4.513   1.648   7.883 -0.1975  0.1720  0.2931
  643loPI   C6A10284   4.702   2.046   7.958  0.0522 -0.0400 -0.2061
  643loPI   C1B10285   4.238   0.848   9.045 -0.0666 -0.4462  0.2640
  643loPI   C2B10286   4.027   0.801   8.705 -0.0502  0.1810  0.3639
  643loPI   C3B10287   3.838   0.626   8.375  0.1188  0.0879  0.0274
  643loPI   C4B10288   3.931   0.471   8.045 -0.1764  0.0409 -0.0581
  644loPI    C110289  12.794  16.387  10.398  0.0840 -0.0927  0.0238
  644loPI    C210290  12.544  16.289  10.694 -0.0502  0.1414 -0.0104
  644loPI    C310291  12.869  16.508  10.772  0.0145  0.0436 -0.0058
  644loPI   PO410292  12.599  16.185  10.230 -0.0652  0.1428  0.1299
  644loPI   GL110293  12.740  16.074   9.817  0.0300  0.0417 -0.0087
  644loPI   GL210294  13.029  16.028   9.848 -0.1999 -0.1909 -0.3614
  644loPI   C1A10295  12.588  15.926   9.453 -0.1097  0.1020 -0.1031
  644loPI   C2A10296  12.540  16.119   9.100 -0.2551  0.1480  0.3785
  644loPI   C3A10297  12.261  16.053   8.722 -0.0154 -0.1812 -0.1259
  644loPI   C4A10298  12.275  16.209   8.211  0.1900 -0.2070 -0.1042
  644loPI   C5A10299  12.647  16.275   7.877 -0.0518 -0.0192  0.0788
  644loPI   C6A10300  12.868  15.909   7.672 -0.1181  0.0239 -0.4580
  644loPI   C1B10301  13.049  16.073   9.417  0.1442  0.0447 -0.4143
  644loPI   C2B10302  12.966  15.890   8.982 -0.0908  0.0093  0.1395
  644loPI   C3B10303  13.135  16.051   8.542 -0.2049 -0.1911  0.0200
  644loPI   C4B10304  13.072  16.442   8.350 -0.1754  0.4082  0.1352
  645loPI    C110305   5.948  15.780  10.656 -0.0115 -0.0730  0.2278
  645loPI    C210306   5.695  15.755  10.347  0.1651  0.0513  0.0704
  645loPI    C310307   5.566  15.889  10.701  0.0211  0.1543 -0.0202
  645loPI   PO410308   6.161  15.816  10.519 -0.2397  0.1273 -0.0923
  645loPI   GL110309   6.309  15.618  10.106  0.1593 -0.1036 -0.1763
  645loPI   GL210310   6.053  15.504  10.119  0.0334 -0.0346  0.3589
  645loPI   C1A10311   6.367  15.677   9.681 -0.1121  0.1407  0.2817
  645loPI   C2A10312   6.589  15.880   9.333 -0.2510  0.3243 -0.1290
  645loPI   C3A10313   6.750  15.567   8.960 -0.0787  0.1816  0.1507
  645loPI   C4A10314   6.735  15.307   8.564  0.1411  0.1911  0.3651
  645loPI   C5A10315   6.485  15.329   8.095  0.0970  0.2877 -0.2718
  645loPI   C6A10316   6.339  14.904   7.834 -0.3231  0.1400 -0.0079
  645loPI   C1B10317   6.060  15.292   9.662  0.1638  0.0602 -0.3215
  645loPI   C2B10318   5.859  15.115   9.214  0.0337 -0.2273 -0.1423
  645loPI   C3B10319   5.693  15.211   8.806 -0.4950 -0.2810 -0.1646
  645loPI   C4B10320   5.691  15.156   8.358  0.1223 -0.0470  0.1403
  646loPI    C110321   0.630  14.843  10.536  0.1483 -0.0460 -0.1904
  646loPI    C210322   1.012  14.731  10.496  0.1900  0.0285 -0.0104
  646loPI    C310323   0.906  14.976  10.794 -0.0518 -0.2438  0.1320
  646loPI   PO410324   0.528  14.787  10.310  0.1358  0.0791  0.0430
  646loPI   GL110325   0.460  14.631   9.914 -0.3999  0.0395 -0.0009
  646loPI   GL210326   0.183  14.567   9.903 -0.0892 -0.1066 -0.0895
  646loPI   C1A10327   0.544  14.272   9.629  0.0272 -0.0934 -0.1384
  646loPI   C2A10328   0.538  14.212   9.180  0.6228  0.0957 -0.2210
  646loPI   C3A10329   0.581  14.255   8.757 -0.3081 -0.0562 -0.0923
  646loPI   C4A10330   0.480  14.211   8.382 -0.0497  0.0093 -0.0244
  646loPI   C5A10331   0.391  14.180   7.928 -0.0476 -0.0927  0.0592
  646loPI   C6A10332   0.451  14.472   7.591 -0.1461  0.0601 -0.0859
  646loPI   C1B10333   0.238  14.536   9.414 -0.2060 -0.0492 -0.2287
  646loPI   C2B10334   0.285  14.582   9.001  0.0672 -0.1823 -0.0624
  646loPI   C3B10335   0.316  14.608   8.567  0.0262 -0.3721  0.3167
  646loPI   C4B10336   0.333  14.644   8.063  0.1342  0.1374  0.1930
  647loPI    C110337   5.125  10.438  10.710 -0.1389 -0.1849 -0.2506
  647loPI    C210338   4.827  10.196  10.823 -0.0396 -0.2014 -0.0171
  647loPI    C310339   5.199  10.129  10.954 -0.0285  0.1361  0.1333
  647loPI   PO410340   5.149  10.450  10.508  0.0287  0.4335 -0.2542
  647loPI   GL110341   4.984  10.175  10.245  0.2672 -0.0532  0.1510
  647loPI   GL210342   4.675  10.454  10.238  0.1394  0.3076  0.1245
  647loPI   C1A10343   5.192  10.126   9.779 -0.0418 -0.0990  0.3523
  647loPI   C2A10344   5.196  10.117   9.396  0.1741  0.2338  0.1350
  647loPI   C3A10345   5.170  10.132   9.014  0.1333 -0.1270  0.1062
  647loPI   C4A10346   5.104  10.139   8.541  0.0575 -0.0889 -0.1692
  647loPI   C5A10347   5.023  10.126   8.107 -0.0528 -0.2128 -0.0241
  647loPI   C6A10348   4.931   9.880   7.717 -0.2625  0.1369 -0.0690
  647loPI   C1B10349   4.915  10.588   9.908 -0.0375  0.0433 -0.0346
  647loPI   C2B10350   4.963  10.600   9.434 -0.0095 -0.0508  0.0650
  647loPI   C3B10351   4.891  10.664   9.104 -0.0530 -0.0982 -0.0908
  647loPI   C4B10352   4.839  10.684   8.608  0.1932  0.0134  0.1187
  648loPI    C110353  16.036   3.434  10.568  0.1494  0.2360  0.0882
  648loPI    C210354  15.899   3.662  10.867 -0.1222 -0.1879  0.2978
  648loPI    C310355  15.656   3.400  10.688  0.0844 -0.0599 -0.1879
  648loPI   PO410356  16.193   3.645  10.404  0.0670 -0.1494 -0.1964
  648loPI   GL110357  16.111   3.785  10.038  0.3513 -0.1208 -0.1837
  648loPI   GL210358  15.815   3.868   9.916 -0.3633 -0.4570  0.0714
  648loPI   C1A10359  16.326   3.939   9.692  0.2841  0.2664 -0.4220
  648loPI   C2A10360  16.560   3.958   9.237 -0.2287  0.1303  0.1761
  648loPI   C3A10361  16.775   3.688   8.932  0.0968  0.1663 -0.0070
  648loPI   C4A10362  16.858   3.661   8.476 -0.4348  0.0959 -0.0792
  648loPI   C5A10363  16.753   3.836   8.065  0.0850 -0.3112 -0.3031
  648loPI   C6A10364  16.803   4.199   7.793  0.1114 -0.0729  0.2555
  648loPI   C1B10365  15.881   3.666   9.539 -0.0504 -0.0338 -0.0826
  648loPI   C2B10366  16.076   3.831   9.155  0.1302 -0.2294  0.1598
  648loPI   C3B10367  16.299   4.007   8.802 -0.1308  0.1026 -0.0245
  648loPI   C4B10368  16.454   3.949   8.468 -0.2724 -0.0801  0.2899
  649loPI    C110369   5.517   8.245  10.974 -0.0834  0.0909 -0.2611
  649loPI    C210370   5.310   7.904  11.006 -0.0927  0.1076 -0.1416
  649loPI    C310371   5.680   7.899  10.854 -0.0100  0.0115  0.0583
  649loPI   PO410372   5.286   8.376  10.788 -0.2881  0.4225  0.1146
  649loPI   GL110373   5.113   8.373  10.299  0.1377 -0.1812 -0.1458
  649loPI   GL210374   4.726   8.333  10.170  0.1176 -0.0100 -0.2455
  649loPI   C1A10375   5.221   8.707  10.031 -0.0043  0.1734 -0.0781
  649loPI   C2A10376   5.032   8.856   9.599  0.0457 -0.0508  0.1134
  649loPI   C3A10377   5.117   8.884   9.183 -0.0462  0.0221 -0.2771
  649loPI   C4A10378   5.070   8.910   8.712  0.0259 -0.0216 -0.1879
  649loPI   C5A10379   5.125   8.905   8.297  0.2988  0.1991 -0.0242
  649loPI   C6A10380   4.936   9.080   8.025 -0.0747  0.0480  0.1839
  649loPI   C1B10381   4.910   8.324   9.893  0.1101 -0.1549 -0.0583
  649loPI   C2B10382   5.018   8.396   9.411 -0.2617 -0.0382  0.2110
  649loPI   C3B10383   4.923   8.431   8.963 -0.0477  0.1338 -0.1782
  649loPI   C4B10384   4.984   8.455   8.531  0.0927 -0.0296  0.1427
  650loPI    C110385   6.420  14.206  10.867 -0.0072 -0.1417 -0.0038
  650loPI    C210386   6.326  14.163  11.253  0.2942 -0.0864  0.0788
  650loPI    C310387   6.668  14.342  11.150  0.1259  0.0723 -0.2187
  650loPI   PO410388   6.339  13.970  10.717  0.2876  0.0081 -0.1089
  650loPI   GL110389   6.235  14.056  10.284  0.2061  0.0734  0.2815
  650loPI   GL210390   6.495  14.038  10.063 -0.0358  0.0112 -0.1841
  650loPI   C1A10391   5.936  14.047   9.957  0.0204  0.0890 -0.3220
  650loPI   C2A10392   5.885  14.019   9.672 -0.1126 -0.1459 -0.1720
  650loPI   C3A10393   5.882  13.813   9.289  0.1489 -0.2142  0.2520
  650loPI   C4A10394   5.989  13.833   8.843  0.0942 -0.2531 -0.0616
  650loPI   C5A10395   5.957  13.819   8.296 -0.0720 -0.3083  0.2176
  650loPI   C6A10396   5.557  13.634   8.061 -0.0354  0.0060 -0.0625
  650loPI   C1B10397   6.395  13.998   9.622 -0.1130 -0.1597  0.1613
  650loPI   C2B10398   6.402  13.913   9.129 -0.0624 -0.2913  0.0174
  650loPI   C3B10399   6.468  14.025   8.687 -0.1159  0.3166 -0.1638
  650loPI   C4B10400   6.670  14.233   8.332  0.0247  0.4807 -0.0018
  651loPI    C110401  15.655  10.686  10.471  0.0160 -0.1408  0.0543
  651loPI    C210402  15.259  10.697  10.413  0.0098  0.1418  0.1341
  651loPI    C310403  15.408  10.740  10.781  0.1089 -0.1658  0.1331
  651loPI   PO410404  15.719  10.807  10.223  0.2800  0.0185 -0.3080
  651loPI   GL110405  15.643  10.593   9.866 -0.3134  0.1005 -0.2660
  651loPI   GL210406  15.430  10.246   9.823 -0.3746 -0.1506 -0.0344
  651loPI   C1A10407  15.643  10.605   9.439 -0.2334 -0.1816  0.0616
  651loPI   C2A10408  15.599  10.581   8.909 -0.0802  0.2575 -0.0923
  651loPI   C3A10409  15.633  10.611   8.417  0.0645  0.1157 -0.0123
  651loPI   C4A10410  15.712  10.534   7.966 -0.1818 -0.1723 -0.1267
  651loPI   C5A10411  15.485  10.274   7.617 -0.0634  0.2210 -0.1983
  651loPI   C6A10412  15.571  10.458   7.199 -0.0238  0.1678 -0.2167
  651loPI   C1B10413  15.401  10.185   9.404  0.1356  0.3057  0.0450
  651loPI   C2B10414  15.365  10.152   8.937  0.2807  0.0147 -0.1220
  651loPI   C3B10415  15.400  10.165   8.495 -0.2358  0.0795 -0.3929
  651loPI   C4B10416  15.446  10.096   8.142 -0.0582 -0.0148 -0.2533
  652loPI    C110417   3.767  16.153  10.493  0.1268 -0.0468  0.1017
  652loPI    C210418   3.880  15.988  10.839  0.2754  0.0303  0.0909
  652loPI    C310419   3.547  16.209  10.822  0.0638 -0.2800  0.1009
  652loPI   PO410420   3.807  15.894  10.352 -0.0452 -0.0722  0.0881
  652loPI   GL110421   4.041  15.814  10.140 -0.3647 -0.0638 -0.2584
  652loPI   GL210422   4.366  15.845  10.156  0.2217  0.2813  0.0947
  652loPI   C1A10423   4.127  15.561   9.730 -0.2729  0.4503 -0.0338
  652loPI   C2A10424   4.121  15.521   9.275  0.0273 -0.0189 -0.0685
  652loPI   C3A10425   4.160  15.447   8.901 -0.1017 -0.0565  0.0898
  652loPI   C4A10426   4.292  15.466   8.467 -0.1643  0.0790  0.1815
  652loPI   C5A10427   4.262  15.362   8.128 -0.0552  0.0433 -0.0514
  652loPI   C6A10428   4.060  15.336   7.791  0.2108  0.1940 -0.3199
  652loPI   C1B10429   4.550  15.528   9.875 -0.1741 -0.4351  0.3644
  652loPI   C2B10430   4.575  15.571   9.457 -0.1898  0.0762 -0.2256
  652loPI   C3B10431   4.709  15.517   9.099 -0.0561 -0.1046  0.0140
  652loPI   C4B10432   4.732  15.557   8.661  0.1615  0.0229  0.1865
  653loPI    C110433   8.458   1.897  10.365 -0.0693  0.0395  0.0352
  653loPI    C210434   8.202   1.627  10.512  0.1238 -0.1203  0.0832
  653loPI    C310435   8.322   1.934  10.739 -0.0527 -0.0234  0.0476
  653loPI   PO410436   8.358   1.857  10.078  0.2639 -0.0103  0.1522
  653loPI   GL110437   8.264   1.718   9.665 -0.0078  0.0500 -0.1450
  653loPI   GL210438   8.027   1.404   9.542 -0.1202  0.2311 -0.2383
  653loPI   C1A10439   8.263   1.673   9.159  0.1937 -0.0096  0.0452
  653loPI   C2A10440   8.348   1.590   8.729 -0.1270  0.1201 -0.0351
  653loPI   C3A10441   8.510   1.546   8.306  0.1692  0.1656 -0.4230
  653loPI   C4A10442   8.855   1.468   8.259  0.1601  0.1088  0.1688
  653loPI   C5A10443   8.996   1.523   7.781  0.0106 -0.0255  0.1784
  653loPI   C6A10444   9.083   1.725   7.304 -0.0341  0.1880 -0.2206
  653loPI   C1B10445   7.985   1.280   9.029  0.0019  0.1269 -0.0849
  653loPI   C2B10446   8.038   1.116   8.650 -0.0594 -0.3874  0.0786
  653loPI   C3B10447   7.919   1.302   8.276 -0.0476 -0.0904  0.0380
  653loPI   C4B10448   7.607   1.048   7.996  0.0212 -0.1199 -0.1864
  654loPI    C110449  11.667  12.253  10.713  0.1424  0.0158 -0.0162
  654loPI    C210450  11.495  12.363  11.057 -0.0949 -0.1089 -0.0926
  654loPI    C310451  11.850  12.516  10.953 -0.1433  0.1283  0.0829
  654loPI   PO410452  11.573  11.956  10.692 -0.0223 -0.0332 -0.0653
  654loPI   GL110453  11.550  11.811  10.250 -0.1641  0.0291  0.0386
  654loPI   GL210454  11.763  11.705   9.939  0.0758  0.1529 -0.2967
  654loPI   C1A10455  11.444  12.121   9.843 -0.1532 -0.2255  0.1932
  654loPI   C2A10456  11.495  12.175   9.460  0.0691 -0.1361 -0.1134
  654loPI   C3A10457  11.427  12.090   8.998  0.1235 -0.0607  0.0568
  654loPI   C4A10458  11.461  12.191   8.574 -0.1398  0.4745  0.0849
  654loPI   C5A10459  11.567  12.124   8.131  0.0871  0.1802 -0.1267
  654loPI   C6A10460  11.957  11.980   7.988  0.0843 -0.2452 -0.0546
  654loPI   C1B10461  11.753  11.790   9.618  0.0368 -0.0203 -0.1320
  654loPI   C2B10462  11.743  11.738   9.214  0.0157 -0.0413  0.1037
  654loPI   C3B10463  11.742  11.711   8.766  0.1221  0.3512  0.3331
  654loPI   C4B10464  11.797  11.681   8.336 -0.0683 -0.1647  0.1128
  655loPI    C110465   1.392   7.941  10.518  0.1412 -0.0170 -0.1064
  655loPI    C210466   1.570   8.131  10.822  0.1660 -0.0202 -0.1190
  655loPI    C310467   1.468   7.746  10.858  0.1553 -0.0165 -0.1094
  655loPI   PO410468   1.522   8.112  10.274 -0.1747  0.0758 -0.1279
  655loPI   GL110469   1.689   8.343   9.980 -0.0249 -0.1715  0.1674
  655loPI   GL210470   1.963   8.509   9.956 -0.0412 -0.2693  0.1860
  655loPI   C1A10471   1.423   8.411   9.604 -0.1362  0.1985 -0.1860
  655loPI   C2A10472   1.474   8.432   9.224 -0.1939  0.2142  0.0271
  655loPI   C3A10473   1.492   8.449   8.740 -0.0227 -0.0294  0.0835
  655loPI   C4A10474   1.618   8.362   8.263 -0.0677  0.3348  0.0333
  655loPI   C5A10475   1.711   7.923   8.115  0.2499 -0.1987  0.1174
  655loPI   C6A10476   2.056   7.701   8.159 -0.4096  0.1561  0.0732
  655loPI   C1B10477   1.999   8.454   9.547 -0.2420  0.1797  0.0428
  655loPI   C2B10478   2.059   8.450   9.148  0.1148  0.2015 -0.1592
  655loPI   C3B10479   2.020   8.485   8.704 -0.1194  0.0005  0.0844
  655loPI   C4B10480   2.079   8.608   8.252 -0.1789  0.1356 -0.2413
  656loPI    C110481   3.553  10.960  10.894  0.0821  0.1206  0.0013
  656loPI    C210482   3.393  10.786  11.216 -0.1023  0.1712 -0.0615
  656loPI    C310483   3.782  10.879  11.211 -0.0656  0.0307  0.0862
  656loPI   PO410484   3.488  10.758  10.704  0.1939  0.2961  0.1867
  656loPI   GL110485   3.570  10.642  10.333 -0.1604 -0.0503 -0.2682
  656loPI   GL210486   3.725  10.494  10.119 -0.1742  0.3067  0.1178
  656loPI   C1A10487   3.581  10.961   9.997 -0.0216 -0.0536 -0.3723
  656loPI   C2A10488   3.554  10.956   9.508 -0.2156  0.1485 -0.1045
  656loPI   C3A10489   3.540  10.960   9.046  0.1929 -0.2348 -0.0161
  656loPI   C4A10490   3.521  11.064   8.709 -0.0969 -0.0336  0.1361
  656loPI   C5A10491   3.450  10.989   8.264 -0.1433 -0.0271  0.0853
  656loPI   C6A10492   3.642  10.849   7.917 -0.2726 -0.2132  0.2038
  656loPI   C1B10493   3.864  10.635   9.704 -0.1329 -0.1806  0.0685
  656loPI   C2B10494   3.923  10.520   9.264 -0.1858  0.0590  0.0994
  656loPI   C3B10495   3.776  10.573   8.838  0.0367  0.4201 -0.0959
  656loPI   C4B10496   3.766  10.569   8.362 -0.0735 -0.1079  0.0464
  657loPI    C110497  17.731  15.921  10.550 -0.4090  0.2130  0.3163
  657loPI    C210498  17.867  15.995  10.919  0.1942  0.1137  0.1243
  657loPI    C310499  17.850  15.619  10.784 -0.0697  0.1452  0.0643
  657loPI   PO410500  17.594  16.054  10.551 -0.0225  0.0364 -0.0799
  657loPI   GL110501  17.444  16.251  10.193 -0.0808  0.3243  0.3168
  657loPI   GL210502  17.226  15.992  10.162  0.4132 -0.3529 -0.3353
  657loPI   C1A10503  17.505  16.152   9.771 -0.1219  0.0138 -0.1898
  657loPI   C2A10504  17.523  16.119   9.357 -0.0444  0.1058 -0.1662
  657loPI   C3A10505  17.633  16.073   8.944  0.3556  0.2360  0.1410
  657loPI   C4A10506  17.605  15.929   8.494 -0.0650 -0.1169  0.1315
  657loPI   C5A10507  17.628  15.772   8.081 -0.2136 -0.1218  0.0279
  657loPI   C6A10508  17.923  15.873   7.819 -0.1172 -0.2314  0.0463
  657loPI   C1B10509  16.953  16.110   9.775 -0.0528  0.0097  0.1777
  657loPI   C2B10510  17.049  16.241   9.443 -0.1271 -0.1228  0.0987
  657loPI   C3B10511  17.060  16.143   9.073  0.1422  0.2016  0.1096
  657loPI   C4B10512  17.090  16.141   8.672  0.0676  0.1488 -0.1663
  658loPI    C110513   0.596  17.463  10.880 -0.1545 -0.1047 -0.0086
  658loPI    C210514   0.229  17.564  11.006 -0.0792 -0.0584  0.1768
  658loPI    C310515   0.523  17.504  11.272  0.1761  0.4013  0.0096
  658loPI   PO410516   0.486  17.373  10.636 -0.2813  0.2500  0.1302
  658loPI   GL110517   0.262  17.435  10.317  0.2366 -0.2263  0.1211
  658loPI   GL210518  -0.031  17.121  10.231 -0.0991 -0.1439  0.0389
  658loPI   C1A10519   0.416  17.364   9.944 -0.0465 -0.2310 -0.2424
  658loPI   C2A10520   0.334  17.406   9.504  0.0594  0.1172 -0.0527
  658loPI   C3A10521   0.378  17.331   9.089  0.0368 -0.1180  0.3290
  658loPI   C4A10522   0.504  17.312   8.688 -0.3775  0.2549  0.0246
  658loPI   C5A10523   0.509  17.339   8.235 -0.1267  0.1765 -0.2693
  658loPI   C6A10524   0.696  17.227   7.865 -0.1208  0.0481 -0.1171
  658loPI   C1B10525   0.103  16.984   9.798  0.2987  0.1148  0.0254
  658loPI   C2B10526   0.097  16.910   9.336  0.1878  0.1582 -0.6414
  658loPI   C3B10527   0.101  16.943   8.901  0.2746 -0.3366  0.4311
  658loPI   C4B10528   0.175  16.989   8.453 -0.1698 -0.2437 -0.1744
  659loPI    C110529   2.794  11.895  10.986  0.0466 -0.1078  0.0472
  659loPI    C210530   2.982  11.697  10.693  0.2033 -0.0943  0.1374
  659loPI    C310531   3.191  11.922  10.949  0.0475  0.0342  0.1538
  659loPI   PO410532   2.545  11.951  10.857 -0.0340  0.1967 -0.4299
  659loPI   GL110533   2.476  12.061  10.470  0.1161 -0.1835 -0.0225
  659loPI   GL210534   2.367  11.772  10.436  0.0251  0.5061  0.0300
  659loPI   C1A10535   2.655  12.282  10.088  0.2100  0.2483 -0.0672
  659loPI   C2A10536   2.657  12.214   9.694  0.3348 -0.2949  0.0931
  659loPI   C3A10537   2.591  12.207   9.310  0.1189  0.1184  0.0032
  659loPI   C4A10538   2.540  12.174   8.886  0.2484  0.1965  0.1146
  659loPI   C5A10539   2.715  12.156   8.555 -0.1480  0.1425 -0.0492
  659loPI   C6A10540   2.571  12.255   8.128  0.1628  0.1033 -0.0534
  659loPI   C1B10541   2.505  11.746   9.886 -0.1740 -0.0356  0.1231
  659loPI   C2B10542   2.457  11.677   9.482  0.0892  0.0703 -0.0189
  659loPI   C3B10543   2.425  11.711   9.023 -0.2867  0.1639 -0.3594
  659loPI   C4B10544   2.432  11.720   8.590  0.2076 -0.0130 -0.0210
  660loPI    C110545  12.818   8.239  10.236  0.2271  0.0714  0.1170
  660loPI    C210546  12.928   7.873  10.356  0.0908 -0.0099 -0.0026
  660loPI    C310547  13.018   8.193  10.579  0.1772 -0.1199  0.1215
  660loPI   PO410548  12.855   8.231   9.951 -0.2264 -0.2573  0.1368
  660loPI   GL110549  12.967   8.476   9.686 -0.4095  0.1143  0.1750
  660loPI   GL210550  12.845   8.718   9.672  0.1466 -0.4736  0.1401
  660loPI   C1A10551  13.046   8.211   9.253 -0.1992 -0.0372  0.2206
  660loPI   C2A10552  12.931   8.151   8.846  0.1446 -0.0580  0.2939
  660loPI   C3A10553  12.903   8.016   8.354  0.1840  0.1708  0.1902
  660loPI   C4A10554  13.138   8.201   7.971 -0.1833  0.1557 -0.3657
  660loPI   C5A10555  13.626   8.194   7.838  0.0360 -0.1257 -0.0718
  660loPI   C6A10556  13.817   7.981   7.599 -0.2616 -0.1624  0.1911
  660loPI   C1B10557  12.980   8.931   9.263  0.1108  0.1301  0.3819
  660loPI   C2B10558  13.197   8.597   8.931  0.0321 -0.0009 -0.1580
  660loPI   C3B10559  13.076   8.692   8.479  0.2032 -0.2150  0.1281
  660loPI   C4B10560  13.196   8.827   7.983 -0.0579  0.1760  0.1882
  661loPI    C110561   4.233  14.008  11.155  0.0011  0.0177  0.1055
  661loPI    C210562   4.041  13.734  11.373 -0.2200  0.1914  0.1325
  661loPI    C310563   4.184  14.063  11.548  0.2330 -0.0021  0.1385
  661loPI   PO410564   4.349  13.869  10.903 -0.0882  0.1310  0.0607
  661loPI   GL110565   4.663  13.808  10.516 -0.2123  0.2046 -0.0995
  661loPI   GL210566   4.509  14.023  10.429  0.2684 -0.0830 -0.0365
  661loPI   C1A10567   4.897  13.763  10.127 -0.1189  0.0105  0.3175
  661loPI   C2A10568   4.838  13.693   9.735  0.0256  0.0083  0.0767
  661loPI   C3A10569   4.750  13.742   9.318  0.2583  0.2278 -0.4698
  661loPI   C4A10570   4.776  13.779   8.875  0.5522  0.2483  0.1699
  661loPI   C5A10571   4.760  13.838   8.406  0.1117  0.1499 -0.0350
  661loPI   C6A10572   4.799  13.827   7.943  0.2185 -0.2747  0.0700
  661loPI   C1B10573   4.427  13.801  10.032  0.0837 -0.2134 -0.1999
  661loPI   C2B10574   4.324  13.760   9.584 -0.3168 -0.2258  0.0414
  661loPI   C3B10575   4.254  13.787   9.052  0.1181  0.1052  0.0074
  661loPI   C4B10576   4.319  13.761   8.611  0.0222 -0.1086  0.0617
  662loPI    C110577  17.717   2.480  10.712 -0.2914 -0.0635  0.1281
  662loPI    C210578  17.728   2.206  11.004  0.4801 -0.0551  0.1273
  662loPI    C310579  17.825   2.586  11.083 -0.2754  0.1686  0.0586
  662loPI   PO410580  17.773   2.364  10.442  0.2851 -0.2471  0.5562
  662loPI   GL110581  17.613   2.385  10.081  0.0414 -0.1353 -0.0936
  662loPI   GL210582  17.881   2.169   9.927  0.0357 -0.1549  0.2870
  662loPI   C1A10583  17.602   2.550   9.639 -0.0070  0.3047  0.1574
  662loPI   C2A10584  17.282   2.541   9.347 -0.0928  0.1866 -0.0143
  662loPI   C3A10585  17.232   2.488   8.864  0.2043  0.2088 -0.1188
  662loPI   C4A10586  17.188   2.617   8.442  0.2396  0.1538  0.0859
  662loPI   C5A10587  17.349   2.902   8.121  0.4314 -0.1419 -0.1698
  662loPI   C6A10588  17.395   3.170   7.731  0.0319 -0.0534  0.0893
  662loPI   C1B10589  17.913   2.186   9.471  0.1660 -0.1928 -0.2906
  662loPI   C2B10590  18.002   2.038   9.071  0.1026 -0.0902  0.1442
  662loPI   C3B10591  18.023   2.138   8.601  0.3068 -0.0967  0.1145
  662loPI   C4B10592  17.897   2.147   8.207  0.0597 -0.1148  0.2063
  663loPI    C110593  13.940  14.508  10.716 -0.0441  0.1163 -0.0445
  663loPI    C210594  14.200  14.453  11.014 -0.2189 -0.2640  0.0441
  663loPI    C310595  13.811  14.498  11.095 -0.2184  0.0284 -0.1048
  663loPI   PO410596  14.065  14.378  10.533  0.0549 -0.2973  0.3002
  663loPI   GL110597  14.200  14.047  10.283  0.1330 -0.2062  0.2167
  663loPI   GL210598  14.579  13.972  10.323  0.1260  0.0660 -0.3375
  663loPI   C1A10599  14.042  13.958   9.869  0.0709  0.1652 -0.1093
  663loPI   C2A10600  14.190  13.667   9.624 -0.2786  0.2709 -0.0261
  663loPI   C3A10601  14.262  13.640   9.263  0.1724  0.2956  0.0560
  663loPI   C4A10602  14.180  13.664   8.957 -0.0072  0.1663  0.1626
  663loPI   C5A10603  14.175  13.722   8.601 -0.2574 -0.1220 -0.1835
  663loPI   C6A10604  14.270  13.730   8.203 -0.3330  0.0285  0.0845
  663loPI   C1B10605  14.587  14.103   9.815  0.3407  0.0348 -0.0087
  663loPI   C2B10606  14.342  14.133   9.459  0.0097 -0.2287  0.1434
  663loPI   C3B10607  14.326  14.105   9.048  0.1505  0.0385 -0.0208
  663loPI   C4B10608  14.387  14.186   8.642  0.1546 -0.1315 -0.0625
  664loPI    C110609   7.885  12.120  10.782 -0.1229  0.2748 -0.1322
  664loPI    C210610   7.574  12.136  11.032  0.0233 -0.0509  0.0775
  664loPI    C310611   7.919  12.314  11.130 -0.0911  0.3094 -0.1544
  664loPI   PO410612   7.700  12.025  10.539  0.4124  0.2780 -0.0381
  664loPI   GL110613   7.605  12.007  10.083 -0.2412  0.1177 -0.1472
  664loPI   GL210614   7.691  12.338  10.078  0.1609 -0.1749 -0.1688
  664loPI   C1A10615   7.213  12.017   9.884 -0.3987  0.0045  0.0773
  664loPI   C2A10616   7.321  11.807   9.510  0.1617  0.0595  0.5014
  664loPI   C3A10617   7.288  11.773   9.107  0.0818 -0.1456  0.1349
  664loPI   C4A10618   7.286  11.806   8.641  0.0113  0.1888  0.1292
  664loPI   C5A10619   7.162  11.826   8.250 -0.0347  0.2867  0.0159
  664loPI   C6A10620   7.076  11.769   7.834 -0.0255 -0.0465 -0.5531
  664loPI   C1B10621   7.556  12.295   9.628  0.1187  0.2064 -0.0154
  664loPI   C2B10622   7.487  12.245   9.226 -0.0715 -0.1680 -0.0804
  664loPI   C3B10623   7.513  12.236   8.782 -0.2857 -0.0154 -0.4899
  664loPI   C4B10624   7.379  12.230   8.384 -0.2407 -0.2141  0.1677
  665loPI    C110625  11.489  15.421  10.579  0.1407 -0.0178  0.3607
  665loPI    C210626  11.170  15.197  10.670  0.0641  0.0056  0.1541
  665loPI    C310627  11.501  15.172  10.892 -0.0643 -0.0544  0.3411
  665loPI   PO410628  11.520  15.374  10.307 -0.0425  0.0269  0.1439
  665loPI   GL110629  11.418  15.259   9.929 -0.1772 -0.0528  0.1498
  665loPI   GL210630  11.534  15.572   9.805  0.1606  0.1194 -0.0007
  665loPI   C1A10631  11.275  14.981   9.762  0.0135 -0.3618 -0.0499
  665loPI   C2A10632  11.154  14.796   9.314 -0.0742  0.0024 -0.1013
  665loPI   C3A10633  11.162  14.854   8.847 -0.4715  0.0146  0.2199
  665loPI   C4A10634  10.973  15.137   8.574 -0.1493  0.1372  0.1465
  665loPI   C5A10635  11.134  15.564   8.415  0.1713  0.0480 -0.3208
  665loPI   C6A10636  11.117  15.751   8.011 -0.2746  0.1259 -0.1483
  665loPI   C1B10637  11.875  15.399   9.451 -0.1018 -0.0331 -0.2793
  665loPI   C2B10638  12.035  15.236   9.093  0.2323  0.2069 -0.1305
  665loPI   C3B10639  12.012  15.218   8.706  0.0781 -0.2804  0.0539
  665loPI   C4B10640  12.342  15.274   8.379  0.0490  0.2643  0.0525
  666loPI    C110641   6.459  17.974  10.519 -0.0759 -0.1571 -0.0858
  666loPI    C210642   6.500  17.644  10.741  0.0703 -0.0250  0.0862
  666loPI    C310643   6.404  17.991  10.915  0.0530  0.0521 -0.0756
  666loPI   PO410644   6.261  17.809  10.309  0.0077  0.0085 -0.1650
  666loPI   GL110645   6.264  17.560   9.885 -0.2148 -0.1066  0.1364
  666loPI   GL210646   6.098  17.752   9.810 -0.1992  0.1871  0.1105
  666loPI   C1A10647   6.460  17.696   9.453 -0.2424  0.2372 -0.4572
  666loPI   C2A10648   6.617  17.564   8.914 -0.0472 -0.2588  0.1962
  666loPI   C3A10649   6.875  17.548   8.554 -0.1839 -0.1612 -0.0802
  666loPI   C4A10650   7.014  17.420   8.099 -0.2587 -0.2432  0.2315
  666loPI   C5A10651   7.136  17.325   7.739 -0.0701  0.0151 -0.0742
  666loPI   C6A10652   7.580  17.208   7.642  0.0393 -0.1788  0.1926
  666loPI   C1B10653   6.176  18.084   9.599 -0.2010 -0.3009 -0.1162
  666loPI   C2B10654   6.191  18.212   9.240  0.0013  0.1808  0.2759
  666loPI   C3B10655   6.164  18.216   8.829  0.0041 -0.1400 -0.0486
  666loPI   C4B10656   6.215  18.209   8.293 -0.0533 -0.1227  0.0653
  667loPI    C110657  11.582   6.050  10.059  0.0334  0.1858  0.0523
  667loPI    C210658  11.625   6.160  10.442 -0.0809  0.0745  0.0977
  667loPI    C310659  11.936   6.010  10.241 -0.1072 -0.1954  0.2534
  667loPI   PO410660  11.418   6.206   9.930  0.1172  0.2817 -0.0340
  667loPI   GL110661  11.364   6.368   9.564  0.2949  0.1811 -0.1297
  667loPI   GL210662  11.408   6.625   9.351 -0.1011 -0.3926 -0.5237
  667loPI   C1A10663  11.013   6.301   9.345  0.0861 -0.2243 -0.1097
  667loPI   C2A10664  10.981   6.579   8.977 -0.4497  0.1780  0.3497
  667loPI   C3A10665  10.915   6.562   8.495  0.1717  0.0641 -0.1888
  667loPI   C4A10666  10.693   6.310   8.163 -0.0620 -0.0050  0.1371
  667loPI   C5A10667  10.687   5.942   7.902  0.0064 -0.1216 -0.3580
  667loPI   C6A10668  10.841   5.614   7.642 -0.3197 -0.0252 -0.0111
  667loPI   C1B10669  11.480   6.773   8.883 -0.1135  0.1301 -0.1312
  667loPI   C2B10670  11.670   6.740   8.522  0.0509  0.2828 -0.1152
  667loPI   C3B10671  11.801   6.728   8.096  0.0853 -0.1796  0.3171
  667loPI   C4B10672  11.808   6.851   7.630  0.0640  0.1283  0.0034
  668loPI    C110673   4.975   6.770  10.410 -0.1185  0.0471 -0.0610
  668loPI    C210674   5.229   7.004  10.208 -0.0218  0.0951  0.1138
  668loPI    C310675   5.215   7.022  10.607  0.0915 -0.3019  0.1395
  668loPI   PO410676   4.768   6.807  10.246  0.1567  0.2116 -0.1671
  668loPI   GL110677   4.901   6.855   9.847 -0.1213  0.1203  0.0956
  668loPI   GL210678   5.187   6.752   9.803 -0.2195 -0.1062  0.3341
  668loPI   C1A10679   5.099   7.259   9.677 -0.3418 -0.2512 -0.3265
  668loPI   C2A10680   5.260   7.435   9.297  0.2163  0.0772  0.0374
  668loPI   C3A10681   5.128   7.513   8.833  0.0917  0.0335  0.1437
  668loPI   C4A10682   5.011   7.651   8.424 -0.3415  0.0639  0.1023
  668loPI   C5A10683   4.935   8.042   8.227  0.0793  0.0739  0.2063
  668loPI   C6A10684   4.983   8.495   8.005  0.3066 -0.0665 -0.1215
  668loPI   C1B10685   5.197   6.813   9.375  0.2670  0.0959  0.0854
  668loPI   C2B10686   5.121   6.978   8.907  0.2181 -0.3001 -0.0207
  668loPI   C3B10687   5.185   7.098   8.548 -0.0022  0.0130 -0.1424
  668loPI   C4B10688   5.344   7.307   8.207  0.1176  0.0487  0.0869
  669loPI    C110689  14.511   0.400  10.599  0.0398 -0.0644  0.0148
  669loPI    C210690  14.244   0.134  10.736  0.0436 -0.0243  0.1006
  669loPI    C310691  14.264   0.499  10.898 -0.1383  0.1183 -0.1895
  669loPI   PO410692  14.519   0.316  10.367 -0.2321 -0.3118  0.0623
  669loPI   GL110693  14.309   0.232  10.006 -0.3542 -0.1525  0.1000
  669loPI   GL210694  14.149   0.017  10.204 -0.1290  0.4138 -0.3094
  669loPI   C1A10695  14.388   0.162   9.512  0.1671 -0.0956  0.2687
  669loPI   C2A10696  14.491   0.086   9.003  0.2384 -0.0409 -0.3436
  669loPI   C3A10697  14.451   0.136   8.530  0.1161  0.3950  0.1388
  669loPI   C4A10698  14.446  -0.050   8.105  0.1804 -0.3467  0.2147
  669loPI   C5A10699  14.584  -0.381   7.850 -0.1034  0.1797 -0.1876
  669loPI   C6A10700  14.993  -0.364   7.600 -0.1497 -0.1938 -0.2044
  669loPI   C1B10701  14.090  -0.161   9.757  0.2676  0.2388  0.1928
  669loPI   C2B10702  14.120  -0.250   9.305 -0.0938 -0.0147  0.2345
  669loPI   C3B10703  14.148  -0.328   8.888 -0.1201  0.1169  0.2166
  669loPI   C4B10704  14.249  -0.398   8.463  0.0771 -0.2284 -0.1405
  670loPI    C110705   6.857   0.022  10.170  0.0356  0.1994 -0.0130
  670loPI    C210706   6.633   0.032  10.501 -0.1117 -0.0071 -0.1045
  670loPI    C310707   7.031   0.012  10.530 -0.1312 -0.1837  0.0617
  670loPI   PO410708   6.607  -0.063   9.938 -0.1322 -0.2694  0.0291
  670loPI   GL110709   6.663  -0.082   9.466  0.1342  0.1606  0.1214
  670loPI   GL210710   6.637  -0.368   9.509  0.1431  0.1100 -0.0526
  670loPI   C1A10711   6.932   0.014   9.223 -0.0735 -0.0198  0.1509
  670loPI   C2A10712   7.043   0.064   8.730  0.1491  0.0570 -0.2061
  670loPI   C3A10713   7.026  -0.094   8.253 -0.0124  0.1169  0.0675
  670loPI   C4A10714   7.277  -0.125   7.872 -0.0358  0.2777  0.0300
  670loPI   C5A10715   7.654  -0.409   7.666  0.0518  0.2033  0.0433
  670loPI   C6A10716   7.794  -0.832   7.626 -0.0452  0.1263  0.0773
  670loPI   C1B10717   6.658  -0.469   9.159 -0.2717 -0.0896  0.3484
  670loPI   C2B10718   6.587  -0.145   8.905  0.1983 -0.0237 -0.1380
  670loPI   C3B10719   6.591   0.054   8.527  0.0655  0.1917 -0.1601
  670loPI   C4B10720   6.463   0.005   8.112 -0.2464 -0.0376  0.1620
  671loPI    C110721  16.915  10.854  10.753  0.0792  0.1381  0.2432
  671loPI    C210722  16.614  10.707  10.972 -0.1012  0.0282 -0.0720
  671loPI    C310723  16.967  10.518  10.965 -0.1597 -0.0837 -0.0404
  671loPI   PO410724  16.860  10.847  10.462 -0.2141  0.1566  0.1518
  671loPI   GL110725  16.865  11.110  10.143  0.1689 -0.1211  0.0606
  671loPI   GL210726  17.103  11.128  10.043  0.0441  0.3717 -0.0063
  671loPI   C1A10727  16.652  11.403   9.818  0.1553  0.2061  0.1046
  671loPI   C2A10728  16.623  11.469   9.475  0.2019 -0.1435  0.0512
  671loPI   C3A10729  16.690  11.501   9.018  0.2038 -0.1575  0.0987
  671loPI   C4A10730  16.704  11.560   8.668 -0.0067 -0.0252  0.0586
  671loPI   C5A10731  16.759  11.561   8.149  0.2565  0.1628  0.0007
  671loPI   C6A10732  16.868  11.308   7.820 -0.1361 -0.1292  0.1213
  671loPI   C1B10733  16.986  11.046   9.620 -0.0185  0.1731  0.2487
  671loPI   C2B10734  16.914  11.125   9.192 -0.3194  0.2254 -0.2356
  671loPI   C3B10735  16.982  11.134   8.794  0.0446  0.1467 -0.0533
  671loPI   C4B10736  16.961  11.173   8.373  0.0596 -0.1283  0.1487
  672loPI    C110737  13.627  15.519  10.442  0.2510 -0.0468 -0.1133
  672loPI    C210738  13.849  15.804  10.271 -0.0217  0.2133 -0.0428
  672loPI    C310739  13.921  15.694  10.648  0.2222  0.0331 -0.1395
  672loPI   PO410740  13.628  15.321  10.259  0.2247 -0.0725 -0.0904
  672loPI   GL110741  13.602  15.162   9.719 -0.0974  0.1177 -0.0350
  672loPI   GL210742  13.804  15.425   9.801 -0.1298  0.1217  0.0524
  672loPI   C1A10743  13.699  14.833   9.513 -0.2473  0.0388  0.2268
  672loPI   C2A10744  13.515  14.573   9.153 -0.0439  0.2175  0.2963
  672loPI   C3A10745  13.586  14.513   8.692  0.0390  0.0347 -0.0915
  672loPI   C4A10746  13.638  14.583   8.258 -0.0472  0.0085 -0.0110
  672loPI   C5A10747  13.933  14.714   7.907  0.1625 -0.1741  0.0784
  672loPI   C6A10748  13.901  15.104   7.775  0.0391  0.0284 -0.0318
  672loPI   C1B10749  13.782  15.511   9.391 -0.1561 -0.1883 -0.2792
  672loPI   C2B10750  13.872  15.531   8.917 -0.1511  0.2285  0.0294
  672loPI   C3B10751  13.882  15.423   8.504 -0.0959 -0.3005 -0.1779
  672loPI   C4B10752  13.932  15.076   8.287 -0.1779  0.0642  0.2366
  673loPI    C110753   0.517   3.482  10.372 -0.1198  0.0646  0.2843
  673loPI    C210754   0.357   3.117  10.347 -0.2191  0.1284 -0.0772
  673loPI    C310755   0.250   3.362  10.644 -0.4010 -0.0167 -0.0205
  673loPI   PO410756   0.570   3.597  10.071  0.0100 -0.0329  0.0076
  673loPI   GL110757   0.839   3.509   9.740 -0.0262  0.0488  0.4138
  673loPI   GL210758   1.097   3.306   9.758 -0.0980  0.0416  0.3448
  673loPI   C1A10759   0.618   3.840   9.421  0.0709  0.3002  0.0575
  673loPI   C2A10760   0.752   4.271   9.281 -0.0755 -0.0611  0.1632
  673loPI   C3A10761   0.843   4.528   8.961  0.1576 -0.0515  0.2118
  673loPI   C4A10762   0.953   4.781   8.651 -0.1433  0.1124 -0.2181
  673loPI   C5A10763   0.908   4.645   8.142 -0.3854 -0.3018  0.2310
  673loPI   C6A10764   0.922   4.696   7.650  0.3279 -0.1729 -0.4295
  673loPI   C1B10765   1.020   3.312   9.342 -0.1107 -0.1473 -0.0997
  673loPI   C2B10766   0.918   3.154   8.820 -0.0321 -0.2700  0.2167
  673loPI   C3B10767   1.007   2.928   8.476  0.1212  0.1512 -0.0697
  673loPI   C4B10768   1.138   3.009   8.090 -0.0705  0.0741  0.0029
  674loPI    C110769  12.708  10.678  10.508 -0.1829  0.0277 -0.0106
  674loPI    C210770  13.033  10.697  10.740 -0.1222  0.2572 -0.1117
  674loPI    C310771  12.671  10.768  10.896 -0.1251  0.0083 -0.0006
  674loPI   PO410772  12.772  10.776  10.249  0.2645  0.0399 -0.4764
  674loPI   GL110773  12.960  11.005   9.955 -0.0974 -0.1406  0.1888
  674loPI   GL210774  13.261  10.993   9.811  0.0170 -0.1524  0.0127
  674loPI   C1A10775  12.964  11.322   9.594 -0.0600 -0.0183  0.1077
  674loPI   C2A10776  13.031  11.320   9.140  0.0901  0.2646 -0.1324
  674loPI   C3A10777  13.053  11.264   8.729 -0.1574 -0.1209  0.0868
  674loPI   C4A10778  13.099  11.351   8.243  0.1636 -0.1728 -0.2427
  674loPI   C5A10779  12.923  11.469   7.923  0.1105 -0.2086  0.1564
  674loPI   C6A10780  12.703  11.284   7.591  0.1143  0.2205  0.3133
  674loPI   C1B10781  13.231  10.864   9.421  0.0043  0.0938 -0.2589
  674loPI   C2B10782  13.366  10.863   9.034  0.5630  0.1021 -0.3661
  674loPI   C3B10783  13.530  10.869   8.594  0.0347  0.0923  0.1540
  674loPI   C4B10784  13.690  10.877   8.244 -0.2113  0.1655 -0.0639
  675loPI    C110785   6.453   1.418  10.232 -0.0457  0.1658  0.1288
  675loPI    C210786   6.324   1.203  10.544  0.1167 -0.1364 -0.0073
  675loPI    C310787   6.120   1.198  10.200  0.1356 -0.0932 -0.0192
  675loPI   PO410788   6.599   1.363  10.136 -0.1587 -0.2877  0.1615
  675loPI   GL110789   6.961   1.315   9.828 -0.0736  0.2630 -0.1803
  675loPI   GL210790   7.145   1.447   9.665 -0.0389  0.1775  0.4165
  675loPI   C1A10791   6.698   1.358   9.485 -0.1131  0.0237  0.2128
  675loPI   C2A10792   6.749   1.423   9.063 -0.1547 -0.3159  0.2416
  675loPI   C3A10793   7.022   1.240   8.598  0.3511 -0.0395  0.1987
  675loPI   C4A10794   6.885   1.352   8.189 -0.0626  0.0429  0.0854
  675loPI   C5A10795   7.152   1.392   7.756  0.0128  0.0745 -0.3507
  675loPI   C6A10796   7.539   1.464   7.480 -0.0936  0.1381  0.0366
  675loPI   C1B10797   7.198   1.496   9.165 -0.0223 -0.4557  0.0473
  675loPI   C2B10798   7.420   1.436   8.872  0.2042  0.3097  0.0751
  675loPI   C3B10799   7.491   1.542   8.391  0.1007 -0.1955 -0.1309
  675loPI   C4B10800   7.565   1.626   7.945 -0.1404 -0.0955 -0.2046
  676loPI    C110801  16.415  17.408  10.870  0.1194 -0.0794 -0.0749
  676loPI    C210802  16.520  17.550  11.228  0.3771  0.1380 -0.2327
  676loPI    C310803  16.765  17.304  11.031  0.0668 -0.2937 -0.0957
  676loPI   PO410804  16.270  17.657  10.791 -0.1158 -0.1100  0.0801
  676loPI   GL110805  16.213  17.845  10.422 -0.0044 -0.0636  0.1527
  676loPI   GL210806  16.422  17.640  10.300 -0.1028  0.3287  0.2449
  676loPI   C1A10807  16.197  18.187  10.013 -0.2899  0.1308 -0.3208
  676loPI   C2A10808  16.221  18.072   9.614 -0.0335 -0.1313  0.1705
  676loPI   C3A10809  16.074  17.996   9.262 -0.2153 -0.0710  0.0029
  676loPI   C4A10810  16.211  17.935   8.896  0.0081 -0.0511  0.1569
  676loPI   C5A10811  16.130  17.975   8.493 -0.0096  0.1773 -0.3343
  676loPI   C6A10812  16.180  18.022   8.100  0.0132 -0.2817 -0.2499
  676loPI   C1B10813  16.303  17.676   9.881 -0.1930  0.0027 -0.2477
  676loPI   C2B10814  16.372  17.636   9.381 -0.1295  0.0218 -0.1257
  676loPI   C3B10815  16.414  17.477   9.055  0.4666  0.0607  0.1337
  676loPI   C4B10816  16.403  17.469   8.649  0.0752 -0.0529  0.0343
  677PSPI    C110817  11.837   3.838   5.093 -0.2086  0.3928 -0.0686
  677PSPI    C210818  11.481   3.658   5.068 -0.0719  0.1394 -0.2347
  677PSPI    C310819  11.736   3.639   4.760  0.2627 -0.0627  0.0474
  677PSPI   PO410820  11.931   3.790   5.356  0.0136 -0.3321  0.2182
  677PSPI   GL110821  11.803   3.842   5.766  0.2117  0.0510  0.0232
  677PSPI   GL210822  11.492   3.840   5.544  0.1477  0.1214  0.3580
  677PSPI   C1A10823  11.879   3.901   6.162  0.2838  0.1790 -0.1001
  677PSPI   C2A10824  11.854   3.854   6.547  0.0881 -0.0034  0.0832
  677PSPI   C3A10825  11.814   3.766   6.966 -0.0442  0.0251  0.2757
  677PSPI   C4A10826  11.941   3.627   7.428  0.0008  0.2626 -0.3809
  677PSPI   C1B10827  11.327   3.760   5.927  0.0616  0.0943  0.0594
  677PSPI   C2B10828  11.337   3.691   6.373  0.2569 -0.3150 -0.0347
  677PSPI   C3B10829  11.372   3.676   6.784 -0.0733 -0.0266  0.4097
  677PSPI   C4B10830  11.456   3.629   7.260 -0.0895 -0.0612 -0.2245
  678PSPI    C110831  14.659   0.365   5.529 -0.1135  0.0150 -0.1411
  678PSPI    C210832  14.939   0.466   5.262  0.1953  0.0586  0.1911
  678PSPI    C310833  14.968   0.121   5.460 -0.1576 -0.0831  0.0059
  678PSPI   PO410834  14.582   0.516   5.692 -0.1260 -0.0041 -0.0241
  678PSPI   GL110835  14.627   0.551   6.184  0.1543  0.4306  0.0674
  678PSPI   GL210836  14.843   0.767   6.239 -0.0946 -0.0147 -0.4929
  678PSPI   C1A10837  14.470   0.383   6.598 -0.0749 -0.4608 -0.1631
  678PSPI   C2A10838  14.731   0.403   6.987 -0.1304  0.3091  0.1258
  678PSPI   C3A10839  14.610   0.598   7.361 -0.1939  0.0281  0.1214
  678PSPI   C4A10840  14.788   0.795   7.655  0.0026 -0.0941  0.1753
  678PSPI   C1B10841  14.785   0.842   6.629 -0.0063  0.2750  0.1392
  678PSPI   C2B10842  14.975   0.950   7.026  0.0151 -0.1416  0.0996
  678PSPI   C3B10843  15.306   0.999   7.390 -0.0004 -0.0048 -0.0676
  678PSPI   C4B10844  15.676   1.079   7.654 -0.2455 -0.0018 -0.1488
  679PSPI    C110845  15.726   1.514   5.549  0.1041  0.0778  0.1300
  679PSPI    C210846  15.896   1.169   5.440  0.0552  0.1314 -0.1227
  679PSPI    C310847  15.576   1.305   5.243 -0.2100  0.0931  0.2694
  679PSPI   PO410848  15.771   1.528   5.777  0.5722  0.3625 -0.0770
  679PSPI   GL110849  15.963   1.573   6.199  0.2889 -0.0468  0.0840
  679PSPI   GL210850  15.810   1.869   6.166  0.2182 -0.1721 -0.1036
  679PSPI   C1A10851  16.144   1.496   6.636 -0.0938 -0.2237  0.0835
  679PSPI   C2A10852  16.053   1.644   7.103 -0.1095 -0.0280 -0.1005
  679PSPI   C3A10853  16.180   1.915   7.491 -0.1323  0.2727  0.0215
  679PSPI   C4A10854  16.117   1.941   7.860  0.2380 -0.1709  0.2190
  679PSPI   C1B10855  15.738   1.820   6.642  0.1140 -0.0822 -0.2441
  679PSPI   C2B10856  15.649   2.129   6.958 -0.0902 -0.2393  0.3433
  679PSPI   C3B10857  15.837   2.355   7.325 -0.1117  0.1807 -0.2010
  679PSPI   C4B10858  15.916   2.654   7.651  0.0075 -0.0055  0.1458
  680PSPI    C110859   3.905  14.408   5.646  0.0948  0.0285 -0.0994
  680PSPI    C210860   4.101  14.305   5.313 -0.0722 -0.0926 -0.1623
  680PSPI    C310861   3.829  14.598   5.302 -0.0129 -0.0351 -0.1113
  680PSPI   PO410862   4.070  14.406   5.848  0.0969  0.1839 -0.0432
  680PSPI   GL110863   4.149  14.349   6.311  0.1031 -0.4004 -0.1814
  680PSPI   GL210864   3.771  14.406   6.219 -0.1555  0.1093 -0.1548
  680PSPI   C1A10865   4.032  14.363   6.754  0.2726  0.1530  0.0453
  680PSPI   C2A10866   4.181  14.461   7.198  0.4059  0.0782 -0.0068
  680PSPI   C3A10867   4.588  14.589   7.313 -0.2106  0.1331  0.0590
  680PSPI   C4A10868   4.704  15.055   7.657  0.2301  0.1123  0.3075
  680PSPI   C1B10869   3.774  14.781   6.469 -0.0165  0.2511 -0.3274
  680PSPI   C2B10870   3.702  14.758   6.985  0.1819 -0.2027  0.0203
  680PSPI   C3B10871   3.700  14.574   7.484 -0.0960  0.1727 -0.0539
  680PSPI   C4B10872   3.533  14.520   7.952  0.1006 -0.0086  0.1251
  681PSPI    C110873   4.109   5.978   5.499  0.0901 -0.1343  0.1475
  681PSPI    C210874   4.013   6.129   5.856 -0.1402  0.2046 -0.0523
  681PSPI    C310875   4.137   6.371   5.563  0.0620 -0.0721 -0.2002
  681PSPI   PO410876   4.203   5.760   5.523 -0.1290 -0.2782 -0.1661
  681PSPI   GL110877   4.427   5.660   5.803 -0.0187 -0.0748  0.1664
  681PSPI   GL210878   4.320   5.379   5.853 -0.2328  0.1107  0.0599
  681PSPI   C1A10879   4.403   5.721   6.277 -0.0660  0.0945 -0.1963
  681PSPI   C2A10880   4.419   5.596   6.688 -0.0809  0.3025 -0.3948
  681PSPI   C3A10881   4.232   5.423   7.009 -0.1343 -0.2349 -0.0216
  681PSPI   C4A10882   4.234   5.500   7.400 -0.0119  0.1146  0.0053
  681PSPI   C1B10883   4.332   5.217   6.289  0.0855 -0.2277 -0.1068
  681PSPI   C2B10884   4.287   5.038   6.671  0.1739 -0.2368  0.1910
  681PSPI   C3B10885   4.406   4.855   7.153  0.0753 -0.0434 -0.0154
  681PSPI   C4B10886   4.340   4.546   7.513 -0.2096 -0.1543 -0.0766
  682PSPI    C110887  14.733   8.925   5.250  0.2340  0.0495 -0.0477
  682PSPI    C210888  14.668   9.310   5.163  0.0869  0.0349 -0.0058
  682PSPI    C310889  14.402   9.032   5.051  0.1300 -0.0394  0.0751
  682PSPI   PO410890  14.853   8.960   5.498  0.3592  0.1867 -0.0586
  682PSPI   GL110891  14.647   8.951   5.855  0.1065 -0.0986  0.4498
  682PSPI   GL210892  14.812   8.770   6.100  0.2585  0.0872  0.3843
  682PSPI   C1A10893  14.351   9.004   6.201  0.1199  0.1209  0.2548
  682PSPI   C2A10894  14.140   8.883   6.499 -0.2043  0.0500  0.1743
  682PSPI   C3A10895  14.085   8.945   6.839  0.3183  0.1243 -0.2587
  682PSPI   C4A10896  14.023   8.978   7.335 -0.0379  0.1483 -0.0482
  682PSPI   C1B10897  15.055   8.736   6.414  0.2232 -0.0756 -0.0793
  682PSPI   C2B10898  15.196   8.642   6.791  0.1019  0.1267 -0.3183
  682PSPI   C3B10899  15.203   8.846   7.124  0.2547 -0.0672 -0.1830
  682PSPI   C4B10900  14.906   8.917   7.477  0.1305  0.0033  0.0983
  683PSPI    C110901  16.353   5.553   5.290  0.1013  0.1114 -0.0471
  683PSPI    C210902  16.710   5.528   5.112  0.0498  0.1534 -0.1569
  683PSPI    C310903  16.388   5.363   4.940  0.0218  0.0882 -0.0428
  683PSPI   PO410904  16.360   5.802   5.461 -0.2630 -0.1159 -0.0977
  683PSPI   GL110905  16.645   5.891   5.878 -0.2737 -0.1368 -0.3357
  683PSPI   GL210906  16.369   5.714   5.973  0.0105 -0.2909  0.0464
  683PSPI   C1A10907  16.817   5.681   6.200 -0.0676  0.0704 -0.1136
  683PSPI   C2A10908  16.801   5.527   6.616  0.0966 -0.0470 -0.1113
  683PSPI   C3A10909  16.858   5.555   7.075  0.0569 -0.3264  0.0354
  683PSPI   C4A10910  17.028   5.614   7.333 -0.3318 -0.1566  0.0129
  683PSPI   C1B10911  16.351   5.629   6.462 -0.1593  0.0062  0.1203
  683PSPI   C2B10912  16.304   5.672   6.947 -0.1563  0.0601  0.1260
  683PSPI   C3B10913  16.267   5.797   7.247 -0.1051  0.1211 -0.2673
  683PSPI   C4B10914  16.238   5.430   7.530 -0.1583  0.0815  0.2278
  684PSPI    C110915  10.170   2.314   5.169 -0.0600  0.0533 -0.0964
  684PSPI    C210916   9.913   2.017   5.245 -0.0286  0.0849  0.1424
  684PSPI    C310917   9.829   2.287   4.962 -0.0579 -0.1483 -0.0753
  684PSPI   PO410918  10.204   2.448   5.344 -0.3405 -0.3774  0.1582
  684PSPI   GL110919  10.366   2.395   5.652 -0.0320  0.0748 -0.3154
  684PSPI   GL210920  10.678   2.500   5.716  0.1998 -0.0581  0.3291
  684PSPI   C1A10921  10.674   2.041   5.918 -0.1441  0.2035  0.1794
  684PSPI   C2A10922  10.806   1.935   6.331  0.0013  0.2161  0.0743
  684PSPI   C3A10923  11.148   1.771   6.508  0.3311 -0.2647 -0.0182
  684PSPI   C4A10924  11.406   1.959   6.821  0.1348 -0.0369 -0.2089
  684PSPI   C1B10925  10.605   2.482   6.163  0.3108 -0.1927 -0.0329
  684PSPI   C2B10926  10.908   2.473   6.334 -0.1587 -0.0787  0.3356
  684PSPI   C3B10927  11.105   2.474   6.719  0.1030 -0.1558 -0.6832
  684PSPI   C4B10928  10.910   2.354   7.155  0.0559 -0.1605  0.2155
  685PSPI    C110929   8.697   9.251   5.335  0.1195  0.1381  0.1287
  685PSPI    C210930   8.579   9.552   5.099  0.0118  0.0899  0.1209
  685PSPI    C310931   8.824   9.270   4.956  0.0191  0.1101  0.0934
  685PSPI   PO410932   8.662   9.347   5.575  0.0326  0.2079  0.0127
  685PSPI   GL110933   8.739   9.407   5.944 -0.0131 -0.0117  0.1170
  685PSPI   GL210934   8.716   9.117   6.010 -0.2457 -0.2737  0.1198
  685PSPI   C1A10935   8.845   9.583   6.382 -0.1029 -0.1074  0.0574
  685PSPI   C2A10936   8.998   9.710   6.818  0.2681  0.2038  0.0980
  685PSPI   C3A10937   8.987   9.856   7.202  0.1952  0.2591  0.2930
  685PSPI   C4A10938   9.366   9.949   7.447 -0.0456  0.2614  0.1634
  685PSPI   C1B10939   8.854   8.948   6.292 -0.3181 -0.0995  0.0625
  685PSPI   C2B10940   8.888   8.928   6.746  0.3437 -0.0566 -0.0399
  685PSPI   C3B10941   8.839   8.894   7.132  0.1725  0.1904 -0.0087
  685PSPI   C4B10942   8.742   8.662   7.499 -0.5195 -0.1416 -0.2056
  686PSPI    C110943   6.191   6.162   5.423  0.1369  0.3546 -0.0475
  686PSPI    C210944   5.857   6.247   5.626  0.0046 -0.1337 -0.0466
  686PSPI    C310945   5.927   6.422   5.273 -0.1592  0.1093  0.0385
  686PSPI   PO410946   6.123   5.772   5.418 -0.1025 -0.3006 -0.1807
  686PSPI   GL110947   5.882   5.673   5.848  0.0391  0.1821 -0.3791
  686PSPI   GL210948   5.925   5.420   5.801  0.1953  0.1656  0.0454
  686PSPI   C1A10949   5.637   5.693   6.267 -0.0789 -0.1520  0.1912
  686PSPI   C2A10950   5.518   5.744   6.672  0.3313  0.0109 -0.0519
  686PSPI   C3A10951   5.580   5.807   7.139 -0.0094 -0.1134 -0.0742
  686PSPI   C4A10952   5.780   5.648   7.437 -0.0959  0.0212 -0.0511
  686PSPI   C1B10953   6.041   5.373   6.263  0.3408  0.4219 -0.3143
  686PSPI   C2B10954   6.009   5.506   6.616 -0.2156  0.1958 -0.0839
  686PSPI   C3B10955   5.988   5.882   6.842 -0.0995 -0.2382  0.0212
  686PSPI   C4B10956   6.071   6.102   7.217  0.1022 -0.1787  0.0132
  687PSPI    C110957  14.298  12.969   5.383  0.1905 -0.0323 -0.0991
  687PSPI    C210958  14.667  12.877   5.259  0.3660  0.4807  0.0165
  687PSPI    C310959  14.473  13.188   5.098  0.0258  0.2834  0.0359
  687PSPI   PO410960  14.354  12.820   5.595  0.0575 -0.0583 -0.0954
  687PSPI   GL110961  14.438  12.691   6.030  0.1625  0.0700 -0.1554
  687PSPI   GL210962  14.354  13.023   6.030  0.0838  0.4171  0.0358
  687PSPI   C1A10963  14.504  12.705   6.390  0.4270  0.2803  0.0043
  687PSPI   C2A10964  14.399  12.222   6.600  0.2570  0.2303 -0.3447
  687PSPI   C3A10965  13.931  12.051   6.678  0.1616  0.0504 -0.0398
  687PSPI   C4A10966  13.726  11.820   7.071  0.0743  0.2013 -0.3117
  687PSPI   C1B10967  14.656  13.133   6.287 -0.3029  0.3012 -0.4460
  687PSPI   C2B10968  14.666  13.075   6.791  0.0886  0.2143  0.0005
  687PSPI   C3B10969  14.423  12.901   7.123  0.2009 -0.0848  0.1872
  687PSPI   C4B10970  14.352  12.749   7.469  0.1914  0.1842 -0.0889
  688PSPI    C110971   8.599  16.101   5.274  0.1004  0.2201  0.1096
  688PSPI    C210972   8.238  16.274   5.289  0.0028  0.0193  0.1061
  688PSPI    C310973   8.312  15.986   5.021  0.1611  0.0485  0.1174
  688PSPI   PO410974   8.667  16.095   5.594  0.0250 -0.0315  0.0508
  688PSPI   GL110975   8.549  15.926   5.913 -0.1240 -0.1039 -0.1295
  688PSPI   GL210976   8.568  16.053   6.242  0.1836  0.0332  0.1265
  688PSPI   C1A10977   8.858  15.650   6.048  0.2928 -0.0212  0.1627
  688PSPI   C2A10978   8.839  15.418   6.253 -0.1272 -0.1603  0.4244
  688PSPI   C3A10979   8.955  15.220   6.636 -0.2308  0.1836 -0.1530
  688PSPI   C4A10980   8.953  15.261   7.077 -0.1289  0.1034  0.0217
  688PSPI   C1B10981   8.726  15.883   6.646 -0.0529  0.3563 -0.1992
  688PSPI   C2B10982   8.882  15.746   7.108  0.1698 -0.4804  0.0134
  688PSPI   C3B10983   8.996  15.672   7.575 -0.3292  0.0151 -0.2455
  688PSPI   C4B10984   8.851  15.552   7.949 -0.0590  0.0293  0.2128
  689PSPI    C110985  13.159   8.470   5.195 -0.0730  0.0272 -0.1681
  689PSPI    C210986  12.803   8.640   5.264 -0.0164 -0.0029  0.2163
  689PSPI    C310987  12.825   8.250   5.176 -0.0785 -0.0016  0.1949
  689PSPI   PO410988  13.296   8.486   5.444 -0.2520  0.2978 -0.2327
  689PSPI   GL110989  13.500   8.535   5.882 -0.1097  0.1924  0.0186
  689PSPI   GL210990  13.192   8.374   5.909  0.0091  0.2209 -0.3435
  689PSPI   C1A10991  13.347   8.532   6.355 -0.0402  0.0024 -0.2011
  689PSPI   C2A10992  13.286   8.394   6.722  0.0162  0.1987  0.0499
  689PSPI   C3A10993  13.095   8.635   7.063 -0.2480  0.0769  0.2298
  689PSPI   C4A10994  13.289   8.452   7.520  0.2583  0.0867 -0.0558
  689PSPI   C1B10995  12.894   8.335   6.150  0.0606 -0.1953  0.1970
  689PSPI   C2B10996  12.845   8.660   6.398 -0.1207  0.0444  0.0345
  689PSPI   C3B10997  12.791   8.904   6.801 -0.2212 -0.0457  0.2342
  689PSPI   C4B10998  12.911   9.156   7.021 -0.0246 -0.1519 -0.1049
  690PSPI    C110999   6.389   7.442   5.608  0.1178  0.0145  0.0933
  690PSPI    C211000   6.111   7.164   5.677 -0.1173  0.2577  0.1446
  690PSPI    C311001   6.057   7.431   5.385  0.2166  0.1073 -0.0600
  690PSPI   PO411002   6.476   7.490   5.852  0.4545 -0.1195  0.0295
  690PSPI   GL111003   6.448   7.580   6.195 -0.0745  0.0240 -0.2176
  690PSPI   GL211004   6.240   7.794   6.223 -0.0718  0.0647 -0.2695
  690PSPI   C1A11005   6.654   7.537   6.620 -0.1538  0.2543 -0.1222
  690PSPI   C2A11006   6.636   7.741   7.052 -0.3407 -0.1760  0.0710
  690PSPI   C3A11007   6.890   7.646   7.464  0.0210 -0.0130  0.0727
  690PSPI   C4A11008   7.089   7.664   7.903  0.1720  0.2110  0.0366
  690PSPI   C1B11009   6.323   7.927   6.591 -0.0185 -0.0127 -0.2262
  690PSPI   C2B11010   6.036   7.927   6.979  0.0453 -0.1390 -0.1906
  690PSPI   C3B11011   5.737   7.891   7.283  0.1690 -0.1142  0.2208
  690PSPI   C4B11012   5.669   7.581   7.648  0.1091 -0.0640 -0.0286
  691PSPI    C111013  17.129   7.030   5.323  0.2126 -0.1758 -0.0780
  691PSPI    C211014  17.225   6.776   5.029  0.0981 -0.2227 -0.0756
  691PSPI    C311015  16.913   6.698   5.267  0.0888 -0.1016 -0.0470
  691PSPI   PO411016  17.237   7.161   5.519  0.1176  0.0833 -0.2118
  691PSPI   GL111017  17.283   7.289   5.885 -0.0833 -0.0885  0.3092
  691PSPI   GL211018  17.505   6.999   5.985  0.1726 -0.1385  0.0865
  691PSPI   C1A11019  17.420   7.428   6.321 -0.0473  0.0383 -0.0660
  691PSPI   C2A11020  17.609   7.563   6.754 -0.2513  0.1015  0.2333
  691PSPI   C3A11021  17.890   7.646   7.027  0.0605  0.1410  0.3043
  691PSPI   C4A11022  17.958   7.567   7.523 -0.0280 -0.0362 -0.3603
  691PSPI   C1B11023  17.574   6.552   6.247  0.1744  0.4633  0.2750
  691PSPI   C2B11024  17.748   6.277   6.571 -0.0795 -0.3324  0.2750
  691PSPI   C3B11025  17.622   6.057   6.955 -0.2771  0.0499 -0.1928
  691PSPI   C4B11026  17.622   5.802   7.257  0.2047 -0.1785  0.0720
  692PSPI    C111027  14.922  15.120   6.007 -0.2857 -0.0944 -0.0754
  692PSPI    C211028  15.086  15.298   5.688  0.3625 -0.3888  0.0759
  692PSPI    C311029  15.023  15.507   6.024 -0.0354 -0.1553 -0.1363
  692PSPI   PO411030  14.777  14.853   5.925 -0.1281  0.0227 -0.3122
  692PSPI   GL111031  14.712  14.591   6.294 -0.1034  0.0802 -0.3525
  692PSPI   GL211032  14.952  14.719   6.361 -0.0501  0.1758  0.0541
  692PSPI   C1A11033  14.562  14.456   6.744  0.0287 -0.0824 -0.1749
  692PSPI   C2A11034  14.599  14.504   7.187  0.1089  0.0912  0.1033
  692PSPI   C3A11035  14.826  14.598   7.558 -0.1776  0.0464  0.2194
  692PSPI   C4A11036  14.878  14.608   8.007  0.2863 -0.1610  0.1469
  692PSPI   C1B11037  15.361  14.786   6.639 -0.1563  0.0082  0.2572
  692PSPI   C2B11038  15.510  14.820   7.008 -0.0190 -0.0438 -0.1776
  692PSPI   C3B11039  15.266  14.749   7.341  0.1742 -0.1450  0.0784
  692PSPI   C4B11040  15.301  14.390   7.719  0.0717 -0.3060 -0.0693
  693PSPI    C111041   9.109   4.461   5.329 -0.1274  0.0927 -0.0367
  693PSPI    C211042   8.908   4.806   5.348 -0.1385  0.0963 -0.2069
  693PSPI    C311043   8.710   4.460   5.324 -0.1253  0.0987 -0.3581
  693PSPI   PO411044   9.285   4.491   5.553 -0.2720 -0.2976 -0.0794
  693PSPI   GL111045   9.565   4.277   5.896 -0.0714  0.2114 -0.1752
  693PSPI   GL211046   9.266   4.480   6.051 -0.1153  0.1026  0.0535
  693PSPI   C1A11047   9.796   4.233   6.240  0.1532  0.4084 -0.2508
  693PSPI   C2A11048   9.809   4.186   6.651 -0.1112  0.2270 -0.1353
  693PSPI   C3A11049   9.898   4.325   6.992  0.1742  0.1994 -0.0072
  693PSPI   C4A11050  10.176   4.378   7.290  0.2145  0.1136 -0.1359
  693PSPI   C1B11051   9.378   4.359   6.449  0.0767  0.0354 -0.1250
  693PSPI   C2B11052   9.399   4.290   6.915  0.0989 -0.1513  0.1730
  693PSPI   C3B11053   9.128   3.976   7.046 -0.2377  0.1651 -0.0166
  693PSPI   C4B11054   8.869   3.737   6.872 -0.4431  0.1359  0.1847
  694PSPI    C111055   6.169  11.033   5.687  0.2425 -0.0481 -0.3016
  694PSPI    C211056   6.154  11.432   5.716  0.1811 -0.0778  0.1400
  694PSPI    C311057   5.894  11.238   5.482  0.2774  0.1452 -0.1575
  694PSPI   PO411058   6.199  10.974   5.949  0.1366  0.0897  0.1899
  694PSPI   GL111059   6.380  10.755   6.251  0.2421 -0.0352  0.0675
  694PSPI   GL211060   6.610  10.451   6.241  0.1697 -0.0638  0.2916
  694PSPI   C1A11061   6.478  10.794   6.668 -0.0746  0.2116 -0.0861
  694PSPI   C2A11062   6.447  10.776   7.081 -0.2821 -0.3740 -0.3550
  694PSPI   C3A11063   6.495  10.701   7.522  0.1069 -0.0677  0.0279
  694PSPI   C4A11064   6.476  10.926   7.806 -0.1111  0.1947  0.0282
  694PSPI   C1B11065   6.940  10.626   6.604  0.0789  0.0633  0.1601
  694PSPI   C2B11066   6.928  10.656   7.028  0.2326 -0.3707  0.0984
  694PSPI   C3B11067   7.135  10.941   7.294 -0.0358  0.5502 -0.0897
  694PSPI   C4B11068   7.163  11.341   7.517  0.0431 -0.1138 -0.0551
  695PSPI    C111069   4.718   0.956   5.492 -0.1499  0.0770  0.0215
  695PSPI    C211070   4.883   0.864   5.140 -0.0655 -0.0831  0.1019
  695PSPI    C311071   5.115   0.912   5.463 -0.1420  0.0687  0.1348
  695PSPI   PO411072   4.472   0.793   5.789  0.1045 -0.0921  0.0889
  695PSPI   GL111073   4.097   0.807   5.992  0.0598 -0.0808 -0.0579
  695PSPI   GL211074   3.835   0.547   5.982  0.0750  0.0484 -0.0017
  695PSPI   C1A11075   4.107   0.830   6.478 -0.0061 -0.3213 -0.0179
  695PSPI   C2A11076   4.023   0.806   6.933 -0.2673 -0.5011 -0.2806
  695PSPI   C3A11077   4.123   1.078   7.257  0.1761  0.1704  0.1666
  695PSPI   C4A11078   4.283   1.158   7.618  0.0533  0.0647 -0.2626
  695PSPI   C1B11079   3.723   0.556   6.348 -0.0303  0.1375 -0.0486
  695PSPI   C2B11080   3.792   0.425   6.743  0.0225 -0.2813 -0.1830
  695PSPI   C3B11081   3.615   0.474   7.181 -0.0856 -0.0421  0.1984
  695PSPI   C4B11082   3.568   0.512   7.735 -0.0350  0.0241 -0.2895
  696PSPI    C111083  13.385   1.762   5.286 -0.0738 -0.0434 -0.1295
  696PSPI    C211084  13.016   1.743   5.134 -0.0156 -0.2229 -0.2522
  696PSPI    C311085  13.257   2.046   5.035 -0.2152  0.0329  0.0273
  696PSPI   PO411086  13.420   1.796   5.605 -0.1026  0.0010  0.2057
  696PSPI   GL111087  13.347   1.815   6.087 -0.0578  0.3304 -0.1916
  696PSPI   GL211088  13.119   2.118   6.005 -0.1457  0.1230  0.0046
  696PSPI   C1A11089  13.150   1.884   6.459  0.0924  0.3623  0.0686
  696PSPI   C2A11090  12.971   1.901   6.886 -0.1410 -0.2842  0.1227
  696PSPI   C3A11091  12.842   1.760   7.268  0.0423 -0.0335  0.2009
  696PSPI   C4A11092  12.786   1.711   7.742  0.1053 -0.1768  0.0808
  696PSPI   C1B11093  12.886   2.304   6.403 -0.0895  0.4689  0.1128
  696PSPI   C2B11094  12.794   2.415   6.863 -0.1400  0.0907  0.0596
  696PSPI   C3B11095  12.947   2.276   7.220  0.0415  0.1622 -0.1832
  696PSPI   C4B11096  12.942   2.409   7.688 -0.0196  0.2130  0.5163
  697POPI    C111097   1.751   5.189   5.429  0.0486 -0.1132  0.0011
  697POPI    C211098   1.775   5.570   5.549  0.0901 -0.0944 -0.0666
  697POPI    C311099   2.101   5.382   5.414  0.0384 -0.1066 -0.1757
  697POPI   PO411100   1.646   5.011   5.625 -0.1239  0.0900  0.0554
  697POPI   GL111101   1.824   4.854   6.017  0.1702  0.2972  0.1186
  697POPI   GL211102   1.983   4.698   5.912  0.3180 -0.0564  0.0258
  697POPI   C1A11103   1.869   5.104   6.246  0.0596 -0.1194  0.0345
  697POPI   D2A11104   1.694   5.480   6.345 -0.2025 -0.0978  0.0347
  697POPI   C3A11105   1.827   5.683   6.712 -0.2582  0.0963 -0.0247
  697POPI   C4A11106   2.196   5.705   6.924 -0.2486 -0.0655 -0.1198
  697POPI   C1B11107   1.988   4.507   6.326 -0.3712  0.1344 -0.1154
  697POPI   C2B11108   2.007   4.702   6.634  0.1095 -0.1646 -0.1179
  697POPI   C3B11109   1.806   4.746   7.001 -0.4412  0.1555 -0.4826
  697POPI   C4B11110   1.803   4.574   7.464 -0.1502  0.2212 -0.0685
  698POPI    C111111   2.191  16.810   5.744  0.1296 -0.0381 -0.1109
  698POPI    C211112   2.472  17.053   5.892  0.0860 -0.0434 -0.0180
  698POPI    C311113   2.576  16.705   5.725  0.1445  0.0153 -0.1048
  698POPI   PO411114   2.040  16.724   5.947  0.0358 -0.0233 -0.0918
  698POPI   GL111115   1.961  16.669   6.403  0.0482  0.4463 -0.1564
  698POPI   GL211116   2.089  16.587   6.799 -0.1766  0.1934 -0.2673
  698POPI   C1A11117   1.718  16.894   6.816  0.0790  0.0985 -0.0535
  698POPI   D2A11118   1.691  17.124   7.296  0.2998  0.2554  0.1480
  698POPI   C3A11119   1.689  16.933   7.645  0.3358 -0.2227  0.0793
  698POPI   C4A11120   1.850  16.555   7.779 -0.0544  0.2376 -0.0257
  698POPI   C1B11121   2.450  16.663   6.823 -0.1422 -0.1817  0.1691
  698POPI   C2B11122   2.740  16.660   7.219  0.0016 -0.2573  0.2404
  698POPI   C3B11123   2.908  16.826   7.592 -0.1248 -0.0925  0.0967
  698POPI   C4B11124   3.107  16.646   7.899  0.0943  0.1569 -0.2241
  699POPI    C111125   4.925  14.154   5.657 -0.1345  0.1828  0.1423
  699POPI    C211126   5.313  14.249   5.665 -0.0324 -0.2112  0.0690
  699POPI    C311127   5.072  14.414   5.391  0.0319  0.2047  0.2542
  699POPI   PO411128   4.848  14.166   5.895 -0.1658  0.1738 -0.2259
  699POPI   GL111129   4.940  13.923   6.339 -0.0576  0.2253 -0.0780
  699POPI   GL211130   4.633  14.158   6.381 -0.0195  0.2835 -0.1524
  699POPI   C1A11131   4.860  13.771   6.798  0.1719  0.0554  0.0866
  699POPI   D2A11132   4.784  13.662   7.177 -0.0784 -0.1024  0.0519
  699POPI   C3A11133   5.075  13.842   7.372  0.0576  0.2187 -0.1478
  699POPI   C4A11134   5.242  13.900   7.773 -0.1124  0.0754 -0.0880
  699POPI   C1B11135   4.519  14.476   6.733  0.2675  0.0863  0.3198
  699POPI   C2B11136   4.302  14.873   6.940 -0.2251  0.0611  0.2700
  699POPI   C3B11137   4.070  15.178   6.987  0.1211  0.2476 -0.1239
  699POPI   C4B11138   4.088  15.519   7.352 -0.0684 -0.2710 -0.0927
  700POPI    C111139   2.925  14.086   5.795 -0.1352  0.0783 -0.1152
  700POPI    C211140   2.799  14.455   5.705  0.0995  0.1909  0.0080
  700POPI    C311141   3.046  14.262   5.456  0.0122  0.1335 -0.0347
  700POPI   PO411142   2.911  14.158   6.087 -0.3792 -0.1031  0.0036
  700POPI   GL111143   2.497  14.381   6.223  0.1363 -0.0738  0.2969
  700POPI   GL211144   2.099  14.481   6.334 -0.0824  0.0004 -0.0402
  700POPI   C1A11145   2.795  14.608   6.520 -0.2009  0.3883 -0.3803
  700POPI   D2A11146   3.046  14.710   6.874  0.1408  0.1727 -0.0736
  700POPI   C3A11147   2.998  14.458   7.276 -0.0098 -0.0453 -0.2310
  700POPI   C4A11148   3.108  14.619   7.666 -0.1943 -0.2655 -0.0668
  700POPI   C1B11149   2.246  14.485   6.736  0.0445  0.0108 -0.1131
  700POPI   C2B11150   2.590  14.628   6.953  0.0798 -0.0070 -0.2324
  700POPI   C3B11151   2.626  14.720   7.456 -0.2507 -0.0114 -0.0767
  700POPI   C4B11152   2.583  14.390   7.707 -0.0321 -0.4065 -0.0308
  701POPI    C111153  10.059   8.189   5.149 -0.0215  0.1409 -0.1001
  701POPI    C211154  10.087   8.160   4.751 -0.1537 -0.2182 -0.0872
  701POPI    C311155   9.794   8.378   4.915 -0.0295  0.0263 -0.1841
  701POPI   PO411156  10.296   8.251   5.247 -0.0096  0.0362 -0.1901
  701POPI   GL111157  10.590   8.404   5.576 -0.2427 -0.0475 -0.1471
  701POPI   GL211158  10.548   8.167   5.681 -0.1175 -0.0494 -0.3204
  701POPI   C1A11159  10.658   8.675   5.962 -0.1459  0.0833  0.2321
  701POPI   D2A11160  10.996   8.906   6.277 -0.0145  0.0013 -0.0862
  701POPI   C3A11161  11.201   8.931   6.661  0.0702 -0.1402 -0.0109
  701POPI   C4A11162  11.382   8.960   7.056  0.1428  0.0424 -0.1349
  701POPI   C1B11163  10.493   8.199   6.060 -0.0400 -0.3062  0.0322
  701POPI   C2B11164  10.504   8.457   6.320  0.3302  0.0112 -0.0621
  701POPI   C3B11165  10.546   8.264   6.597  0.3800  0.0546  0.1336
  701POPI   C4B11166  10.678   8.255   6.985 -0.0651  0.1491 -0.0557
  702POPI    C111167  17.952   8.879   5.677  0.0991 -0.1570 -0.1461
  702POPI    C211168  17.774   8.822   5.324 -0.1219  0.1938 -0.0963
  702POPI    C311169  18.119   9.022   5.343 -0.0189  0.0211 -0.1305
  702POPI   PO411170  18.071   8.637   5.834  0.0903 -0.0478  0.1738
  702POPI   GL111171  18.161   8.630   6.360 -0.0213  0.0527  0.0443
  702POPI   GL211172  18.412   8.639   6.186  0.1677 -0.0903  0.2233
  702POPI   C1A11173  18.163   8.782   6.754  0.0194  0.0698  0.1375
  702POPI   D2A11174  18.286   8.751   7.074 -0.0932  0.1199  0.2744
  702POPI   C3A11175  18.201   8.447   7.327  0.1902  0.0393 -0.2090
  702POPI   C4A11176  17.985   8.331   7.658 -0.0369 -0.2772  0.0856
  702POPI   C1B11177  18.661   8.831   6.482  0.2369  0.2034 -0.1253
  702POPI   C2B11178  18.776   8.764   6.941 -0.3275 -0.0098 -0.1368
  702POPI   C3B11179  18.738   8.809   7.356 -0.0526  0.1794 -0.0655
  702POPI   C4B11180  18.437   8.700   7.725 -0.5515  0.1857 -0.1885
  703POPI    C111181   7.821  13.148   5.688  0.1857  0.0363 -0.1029
  703POPI    C211182   7.841  13.540   5.610  0.0585  0.0074 -0.2871
  703POPI    C311183   8.133  13.296   5.486  0.2406  0.0708  0.0062
  703POPI   PO411184   7.890  13.002   5.986 -0.1081  0.1523  0.2143
  703POPI   GL111185   7.974  13.208   6.412 -0.0782 -0.0470  0.1038
  703POPI   GL211186   7.994  12.854   6.429  0.0077 -0.2115 -0.3356
  703POPI   C1A11187   7.915  13.161   6.857  0.1848  0.2646 -0.2489
  703POPI   D2A11188   8.057  13.212   7.397  0.0711 -0.1824  0.0483
  703POPI   C3A11189   7.939  13.595   7.727  0.1172  0.0872 -0.1505
  703POPI   C4A11190   7.747  13.487   8.139 -0.1757  0.2640 -0.0020
  703POPI   C1B11191   8.176  12.717   6.815  0.0340 -0.1545 -0.1912
  703POPI   C2B11192   8.218  12.677   7.254  0.0424 -0.1666 -0.4816
  703POPI   C3B11193   8.252  12.872   7.757 -0.1780  0.2427 -0.0807
  703POPI   C4B11194   8.287  13.328   7.906  0.0791  0.0466  0.3917
  704POPI    C111195   7.275   9.392   5.648  0.1708 -0.2220  0.2065
  704POPI    C211196   7.324   9.037   5.470  0.0597 -0.2141  0.1591
  704POPI    C311197   7.031   9.282   5.350  0.0444 -0.1681  0.2890
  704POPI   PO411198   7.305   9.334   5.932  0.0526 -0.0882 -0.2059
  704POPI   GL111199   7.232   9.200   6.233  0.0173  0.0296  0.1213
  704POPI   GL211200   7.289   8.987   6.368 -0.0829 -0.1708  0.2935
  704POPI   C1A11201   7.038   9.259   6.667  0.0924 -0.2666 -0.3326
  704POPI   D2A11202   6.923   9.409   7.023  0.0708 -0.1055 -0.1477
  704POPI   C3A11203   7.009   9.834   7.213 -0.0805  0.0674 -0.5548
  704POPI   C4A11204   7.435   9.914   7.547 -0.1530 -0.1612 -0.0569
  704POPI   C1B11205   7.510   9.069   6.682 -0.1224  0.2210 -0.3058
  704POPI   C2B11206   7.601   9.051   7.117  0.2039  0.1716 -0.1329
  704POPI   C3B11207   7.856   8.767   7.278 -0.0302 -0.1496 -0.0225
  704POPI   C4B11208   8.084   8.478   7.514 -0.0826 -0.1896  0.2533
  705POPI    C111209  15.591   4.426   5.271 -0.0295 -0.1203 -0.0699
  705POPI    C211210  15.764   4.783   5.225 -0.0014 -0.1043  0.1525
  705POPI    C311211  15.824   4.497   4.953 -0.2012  0.1286 -0.1429
  705POPI   PO411212  15.483   4.480   5.528 -0.0810 -0.0468  0.0391
  705POPI   GL111213  15.397   4.721   5.871  0.4214  0.0518  0.2101
  705POPI   GL211214  15.174   4.358   5.932  0.0600  0.2087 -0.0372
  705POPI   C1A11215  15.575   4.696   6.265  0.1170 -0.0243  0.0053
  705POPI   D2A11216  15.369   4.644   6.670 -0.4001 -0.2860  0.3106
  705POPI   C3A11217  15.187   4.265   6.838  0.0670 -0.1239 -0.2037
  705POPI   C4A11218  14.747   4.133   6.848  0.1577  0.0502  0.1935
  705POPI   C1B11219  15.058   4.631   6.280 -0.1762 -0.1893 -0.3594
  705POPI   C2B11220  14.840   4.579   6.659  0.0201 -0.2250 -0.0120
  705POPI   C3B11221  14.854   4.465   7.117 -0.1002 -0.0892 -0.1287
  705POPI   C4B11222  14.799   4.072   7.405  0.0905  0.1712 -0.0917
  706POPI    C111223  10.875  14.042   5.754 -0.1251  0.1629  0.0383
  706POPI    C211224  11.237  14.188   5.668 -0.1651  0.1295 -0.1929
  706POPI    C311225  10.926  14.436   5.707 -0.1177  0.1585  0.0088
  706POPI   PO411226  10.830  13.926   6.005 -0.1415 -0.0369 -0.0458
  706POPI   GL111227  10.954  14.182   6.358  0.0774 -0.0281 -0.1973
  706POPI   GL211228  11.122  14.425   6.171  0.0743 -0.1081 -0.2318
  706POPI   C1A11229  10.977  14.098   6.862  0.2024 -0.0174 -0.2606
  706POPI   D2A11230  10.660  13.979   7.196  0.0943  0.0931  0.0790
  706POPI   C3A11231  10.653  13.750   7.566 -0.2678 -0.0098  0.0767
  706POPI   C4A11232  10.691  13.457   7.878  0.0382  0.0154 -0.1472
  706POPI   C1B11233  11.313  14.394   6.662 -0.0502  0.0860 -0.0667
  706POPI   C2B11234  11.210  14.436   7.113  0.0702 -0.0535 -0.3641
  706POPI   C3B11235  10.877  14.381   7.474 -0.1935 -0.0382 -0.2792
  706POPI   C4B11236  10.463  14.330   7.553 -0.1415 -0.1384 -0.2986
  707POPI    C111237   6.802  11.630   5.973 -0.0442 -0.0025 -0.0860
  707POPI    C211238   6.719  11.514   5.599  0.1512 -0.2171 -0.0650
  707POPI    C311239   6.588  11.299   5.910 -0.1101  0.0240 -0.0037
  707POPI   PO411240   6.933  11.930   5.873  0.0760  0.0790  0.1857
  707POPI   GL111241   6.994  12.253   6.233 -0.2509  0.0324 -0.0429
  707POPI   GL211242   7.299  12.200   6.414  0.5286  0.0011  0.0346
  707POPI   C1A11243   6.839  11.969   6.548 -0.0119  0.0493  0.3019
  707POPI   D2A11244   7.075  11.864   6.851  0.0648  0.2971  0.1842
  707POPI   C3A11245   6.929  11.808   7.270  0.0281 -0.0329  0.0048
  707POPI   C4A11246   6.873  12.056   7.506  0.0473  0.0100  0.1136
  707POPI   C1B11247   7.388  12.246   6.806  0.0920 -0.0876 -0.2212
  707POPI   C2B11248   7.300  12.141   7.219 -0.0057 -0.1386 -0.0299
  707POPI   C3B11249   7.372  12.193   7.568  0.2860  0.1885  0.0682
  707POPI   C4B11250   7.186  12.305   7.921 -0.2643  0.1168  0.1260
  708POPI    C111251  15.686  11.113   5.821  0.0725 -0.1871  0.0629
  708POPI    C211252  15.683  11.409   5.553  0.1238 -0.0593  0.2019
  708POPI    C311253  15.846  11.056   5.459  0.1507 -0.0123  0.0689
  708POPI   PO411254  15.436  11.150   5.884 -0.0230 -0.1635  0.1307
  708POPI   GL111255  15.174  11.256   6.195  0.1014 -0.2075 -0.0097
  708POPI   GL211256  15.423  11.310   6.395 -0.0080 -0.0303  0.2031
  708POPI   C1A11257  14.919  11.318   6.522  0.1818  0.1463  0.0621
  708POPI   D2A11258  14.789  11.475   6.936  0.1814  0.3020  0.0768
  708POPI   C3A11259  14.837  11.368   7.276 -0.0893  0.3817 -0.1380
  708POPI   C4A11260  14.766  10.973   7.476  0.0811 -0.3952 -0.3653
  708POPI   C1B11261  15.285  11.391   6.865  0.0957  0.1783 -0.0484
  708POPI   C2B11262  15.344  11.247   7.390 -0.2613  0.4237 -0.0147
  708POPI   C3B11263  15.171  11.267   7.707 -0.2249  0.1207 -0.1772
  708POPI   C4B11264  14.953  11.606   7.832  0.1496  0.1485  0.2932
  709POPI    C111265   2.509   6.471   5.583  0.0228 -0.0690 -0.0098
  709POPI    C211266   2.169   6.392   5.780  0.0097  0.1834  0.0727
  709POPI    C311267   2.158   6.490   5.392  0.0084 -0.0113  0.0223
  709POPI   PO411268   2.643   6.603   5.771 -0.2570 -0.0102  0.1667
  709POPI   GL111269   2.836   6.616   6.125 -0.1348  0.1105 -0.1375
  709POPI   GL211270   3.122   6.610   6.379  0.1971  0.3137  0.4252
  709POPI   C1A11271   2.691   6.329   6.437 -0.0481 -0.3394  0.0266
  709POPI   D2A11272   2.688   6.460   6.880 -0.2271  0.2662 -0.1268
  709POPI   C3A11273   2.442   6.094   7.087  0.2010 -0.0522 -0.1645
  709POPI   C4A11274   1.963   6.047   7.214 -0.0270 -0.2351  0.3534
  709POPI   C1B11275   2.910   6.921   6.536  0.1345  0.1346  0.1851
  709POPI   C2B11276   2.677   7.037   6.941 -0.1694 -0.1320  0.3948
  709POPI   C3B11277   2.705   6.908   7.382 -0.1192  0.3764  0.0380
  709POPI   C4B11278   2.719   6.428   7.564  0.1961  0.1341  0.2613
  710POPI    C111279   2.738  11.589   5.767 -0.3240  0.4102 -0.0048
  710POPI    C211280   2.895  11.937   5.647  0.3200  0.1173 -0.0524
  710POPI    C311281   2.955  11.605   5.431 -0.2585 -0.0375  0.0097
  710POPI   PO411282   2.618  11.699   6.007 -0.1818  0.2496  0.3829
  710POPI   GL111283   2.499  11.550   6.331  0.0672 -0.0729 -0.1760
  710POPI   GL211284   2.083  11.501   6.265 -0.0074  0.0105 -0.0802
  710POPI   C1A11285   2.467  11.270   6.630 -0.2133 -0.2138 -0.1332
  710POPI   D2A11286   2.615  11.397   7.031 -0.0317 -0.1292 -0.1715
  710POPI   C3A11287   2.730  11.501   7.404  0.0080 -0.1037  0.0863
  710POPI   C4A11288   2.837  11.493   7.862  0.1713  0.0388 -0.0229
  710POPI   C1B11289   1.919  11.432   6.713  0.0064  0.1857 -0.0742
  710POPI   C2B11290   2.157  11.230   7.013  0.2079 -0.0784 -0.2218
  710POPI   C3B11291   2.074  11.135   7.408  0.2124 -0.4030  0.0345
  710POPI   C4B11292   2.081  11.226   7.855  0.0692  0.5093  0.1506
  711POPI    C111293  18.195   4.721   5.811 -0.1232  0.0522  0.2422
  711POPI    C211294  18.088   5.044   6.022 -0.2670  0.1364  0.0438
  711POPI    C311295  18.080   5.054   5.622  0.2228  0.0534  0.0253
  711POPI   PO411296  18.166   4.508   6.070 -0.0191 -0.3244 -0.0348
  711POPI   GL111297  18.412   4.375   6.352  0.2550 -0.0470 -0.0691
  711POPI   GL211298  18.430   4.046   6.293  0.1987 -0.6794 -0.1422
  711POPI   C1A11299  18.418   4.476   6.780 -0.3135 -0.1086  0.0580
  711POPI   D2A11300  18.436   4.461   7.185 -0.2865  0.1256  0.1781
  711POPI   C3A11301  18.334   4.118   7.468 -0.1224  0.1117  0.0714
  711POPI   C4A11302  18.264   3.943   7.791 -0.0142  0.0738  0.1327
  711POPI   C1B11303  18.581   4.035   6.707 -0.2550 -0.3114 -0.0259
  711POPI   C2B11304  18.746   4.073   7.148  0.1743 -0.1521  0.1178
  711POPI   C3B11305  18.886   4.117   7.559 -0.3590  0.3194 -0.1892
  711POPI   C4B11306  19.032   4.322   7.800 -0.2382 -0.1060 -0.1564
  712POPI    C111307   3.119   3.245   5.431  0.0098  0.2338  0.2066
  712POPI    C211308   2.933   3.598   5.454  0.0148  0.2542 -0.0387
  712POPI    C311309   3.297   3.574   5.290  0.0067  0.1318 -0.0395
  712POPI   PO411310   3.068   3.135   5.619 -0.1224  0.0827  0.3850
  712POPI   GL111311   2.846   2.954   5.966 -0.1381 -0.1093 -0.1947
  712POPI   GL211312   2.990   2.731   6.065 -0.1944  0.0248 -0.3851
  712POPI   C1A11313   2.548   2.954   6.239 -0.0743  0.0433  0.3360
  712POPI   D2A11314   2.040   3.022   6.304 -0.1521  0.0687  0.1834
  712POPI   C3A11315   1.956   3.104   6.707  0.0228 -0.2649 -0.0021
  712POPI   C4A11316   1.981   2.985   7.199  0.0594 -0.3427 -0.2321
  712POPI   C1B11317   2.972   2.814   6.411  0.1735  0.1940  0.0513
  712POPI   C2B11318   2.859   2.906   6.817 -0.0390 -0.0246  0.1498
  712POPI   C3B11319   2.609   2.995   7.185 -0.1115  0.3705 -0.0223
  712POPI   C4B11320   2.307   3.008   7.607  0.0671 -0.0772  0.0647
  713POPI    C111321  15.363   7.015   5.784 -0.0367 -0.1615  0.3363
  713POPI    C211322  15.409   6.827   5.433  0.1516 -0.1302  0.3429
  713POPI    C311323  15.083   6.760   5.655 -0.0614 -0.0056  0.0741
  713POPI   PO411324  15.716   7.003   5.850 -0.1659  0.1589  0.1408
  713POPI   GL111325  15.921   6.696   6.050  0.0787 -0.2629 -0.1424
  713POPI   GL211326  15.995   7.005   6.212  0.0108  0.1275 -0.3040
  713POPI   C1A11327  16.208   6.568   6.423  0.1986  0.1363  0.0224
  713POPI   D2A11328  16.528   6.698   6.666 -0.1627 -0.0404  0.0426
  713POPI   C3A11329  16.511   6.950   7.032 -0.1667  0.0061 -0.0712
  713POPI   C4A11330  16.509   7.170   7.410 -0.0464  0.3624  0.2407
  713POPI   C1B11331  15.942   7.097   6.615 -0.2539 -0.1212 -0.1253
  713POPI   C2B11332  15.718   7.050   7.006  0.1036 -0.0628 -0.2373
  713POPI   C3B11333  15.497   7.279   7.276  0.0525  0.3478  0.1787
  713POPI   C4B11334  15.383   7.597   7.574  0.0597  0.0029  0.0884
  714POPI    C111335   5.840  14.118   5.706  0.1697 -0.1380  0.0436
  714POPI    C211336   5.809  14.134   5.308  0.2196  0.1108  0.0484
  714POPI    C311337   5.603  13.860   5.513 -0.0107  0.1492 -0.1265
  714POPI   PO411338   5.754  14.267   5.862  0.1125  0.0097  0.0916
  714POPI   GL111339   5.764  14.205   6.298 -0.0957  0.3615  0.0252
  714POPI   GL211340   5.447  14.155   6.291  0.2685 -0.0091  0.3001
  714POPI   C1A11341   5.912  13.930   6.620  0.0250 -0.0368  0.1003
  714POPI   D2A11342   5.883  13.690   7.068  0.0215 -0.1274  0.3983
  714POPI   C3A11343   6.200  13.807   7.379  0.3403  0.0280 -0.3061
  714POPI   C4A11344   6.327  14.185   7.593  0.3490  0.1316 -0.1600
  714POPI   C1B11345   5.357  13.987   6.747  0.1395 -0.1206 -0.1733
  714POPI   C2B11346   5.487  14.173   7.195  0.1380  0.0347  0.0536
  714POPI   C3B11347   5.811  14.244   7.425  0.0549 -0.0871  0.0648
  714POPI   C4B11348   5.891  14.555   7.723 -0.0315  0.3543 -0.0020
  715POPI    C111349   8.635  13.022   5.591  0.0207 -0.0426 -0.1670
  715POPI    C211350   8.640  12.649   5.447  0.0131 -0.0998 -0.0207
  715POPI    C311351   8.941  12.899   5.364  0.0351 -0.1490 -0.0907
  715POPI   PO411352   8.478  13.005   5.775  0.0986 -0.0046  0.0173
  715POPI   GL111353   8.639  13.105   6.196 -0.2055 -0.2144  0.0844
  715POPI   GL211354   8.450  12.856   6.257  0.0397 -0.1420 -0.1152
  715POPI   C1A11355   9.001  13.171   6.572  0.0898  0.0589  0.3224
  715POPI   D2A11356   8.979  13.268   7.060  0.2921  0.0900 -0.0661
  715POPI   C3A11357   9.034  13.225   7.440  0.3243 -0.2695  0.2658
  715POPI   C4A11358   8.720  13.410   7.691  0.3766 -0.3513  0.1225
  715POPI   C1B11359   8.711  12.597   6.546  0.0293  0.0562 -0.0651
  715POPI   C2B11360   8.946  12.242   6.826 -0.0511 -0.1548  0.0643
  715POPI   C3B11361   9.214  12.072   7.010  0.2274 -0.1806  0.1788
  715POPI   C4B11362   9.197  11.821   7.412 -0.1619  0.0530 -0.2537
  716POPI    C111363  17.138  13.590   5.579  0.2550 -0.0775 -0.0936
  716POPI    C211364  17.239  13.826   5.272  0.1826 -0.1349 -0.1619
  716POPI    C311365  17.230  13.428   5.225  0.0469 -0.1370 -0.1218
  716POPI   PO411366  17.211  13.776   5.792 -0.1447  0.1958  0.2058
  716POPI   GL111367  17.178  13.718   6.291 -0.0196  0.2926  0.1568
  716POPI   GL211368  17.361  13.426   6.374 -0.0216 -0.1405  0.0747
  716POPI   C1A11369  16.953  13.839   6.645 -0.0905  0.6073 -0.2165
  716POPI   D2A11370  16.929  13.878   7.127  0.2146  0.1520 -0.2899
  716POPI   C3A11371  16.624  13.980   7.381  0.1709  0.1930 -0.1024
  716POPI   C4A11372  16.341  14.242   7.229  0.1783 -0.1112 -0.1414
  716POPI   C1B11373  17.205  13.371   6.797 -0.1283  0.0482  0.0090
  716POPI   C2B11374  17.404  13.441   7.235 -0.0735  0.0838  0.1495
  716POPI   C3B11375  17.280  13.339   7.690 -0.0761  0.3247 -0.1353
  716POPI   C4B11376  17.298  13.096   8.066 -0.0182 -0.0373 -0.0156
  717POPI    C111377   8.093   8.743   5.589 -0.1227  0.1992 -0.0182
  717POPI    C211378   8.452   8.914   5.637 -0.0113  0.0333 -0.2416
  717POPI    C311379   8.373   8.702   5.306 -0.3046  0.0393 -0.1786
  717POPI   PO411380   7.995   8.639   5.871  0.3621  0.1577 -0.2785
  717POPI   GL111381   8.403   8.669   6.122 -0.1378  0.0784 -0.5155
  717POPI   GL211382   8.707   8.542   6.042 -0.1649 -0.1505 -0.1967
  717POPI   C1A11383   8.490   8.655   6.528 -0.0533  0.0785 -0.3583
  717POPI   D2A11384   8.755   8.457   6.867 -0.0726 -0.0630  0.0675
  717POPI   C3A11385   8.956   8.080   7.043 -0.0849  0.4306  0.1268
  717POPI   C4A11386   9.002   7.688   7.245 -0.4311 -0.1438  0.1643
  717POPI   C1B11387   9.025   8.462   6.338  0.0070 -0.2444  0.0004
  717POPI   C2B11388   9.212   8.335   6.732  0.0321  0.0489  0.1374
  717POPI   C3B11389   9.214   8.496   7.125  0.0537  0.3232  0.1039
  717POPI   C4B11390   9.481   8.488   7.563 -0.2011 -0.1384 -0.1223
  718POPI    C111391   4.155   2.040   5.624  0.1455 -0.1215  0.2646
  718POPI    C211392   4.341   1.687   5.595 -0.0222 -0.1720 -0.3447
  718POPI    C311393   4.371   1.953   5.298  0.2066  0.3882  0.1607
  718POPI   PO411394   3.839   1.998   5.595 -0.0654  0.1794 -0.2240
  718POPI   GL111395   3.529   1.992   6.028 -0.1331 -0.2577  0.1297
  718POPI   GL211396   3.467   2.380   5.961  0.1517 -0.2817 -0.2684
  718POPI   C1A11397   3.406   2.033   6.448 -0.1507 -0.0210 -0.0329
  718POPI   D2A11398   3.366   2.082   6.739 -0.0098 -0.0017  0.0875
  718POPI   C3A11399   3.084   1.964   7.025 -0.0386  0.0176 -0.4316
  718POPI   C4A11400   2.837   1.997   7.439 -0.0504  0.0077  0.1101
  718POPI   C1B11401   3.407   2.556   6.312 -0.1690 -0.2153 -0.2934
  718POPI   C2B11402   3.364   2.645   6.801 -0.0020  0.5960 -0.1320
  718POPI   C3B11403   3.308   2.471   7.206 -0.0381 -0.0894  0.0449
  718POPI   C4B11404   3.302   2.240   7.551  0.0660 -0.0716  0.1846
  719POPI    C111405  14.817  15.715   5.426 -0.1552 -0.6603  0.1193
  719POPI    C211406  15.103  15.529   5.218  0.0289 -0.0085 -0.2382
  719POPI    C311407  14.730  15.544   5.075 -0.0544 -0.3364 -0.0671
  719POPI   PO411408  14.930  15.854   5.636  0.0070 -0.0930 -0.1267
  719POPI   GL111409  14.956  15.982   6.060 -0.2113  0.1884 -0.0325
  719POPI   GL211410  15.207  16.202   5.940 -0.1882  0.1706 -0.1837
  719POPI   C1A11411  15.031  15.914   6.521 -0.3831 -0.1624 -0.2395
  719POPI   D2A11412  15.315  15.776   6.932  0.2554 -0.1220 -0.0920
  719POPI   C3A11413  15.184  15.865   7.381  0.1705  0.1649 -0.0217
  719POPI   C4A11414  15.499  15.663   7.640  0.0466 -0.3273 -0.0275
  719POPI   C1B11415  15.223  16.368   6.367 -0.1945 -0.2175 -0.1178
  719POPI   C2B11416  15.240  16.411   6.822 -0.3146 -0.0352 -0.1064
  719POPI   C3B11417  15.223  16.340   7.236  0.2085 -0.0696  0.2419
  719POPI   C4B11418  15.355  16.442   7.604 -0.0107  0.3202  0.1460
  720POPI    C111419  11.784  14.740   5.580 -0.1137  0.0300  0.2115
  720POPI    C211420  11.996  15.076   5.531  0.0131 -0.1022 -0.1893
  720POPI    C311421  11.613  15.063   5.417 -0.0883  0.0022  0.1291
  720POPI   PO411422  11.861  14.699   5.884  0.0927 -0.1743  0.1927
  720POPI   GL111423  11.696  14.713   6.270 -0.0411  0.2731  0.0304
  720POPI   GL211424  11.653  14.362   6.266 -0.0227 -0.2902 -0.1643
  720POPI   C1A11425  11.646  14.883   6.676  0.1017  0.1800 -0.3670
  720POPI   D2A11426  11.897  14.869   7.070 -0.0266  0.1988  0.1168
  720POPI   C3A11427  12.232  14.589   7.107  0.1293  0.0503 -0.0384
  720POPI   C4A11428  12.492  14.440   6.729 -0.1144  0.0113 -0.1071
  720POPI   C1B11429  11.655  14.090   6.544  0.2832 -0.2754  0.2328
  720POPI   C2B11430  11.474  13.991   6.920 -0.0326  0.1355  0.1574
  720POPI   C3B11431  11.195  13.972   7.408 -0.1806 -0.1350 -0.0489
  720POPI   C4B11432  11.112  13.652   7.750  0.1434 -0.1079  0.0412
  721POPI    C111433   5.816   4.127   5.762  0.0375  0.0363 -0.0239
  721POPI    C211434   5.982   4.156   5.399 -0.0734 -0.1534 -0.0912
  721POPI    C311435   5.593   4.239   5.448 -0.1629 -0.5477 -0.1020
  721POPI   PO411436   5.868   3.994   5.848  0.0289  0.2196  0.0438
  721POPI   GL111437   5.687   3.787   6.107 -0.0818 -0.1952  0.0327
  721POPI   GL211438   5.389   3.563   6.153  0.3078  0.0966  0.0313
  721POPI   C1A11439   5.785   3.503   6.466 -0.0273 -0.3068 -0.1509
  721POPI   D2A11440   5.790   3.325   6.854  0.1086 -0.0337  0.1655
  721POPI   C3A11441   6.053   3.316   7.168  0.1129  0.1460  0.1113
  721POPI   C4A11442   6.065   3.272   7.562 -0.3234  0.2749 -0.0197
  721POPI   C1B11443   5.327   3.664   6.569  0.1872  0.0266  0.1647
  721POPI   C2B11444   5.412   3.620   6.990  0.3911 -0.0577 -0.0485
  721POPI   C3B11445   5.525   3.911   7.426  0.1408  0.1258 -0.2611
  721POPI   C4B11446   5.928   4.269   7.469  0.0057 -0.1588  0.2716
  722POPI    C111447   9.797  11.222   5.296  0.0787 -0.0721 -0.1420
  722POPI    C211448   9.649  11.431   4.989 -0.1564 -0.0447 -0.0126
  722POPI    C311449   9.480  11.085   5.096  0.0305 -0.1399 -0.0205
  722POPI   PO411450   9.828  11.328   5.501  0.1905 -0.1123  0.0752
  722POPI   GL111451   9.932  11.317   5.918  0.0682 -0.0161  0.0168
  722POPI   GL211452   9.856  10.959   6.133 -0.1226  0.0721 -0.1762
  722POPI   C1A11453   9.862  11.535   6.352 -0.0264 -0.0501 -0.0350
  722POPI   D2A11454   9.777  11.514   6.802 -0.2797  0.1419 -0.2822
  722POPI   C3A11455  10.087  11.526   7.099 -0.0109 -0.0384 -0.1107
  722POPI   C4A11456  10.048  11.689   7.548  0.0103 -0.0129  0.2630
  722POPI   C1B11457   9.817  11.057   6.535  0.3197 -0.0751  0.0572
  722POPI   C2B11458   9.757  11.063   6.981  0.2198 -0.3742  0.1192
  722POPI   C3B11459   9.586  11.373   7.311 -0.1618  0.3108 -0.1860
  722POPI   C4B11460   9.581  11.591   7.635  0.1622  0.0454  0.2623
  723POPI    C111461  13.391  12.477   5.818  0.2205  0.2935  0.0277
  723POPI    C211462  13.459  12.490   5.424  0.2754  0.2167  0.0341
  723POPI    C311463  13.142  12.679   5.579  0.1142  0.0418 -0.0778
  723POPI   PO411464  13.635  12.196   5.804  0.0518  0.0909  0.3176
  723POPI   GL111465  13.606  11.738   5.945 -0.0621 -0.0402  0.1484
  723POPI   GL211466  13.489  11.574   5.812  0.0507 -0.1516 -0.0386
  723POPI   C1A11467  13.593  11.811   6.375  0.3029 -0.0102  0.1922
  723POPI   D2A11468  13.395  11.977   6.751 -0.0594  0.3641  0.0876
  723POPI   C3A11469  13.271  11.778   7.162  0.0453 -0.1125  0.2266
  723POPI   C4A11470  13.241  11.518   7.447 -0.2166  0.0434 -0.1964
  723POPI   C1B11471  13.474  11.369   6.255  0.0794 -0.0045 -0.0015
  723POPI   C2B11472  13.410  11.399   6.681 -0.0060 -0.2639  0.4257
  723POPI   C3B11473  13.547  11.369   7.046  0.0445  0.0530  0.0552
  723POPI   C4B11474  13.731  11.439   7.425 -0.0268  0.2390 -0.4796
  724POPI    C111475  17.913  11.809   5.515 -0.0288  0.1271 -0.0146
  724POPI    C211476  17.544  11.871   5.372 -0.1728  0.0854  0.3279
  724POPI    C311477  17.639  11.519   5.536  0.1105 -0.0058 -0.0192
  724POPI   PO411478  18.014  12.080   5.641  0.2747 -0.1481 -0.1630
  724POPI   GL111479  18.042  12.424   5.968  0.3001 -0.3240  0.1968
  724POPI   GL211480  18.298  12.588   6.274  0.2867  0.1592 -0.0335
  724POPI   C1A11481  17.863  12.278   6.301 -0.0450 -0.0700  0.1885
  724POPI   D2A11482  17.673  11.990   6.508 -0.2662  0.0342  0.2061
  724POPI   C3A11483  17.537  12.008   6.930  0.0671 -0.1049 -0.1106
  724POPI   C4A11484  17.656  12.001   7.222  0.0777 -0.1458 -0.1432
  724POPI   C1B11485  18.155  12.600   6.681 -0.2619 -0.2921 -0.2713
  724POPI   C2B11486  17.902  12.394   6.915 -0.2250 -0.0936  0.2817
  724POPI   C3B11487  18.020  12.327   7.352  0.1146  0.2968 -0.0558
  724POPI   C4B11488  17.949  11.991   7.610 -0.2764  0.0447 -0.1566
  725POPI    C111489   3.865  13.589   5.886 -0.2327  0.0853  0.1141
  725POPI    C211490   3.985  13.910   5.679  0.1352  0.0012  0.1901
  725POPI    C311491   3.752  13.955   6.001  0.0689  0.1798  0.1184
  725POPI   PO411492   4.170  13.431   5.967  0.1026  0.0996 -0.1851
  725POPI   GL111493   4.086  13.163   6.316 -0.1890  0.0685  0.0886
  725POPI   GL211494   3.774  13.231   6.293  0.1352  0.0709  0.0401
  725POPI   C1A11495   3.908  13.401   6.730 -0.2291  0.0478  0.2866
  725POPI   D2A11496   3.929  13.532   7.173  0.0042  0.1628 -0.1505
  725POPI   C3A11497   4.300  13.594   7.451 -0.1935  0.1687 -0.2530
  725POPI   C4A11498   4.631  13.297   7.536  0.0522 -0.1020 -0.0733
  725POPI   C1B11499   3.442  13.350   6.639 -0.3016  0.0311  0.1801
  725POPI   C2B11500   3.473  13.355   7.083  0.0019  0.0861 -0.1001
  725POPI   C3B11501   3.430  13.222   7.403  0.1400  0.1438  0.1237
  725POPI   C4B11502   3.485  13.212   7.860  0.1018  0.4350 -0.0545
  726POPI    C111503   1.678   0.696   5.480 -0.1414 -0.0932 -0.1786
  726POPI    C211504   1.863   1.051   5.480 -0.0868 -0.1214 -0.1091
  726POPI    C311505   1.886   0.814   5.159 -0.0561 -0.0970 -0.1249
  726POPI   PO411506   1.526   0.864   5.826  0.0992 -0.0155 -0.2515
  726POPI   GL111507   1.261   0.754   6.171 -0.0730 -0.1994  0.2895
  726POPI   GL211508   1.425   1.118   6.259 -0.2023 -0.0961 -0.1474
  726POPI   C1A11509   1.169   0.836   6.565  0.2006  0.2036 -0.0708
  726POPI   D2A11510   0.854   0.770   6.911 -0.0083 -0.2680  0.2572
  726POPI   C3A11511   0.757   0.419   7.177 -0.0027 -0.1726  0.0122
  726POPI   C4A11512   0.936   0.133   7.142 -0.0553 -0.2041 -0.2069
  726POPI   C1B11513   1.557   1.139   6.634  0.2121  0.1754  0.2819
  726POPI   C2B11514   1.618   1.301   7.137  0.3686 -0.3119 -0.1478
  726POPI   C3B11515   1.854   1.301   7.473 -0.1913  0.1030  0.0502
  726POPI   C4B11516   1.953   1.089   7.898  0.1728  0.0305 -0.1953
  727POPI    C111517   1.142   7.957   5.496 -0.0208  0.0507  0.0252
  727POPI    C211518   0.912   8.200   5.275 -0.0360 -0.2767 -0.3296
  727POPI    C311519   1.223   8.011   5.108  0.2066 -0.2106  0.0337
  727POPI   PO411520   0.993   7.773   5.672 -0.0835 -0.0241  0.3075
  727POPI   GL111521   1.311   7.761   6.083 -0.0657 -0.1846  0.0521
  727POPI   GL211522   1.532   7.429   6.190  0.2718 -0.1119  0.0150
  727POPI   C1A11523   0.917   7.735   6.426  0.0754  0.2166 -0.0545
  727POPI   D2A11524   0.613   7.924   6.562 -0.1422 -0.0590 -0.0684
  727POPI   C3A11525   0.397   7.728   6.928 -0.0655  0.0717 -0.0229
  727POPI   C4A11526   0.176   7.544   7.306 -0.0534  0.0632  0.0786
  727POPI   C1B11527   1.283   7.404   6.610 -0.0200  0.0621 -0.0204
  727POPI   C2B11528   0.959   7.416   6.882 -0.0261  0.0969 -0.1072
  727POPI   C3B11529   0.646   7.431   7.232  0.1437  0.0161 -0.1746
  727POPI   C4B11530   0.658   7.457   7.687 -0.0619  0.0787  0.2192
  728POPI    C111531   2.790  10.665   5.669  0.2576 -0.0256 -0.0180
  728POPI    C211532   2.946  11.027   5.598  0.1313 -0.0210 -0.2876
  728POPI    C311533   2.610  10.914   5.412  0.1635 -0.2735 -0.1965
  728POPI   PO411534   2.855  10.683   5.999  0.1690 -0.0863  0.0711
  728POPI   GL111535   2.538  10.454   6.268  0.1231  0.1208  0.0958
  728POPI   GL211536   2.603  10.771   6.439  0.1933  0.2858 -0.0679
  728POPI   C1A11537   2.476  10.315   6.660 -0.3500 -0.2169  0.0240
  728POPI   D2A11538   2.488  10.306   7.107 -0.0705  0.0285  0.0466
  728POPI   C3A11539   2.145  10.376   7.326 -0.2655 -0.0019  0.1761
  728POPI   C4A11540   1.884  10.377   7.649 -0.0720  0.1066 -0.2236
  728POPI   C1B11541   2.532  10.767   6.912 -0.1667  0.4144 -0.2065
  728POPI   C2B11542   2.507  10.958   7.270  0.1218 -0.1509 -0.1156
  728POPI   C3B11543   2.535  11.128   7.763  0.1261 -0.1273  0.1089
  728POPI   C4B11544   2.571  11.254   8.218  0.0743  0.1969  0.1464
  729POPI    C111545   1.278   0.200   5.636 -0.1309 -0.0835 -0.0194
  729POPI    C211546   1.245   0.485   5.358  0.1993 -0.1210 -0.1010
  729POPI    C311547   1.014   0.159   5.338 -0.0378  0.0455 -0.1205
  729POPI   PO411548   1.367   0.325   5.852  0.4459  0.3214 -0.2907
  729POPI   GL111549   1.201   0.232   6.173  0.1457 -0.0952  0.1621
  729POPI   GL211550   1.187  -0.123   6.082  0.5793 -0.0990  0.1055
  729POPI   C1A11551   1.272   0.321   6.633 -0.1036  0.2221 -0.1341
  729POPI   D2A11552   1.362   0.437   6.973 -0.1313 -0.2966  0.2776
  729POPI   C3A11553   1.269   0.495   7.437  0.0848  0.1958  0.3435
  729POPI   C4A11554   1.012   0.465   7.746 -0.2047  0.0330  0.0110
  729POPI   C1B11555   1.215  -0.199   6.484  0.0113  0.2423  0.2332
  729POPI   C2B11556   1.434  -0.109   6.853 -0.3099 -0.1830  0.1576
  729POPI   C3B11557   1.385  -0.048   7.274  0.0729 -0.1818  0.2078
  729POPI   C4B11558   1.480  -0.018   7.725  0.0537 -0.2668 -0.2870
  730POPI    C111559  15.150  11.477   5.647  0.0633 -0.0233  0.0351
  730POPI    C211560  15.004  11.304   5.317  0.0453  0.1977 -0.0746
  730POPI    C311561  15.262  11.607   5.286  0.1423  0.1362  0.1165
  730POPI   PO411562  14.991  11.532   5.841  0.1342  0.0374  0.1683
  730POPI   GL111563  14.652  11.493   6.129  0.1181 -0.2474 -0.1025
  730POPI   GL211564  14.558  11.275   6.023  0.0530  0.3511  0.2795
  730POPI   C1A11565  14.852  11.771   6.450 -0.1035 -0.2493 -0.1864
  730POPI   D2A11566  15.142  11.851   6.773 -0.0507 -0.2157  0.2694
  730POPI   C3A11567  15.556  11.708   6.616  0.1913 -0.1772  0.4014
  730POPI   C4A11568  15.880  11.422   6.818  0.2011 -0.1397  0.3763
  730POPI   C1B11569  14.453  11.240   6.528 -0.2063  0.1695 -0.0568
  730POPI   C2B11570  14.518  11.024   6.954 -0.1885  0.2403  0.1650
  730POPI   C3B11571  14.252  10.913   7.265 -0.0835 -0.1511 -0.4771
  730POPI   C4B11572  14.328  10.715   7.734  0.1703  0.1687 -0.0835
  731POPI    C111573  10.457  16.494   5.568  0.1943  0.0817 -0.1917
  731POPI    C211574  10.319  16.678   5.241 -0.1494 -0.0131 -0.1038
  731POPI    C311575  10.661  16.472   5.225 -0.1566 -0.0054 -0.3991
  731POPI   PO411576  10.393  16.694   5.764 -0.2549 -0.0690  0.0894
  731POPI   GL111577  10.062  16.868   5.955 -0.2242 -0.4202 -0.0372
  731POPI   GL211578   9.704  16.998   5.924 -0.1190  0.0229  0.0103
  731POPI   C1A11579   9.936  16.805   6.383 -0.1999  0.2335  0.3438
  731POPI   D2A11580   9.671  16.560   6.663 -0.0378  0.1535  0.1244
  731POPI   C3A11581   9.415  16.239   6.878  0.3125 -0.0639 -0.0711
  731POPI   C4A11582   9.033  16.167   6.895  0.0557  0.1606 -0.0180
  731POPI   C1B11583   9.538  16.682   6.100 -0.2349 -0.0442  0.0401
  731POPI   C2B11584   9.436  16.323   6.188 -0.0734 -0.3045 -0.0167
  731POPI   C3B11585   9.144  16.049   6.398  0.0394  0.0224  0.1101
  731POPI   C4B11586   9.250  15.752   6.747 -0.1623 -0.0941 -0.0874
  732POPI    C111587  15.451  15.075   5.451  0.0750 -0.0366 -0.0628
  732POPI    C211588  15.730  14.935   5.200 -0.0845  0.1151 -0.3289
  732POPI    C311589  15.411  15.131   5.057 -0.1437  0.2654 -0.0013
  732POPI   PO411590  15.586  15.229   5.696 -0.0748  0.2055  0.2743
  732POPI   GL111591  15.547  15.329   6.049 -0.1140 -0.2715 -0.1040
  732POPI   GL211592  15.682  14.894   6.189  0.0974  0.3780 -0.0044
  732POPI   C1A11593  15.815  15.342   6.389 -0.0267 -0.1314  0.0876
  732POPI   D2A11594  16.139  15.323   6.581 -0.0028  0.1960 -0.0099
  732POPI   C3A11595  16.015  15.105   7.025  0.1050 -0.1830 -0.0373
  732POPI   C4A11596  16.197  14.781   7.333 -0.0991  0.1133 -0.0844
  732POPI   C1B11597  15.921  14.700   6.438 -0.2536  0.0667  0.3567
  732POPI   C2B11598  15.757  14.434   6.791  0.0980  0.2348 -0.2352
  732POPI   C3B11599  15.886  14.401   7.203  0.1408 -0.2404  0.0509
  732POPI   C4B11600  15.880  14.188   7.532 -0.0348 -0.2481 -0.1635
  733POPI    C111601  12.276  15.503   5.498 -0.0583  0.2287  0.1415
  733POPI    C211602  11.919  15.560   5.327 -0.0659 -0.0544  0.0572
  733POPI    C311603  12.230  15.787   5.219 -0.1763  0.0711 -0.0015
  733POPI   PO411604  12.337  15.479   5.830 -0.0092 -0.2193  0.0428
  733POPI   GL111605  12.514  15.702   6.133 -0.2305  0.0418 -0.1385
  733POPI   GL211606  12.525  16.026   6.256 -0.1880 -0.0706 -0.2442
  733POPI   C1A11607  12.848  15.612   6.417  0.0145  0.0966 -0.0959
  733POPI   D2A11608  13.081  15.789   6.823 -0.0199 -0.1806 -0.3943
  733POPI   C3A11609  13.117  15.533   7.263 -0.0577 -0.1302  0.0534
  733POPI   C4A11610  13.008  15.233   7.529  0.2322 -0.1000 -0.2523
  733POPI   C1B11611  12.584  16.044   6.822  0.2246  0.1827 -0.1394
  733POPI   C2B11612  12.790  16.068   7.169 -0.1823 -0.0511 -0.1764
  733POPI   C3B11613  12.939  16.429   7.383  0.1421 -0.0345 -0.0073
  733POPI   C4B11614  12.767  16.897   7.572 -0.2420 -0.1360 -0.3431
  734POPI    C111615  12.634   3.863   5.246 -0.0106 -0.0169 -0.0746
  734POPI    C211616  12.572   4.196   5.033  0.0871  0.0313 -0.0286
  734POPI    C311617  12.304   3.899   5.023 -0.1157  0.2064  0.1121
  734POPI   PO411618  12.821   3.880   5.298 -0.0196  0.1931 -0.1493
  734POPI   GL111619  12.923   3.765   5.761  0.2063 -0.1566 -0.0309
  734POPI   GL211620  12.716   3.511   5.742  0.2031  0.0040  0.1669
  734POPI   C1A11621  12.961   3.642   6.179  0.2965  0.0144  0.1062
  734POPI   D2A11622  12.934   3.435   6.554  0.0131 -0.0484 -0.0401
  734POPI   C3A11623  12.824   3.634   6.939  0.0105 -0.2807  0.0728
  734POPI   C4A11624  13.001   3.535   7.306  0.1971 -0.2317  0.0192
  734POPI   C1B11625  12.824   3.178   5.981 -0.0518 -0.3494  0.1423
  734POPI   C2B11626  12.669   3.050   6.416 -0.0761  0.2170  0.0749
  734POPI   C3B11627  12.542   3.197   6.825 -0.2712  0.0565  0.0450
  734POPI   C4B11628  12.429   3.415   7.251 -0.2413  0.0227  0.2130
  735POPI    C111629  10.452   5.386   5.054  0.2243 -0.0643  0.0651
  735POPI    C211630  10.800   5.477   4.880  0.0808  0.1806 -0.1004
  735POPI    C311631  10.539   5.238   4.693  0.1266  0.0577 -0.0092
  735POPI   PO411632  10.572   5.353   5.369 -0.0611 -0.1529  0.2133
  735POPI   GL111633  10.918   5.098   5.550  0.3550  0.2431 -0.1598
  735POPI   GL211634  10.924   4.743   5.589 -0.1546 -0.0171 -0.1459
  735POPI   C1A11635  10.848   5.041   6.007 -0.1880 -0.0800  0.0221
  735POPI   D2A11636  11.180   5.050   6.360 -0.2728 -0.0388 -0.0605
  735POPI   C3A11637  11.325   4.601   6.518  0.1764  0.2069  0.1481
  735POPI   C4A11638  11.514   4.200   6.320  0.0714 -0.3060  0.1302
  735POPI   C1B11639  11.063   4.497   5.997  0.2269 -0.0461  0.0519
  735POPI   C2B11640  11.026   4.141   6.292 -0.0124 -0.2179  0.3641
  735POPI   C3B11641  11.076   4.058   6.664 -0.0590 -0.0905  0.5857
  735POPI   C4B11642  11.076   4.331   7.069  0.1349  0.2660 -0.1576
  736POPI    C111643   9.484   8.845   5.276  0.0764 -0.0381 -0.3302
  736POPI    C211644   9.162   9.076   5.224  0.0944  0.0520 -0.0542
  736POPI    C311645   9.527   9.224   5.154  0.0879  0.0107 -0.1766
  736POPI   PO411646   9.425   8.749   5.540  0.2836  0.0255 -0.2136
  736POPI   GL111647   9.692   8.697   5.840 -0.0427  0.3824 -0.0664
  736POPI   GL211648   9.617   8.333   5.869  0.0098 -0.0272 -0.2620
  736POPI   C1A11649   9.896   8.736   6.202 -0.1508 -0.1784 -0.0103
  736POPI   D2A11650  10.097   8.514   6.584 -0.1839  0.0600 -0.0495
  736POPI   C3A11651  10.315   8.605   6.974  0.2654 -0.2073 -0.0238
  736POPI   C4A11652  10.435   8.457   7.347  0.2210  0.2268 -0.3635
  736POPI   C1B11653   9.544   8.202   6.324 -0.0769 -0.1360  0.2649
  736POPI   C2B11654   9.752   8.170   6.687  0.1892  0.3446 -0.0895
  736POPI   C3B11655   9.825   7.755   6.945  0.4534 -0.1472  0.2978
  736POPI   C4B11656  10.127   7.475   7.039 -0.0060  0.2494 -0.0761
  737POPI    C111657  10.220  10.406   5.295 -0.0716 -0.1603 -0.0157
  737POPI    C211658  10.493  10.119   5.353  0.1849  0.0940  0.0576
  737POPI    C311659  10.553  10.399   5.073 -0.1283  0.0003 -0.1078
  737POPI   PO411660  10.031  10.336   5.556  0.1012 -0.1015  0.2010
  737POPI   GL111661  10.078  10.304   5.993  0.0811  0.0975 -0.1406
  737POPI   GL211662  10.169   9.970   5.936  0.1840 -0.0268 -0.0450
  737POPI   C1A11663  10.293  10.256   6.362 -0.1805 -0.0791 -0.0236
  737POPI   D2A11664  10.535  10.270   6.737  0.0449  0.1153  0.0374
  737POPI   C3A11665  10.755  10.696   6.835  0.4865 -0.0143  0.0566
  737POPI   C4A11666  10.696  11.080   6.615 -0.1267 -0.0506  0.0219
  737POPI   C1B11667  10.451   9.800   6.150 -0.2197 -0.1284  0.2312
  737POPI   C2B11668  10.504   9.792   6.591  0.0177  0.1400 -0.1203
  737POPI   C3B11669  10.516   9.839   6.985 -0.0690  0.3593  0.2909
  737POPI   C4B11670  10.832  10.119   7.098 -0.0035 -0.3443 -0.2540
  738POPI    C111671   6.015   8.190   5.120 -0.0075 -0.0690  0.0998
  738POPI    C211672   5.630   8.289   5.078  0.0586  0.1391 -0.0345
  738POPI    C311673   5.774   7.964   4.895 -0.0838 -0.0214  0.1335
  738POPI   PO411674   5.961   8.262   5.587 -0.0641 -0.1963  0.0604
  738POPI   GL111675   5.859   8.199   6.048  0.1086 -0.0799  0.1146
  738POPI   GL211676   6.093   8.343   6.166  0.1042 -0.1099  0.0516
  738POPI   C1A11677   5.849   7.876   6.452 -0.0777 -0.1425 -0.2014
  738POPI   D2A11678   5.640   7.671   6.774 -0.1692 -0.3345  0.2699
  738POPI   C3A11679   5.816   7.315   7.032 -0.1764 -0.4082 -0.1690
  738POPI   C4A11680   5.986   7.177   7.380  0.0110 -0.1975 -0.1665
  738POPI   C1B11681   6.231   8.563   6.542 -0.1875 -0.3536 -0.1681
  738POPI   C2B11682   6.118   8.518   6.887 -0.2906  0.3162 -0.0447
  738POPI   C3B11683   5.989   8.423   7.253  0.2429 -0.0806 -0.1503
  738POPI   C4B11684   6.073   8.113   7.619 -0.2026  0.0460 -0.0874
  739POPI    C111685   8.126  18.367   5.254 -0.0573  0.1689  0.1446
  739POPI    C211686   7.954  18.698   5.111 -0.2738  0.0120  0.0352
  739POPI    C311687   7.824  18.339   4.993 -0.0412 -0.1131  0.1530
  739POPI   PO411688   8.179  18.517   5.555  0.4426 -0.2836 -0.1769
  739POPI   GL111689   8.343  18.443   5.933  0.2128 -0.2503 -0.0355
  739POPI   GL211690   7.936  18.416   6.010  0.2511 -0.1111  0.3649
  739POPI   C1A11691   8.466  18.617   6.256 -0.2447 -0.0423 -0.2505
  739POPI   D2A11692   8.383  18.876   6.658  0.1377  0.0601  0.1731
  739POPI   C3A11693   8.353  18.670   7.015 -0.1522  0.1488 -0.0815
  739POPI   C4A11694   8.081  18.660   7.435  0.1067 -0.2324 -0.1716
  739POPI   C1B11695   7.971  18.626   6.385  0.1852  0.3022 -0.2814
  739POPI   C2B11696   7.836  18.623   6.852  0.1666  0.1021 -0.0370
  739POPI   C3B11697   7.628  18.465   7.278  0.3213  0.1917  0.0068
  739POPI   C4B11698   7.279  18.718   7.489  0.1894  0.0139 -0.1623
  740POPI    C111699  15.502   2.609   5.497  0.0551 -0.1141 -0.0405
  740POPI    C211700  15.504   2.380   5.169 -0.1420  0.3019 -0.3406
  740POPI    C311701  15.252   2.690   5.196 -0.0831  0.3136  0.1807
  740POPI   PO411702  15.725   2.440   5.662 -0.0093 -0.1018 -0.0408
  740POPI   GL111703  16.008   2.466   6.030  0.3301 -0.0966  0.1223
  740POPI   GL211704  16.237   2.593   6.076  0.0427  0.0033 -0.0000
  740POPI   C1A11705  15.768   2.297   6.354  0.0505 -0.3338  0.1026
  740POPI   D2A11706  15.325   2.246   6.519 -0.0418  0.0353 -0.1578
  740POPI   C3A11707  14.959   2.118   6.412 -0.0233 -0.1699 -0.0018
  740POPI   C4A11708  14.845   1.665   6.258  0.3058 -0.3111  0.2904
  740POPI   C1B11709  16.201   2.618   6.494  0.3159 -0.0973 -0.1533
  740POPI   C2B11710  16.041   2.731   6.947 -0.3759  0.1083 -0.2582
  740POPI   C3B11711  15.855   3.035   7.200  0.1454  0.0527  0.1938
  740POPI   C4B11712  15.798   3.216   7.550 -0.0136 -0.2110 -0.2144
  741POPI    C111713   6.595  15.531   5.913 -0.0287 -0.1565 -0.0694
  741POPI    C211714   6.351  15.725   5.663  0.1225  0.1062 -0.0178
  741POPI    C311715   6.554  15.404   5.536 -0.0263  0.0606 -0.1442
  741POPI   PO411716   6.498  15.550   6.154  0.0248 -0.1768 -0.0466
  741POPI   GL111717   6.747  15.706   6.490 -0.2306  0.3190 -0.0841
  741POPI   GL211718   7.076  15.688   6.332 -0.0173 -0.3524 -0.3107
  741POPI   C1A11719   6.660  15.733   6.872 -0.0527  0.0251 -0.2330
  741POPI   D2A11720   6.527  15.682   7.229  0.0752 -0.1065 -0.2511
  741POPI   C3A11721   6.518  15.948   7.561  0.2122 -0.3364  0.0900
  741POPI   C4A11722   6.697  16.277   7.752  0.2388 -0.4736  0.1841
  741POPI   C1B11723   7.199  15.814   6.749 -0.0729 -0.1349  0.1050
  741POPI   C2B11724   7.227  15.922   7.157  0.0668 -0.0096  0.0397
  741POPI   C3B11725   7.054  15.745   7.519  0.1645  0.0064  0.3871
  741POPI   C4B11726   6.828  15.696   7.978 -0.2151 -0.0934  0.2143
  742POPI    C111727   8.604  10.851   5.537 -0.3508 -0.1196  0.2294
  742POPI    C211728   8.840  10.532   5.482 -0.2132  0.0370 -0.1182
  742POPI    C311729   8.647  10.694   5.171 -0.2089  0.3487  0.0372
  742POPI   PO411730   8.438  10.801   5.695 -0.0068  0.2982 -0.2140
  742POPI   GL111731   8.412  10.521   6.105 -0.0354  0.0547  0.0361
  742POPI   GL211732   8.247  10.247   6.249  0.2262 -0.0442  0.1140
  742POPI   C1A11733   8.878  10.593   6.358  0.1521  0.1491 -0.1549
  742POPI   D2A11734   8.938  10.999   6.466 -0.2707  0.1017  0.1330
  742POPI   C3A11735   8.767  11.150   6.944  0.1266  0.0033 -0.0469
  742POPI   C4A11736   8.714  10.908   7.324  0.1876  0.0167  0.1664
  742POPI   C1B11737   8.164  10.221   6.689  0.0466  0.0574  0.0464
  742POPI   C2B11738   8.071  10.398   7.058 -0.1413  0.0572  0.2854
  742POPI   C3B11739   8.000  10.149   7.439  0.2666 -0.1519 -0.0583
  742POPI   C4B11740   7.866  10.062   7.759  0.1327  0.0270  0.2397
  743POPI    C111741  10.569  12.800   5.642  0.1622  0.2537 -0.1868
  743POPI    C211742  10.803  12.516   5.799  0.0359  0.2311 -0.0373
  743POPI    C311743  10.878  12.656   5.432  0.0636 -0.0377 -0.1368
  743POPI   PO411744  10.422  12.945   5.871  0.2633  0.0931  0.0400
  743POPI   GL111745  10.316  12.998   6.275 -0.1345  0.3745  0.3628
  743POPI   GL211746  10.510  12.735   6.324 -0.3357  0.1378 -0.1808
  743POPI   C1A11747  10.218  12.890   6.741 -0.0680  0.4710 -0.1661
  743POPI   D2A11748   9.916  12.671   6.900 -0.0249 -0.0035 -0.2587
  743POPI   C3A11749   9.991  12.241   7.115 -0.0190  0.0512  0.1112
  743POPI   C4A11750   9.675  11.891   7.157  0.1552  0.2602  0.0302
  743POPI   C1B11751  10.844  12.644   6.559  0.1472 -0.0459 -0.0775
  743POPI   C2B11752  10.944  12.327   6.907  0.1493  0.3260  0.0794
  743POPI   C3B11753  11.105  12.141   7.244 -0.0578  0.0544  0.0339
  743POPI   C4B11754  11.363  11.839   7.398 -0.0837 -0.1016  0.2033
  744POPS   CNO11755   4.694   3.700   5.610 -0.1009 -0.1076  0.1594
  744POPS   PO411756   4.724   3.381   5.716  0.0482  0.1248  0.0161
  744POPS   GL111757   4.682   3.269   6.129  0.2023 -0.0799  0.1171
  744POPS   GL211758   4.966   3.306   6.312  0.1042  0.0230  0.1196
  744POPS   C1A11759   4.524   3.712   6.337 -0.0205  0.1884  0.0954
  744POPS   D2A11760   4.208   3.787   6.642  0.2795 -0.0448 -0.2841
  744POPS   C3A11761   4.309   3.743   7.044 -0.0419  0.1130 -0.0767
  744POPS   C4A11762   4.171   3.952   7.414  0.2628 -0.0654 -0.0099
  744POPS   C1B11763   4.909   3.462   6.727 -0.0584  0.0649  0.0881
  744POPS   C2B11764   4.794   3.598   7.037  0.3348  0.1099 -0.0623
  744POPS   C3B11765   4.623   3.758   7.448 -0.2959  0.0570 -0.1044
  744POPS   C4B11766   4.515   3.901   7.870 -0.0811 -0.2258 -0.1125
  745POPS   CNO11767   8.856   5.062   5.844  0.0406  0.1634 -0.2570
  745POPS   PO411768   9.293   5.000   5.680 -0.0242 -0.2197 -0.1351
  745POPS   GL111769   9.256   4.955   6.126 -0.1677  0.3715 -0.0918
  745POPS   GL211770   8.984   4.796   6.279 -0.1907 -0.2930  0.1647
  745POPS   C1A11771   9.585   4.797   6.399 -0.0533 -0.0576 -0.1610
  745POPS   D2A11772   9.739   4.681   6.702 -0.0320  0.0612  0.2398
  745POPS   C3A11773   9.966   4.935   6.946  0.1099 -0.0690  0.3026
  745POPS   C4A11774  10.281   4.863   7.275  0.3939  0.0819  0.0660
  745POPS   C1B11775   9.014   4.636   6.660  0.0724  0.0815  0.1015
  745POPS   C2B11776   9.024   4.544   7.095 -0.0976 -0.0962  0.3015
  745POPS   C3B11777   9.206   4.345   7.427  0.2560  0.1773  0.0102
  745POPS   C4B11778   9.682   4.365   7.446 -0.0761  0.1225 -0.0979
  746POPS   CNO11779  16.389  15.514   6.058 -0.1249  0.1908  0.0428
  746POPS   PO411780  16.768  15.683   6.037 -0.2124 -0.2052 -0.0295
  746POPS   GL111781  16.716  15.466   6.405 -0.3721  0.1346 -0.0159
  746POPS   GL211782  16.924  15.154   6.384  0.1458  0.2521 -0.4083
  746POPS   C1A11783  16.795  15.477   6.835  0.0439 -0.0358 -0.3178
  746POPS   D2A11784  16.886  15.450   7.245  0.2338  0.0514  0.4508
  746POPS   C3A11785  16.988  15.424   7.633 -0.3159 -0.1502  0.2811
  746POPS   C4A11786  17.301  15.243   7.742 -0.1914 -0.0251  0.0549
  746POPS   C1B11787  17.038  15.097   6.752 -0.2292  0.1894 -0.1039
  746POPS   C2B11788  17.045  14.878   7.280 -0.0915 -0.2619  0.2200
  746POPS   C3B11789  17.131  14.793   7.714 -0.0653  0.1936 -0.0126
  746POPS   C4B11790  17.078  14.735   8.048 -0.2485  0.0353  0.0179
  747POPS   CNO11791  17.459   8.490   5.147 -0.1928 -0.0500 -0.0089
  747POPS   PO411792  17.245   8.194   5.390 -0.3292 -0.2789  0.0344
  747POPS   GL111793  17.248   8.054   5.848 -0.0608  0.0812 -0.1273
  747POPS   GL211794  17.387   8.344   6.076 -0.0427 -0.3538 -0.1487
  747POPS   C1A11795  17.299   7.869   6.210 -0.0589  0.0784  0.1961
  747POPS   D2A11796  17.167   7.750   6.591  0.1155 -0.1087  0.0292
  747POPS   C3A11797  17.180   7.597   6.992 -0.0284  0.0987  0.3647
  747POPS   C4A11798  17.431   7.453   7.312  0.1598  0.1701 -0.0413
  747POPS   C1B11799  17.164   8.316   6.511  0.0502  0.0530  0.2455
  747POPS   C2B11800  17.062   8.340   6.813  0.0151 -0.0557  0.0535
  747POPS   C3B11801  16.986   8.456   7.234 -0.1437  0.0540  0.1742
  747POPS   C4B11802  16.998   8.637   7.656 -0.1772 -0.1791  0.0004
  748POPS   CNO11803  12.562   7.482   5.653 -0.0449 -0.3316 -0.2044
  748POPS   PO411804  12.762   7.132   5.806 -0.1064  0.1533 -0.0276
  748POPS   GL111805  12.620   7.525   6.135  0.0375  0.1675 -0.3611
  748POPS   GL211806  12.423   7.871   6.102 -0.2155 -0.0451 -0.1009
  748POPS   C1A11807  12.443   7.409   6.567 -0.2666  0.0387  0.0855
  748POPS   D2A11808  12.411   7.296   6.975 -0.0872  0.0165 -0.2003
  748POPS   C3A11809  12.630   6.995   7.262  0.2904 -0.1455  0.0832
  748POPS   C4A11810  13.061   7.025   7.410  0.0392  0.1133  0.1257
  748POPS   C1B11811  12.697   7.909   6.402 -0.0340  0.1195 -0.0250
  748POPS   C2B11812  12.788   8.168   6.657  0.1380 -0.0071  0.2674
  748POPS   C3B11813  12.567   8.436   6.925 -0.2184  0.0021  0.0014
  748POPS   C4B11814  12.604   8.430   7.229  0.2394  0.0174  0.0974
  749POPS   CNO11815   2.515   9.830   5.477  0.1682 -0.1737  0.1909
  749POPS   PO411816   2.787   9.830   5.874 -0.2695 -0.2146  0.1945
  749POPS   GL111817   2.916   9.762   6.352 -0.0040  0.1464 -0.1857
  749POPS   GL211818   2.816  10.030   6.559 -0.0720  0.1545 -0.0384
  749POPS   C1A11819   2.801   9.431   6.675  0.0863 -0.1888 -0.0196
  749POPS   D2A11820   2.545   9.370   7.116  0.1870 -0.0420  0.1678
  749POPS   C3A11821   2.857   9.375   7.507  0.1981 -0.0263 -0.0781
  749POPS   C4A11822   2.733   9.740   7.860 -0.0409 -0.0176  0.2042
  749POPS   C1B11823   2.676   9.890   6.896  0.3457  0.0672 -0.1458
  749POPS   C2B11824   2.613   9.859   7.362 -0.0097 -0.1479 -0.0393
  749POPS   C3B11825   2.432  10.102   7.654 -0.1112 -0.1248  0.0702
  749POPS   C4B11826   2.328  10.368   7.961  0.0654  0.1739  0.0270
  750POPS   CNO11827   0.335  10.961   5.839 -0.0043  0.2280  0.0083
  750POPS   PO411828   0.646  10.684   5.666 -0.1887  0.1606  0.0495
  750POPS   GL111829   0.878  10.681   6.075 -0.1452 -0.0344 -0.5000
  750POPS   GL211830   0.807  11.013   6.066  0.0716 -0.0859  0.1541
  750POPS   C1A11831   1.152  10.806   6.356 -0.0058  0.1722 -0.1027
  750POPS   D2A11832   1.193  10.959   6.795 -0.1715  0.0158  0.0214
  750POPS   C3A11833   1.272  10.993   7.297  0.2167 -0.3089  0.3282
  750POPS   C4A11834   1.216  11.012   7.741 -0.2286 -0.0967 -0.2617
  750POPS   C1B11835   0.963  11.311   6.317  0.1432  0.1268 -0.0403
  750POPS   C2B11836   0.739  11.555   6.503 -0.0476 -0.0391  0.0364
  750POPS   C3B11837   0.709  11.638   6.853  0.2423  0.1704  0.3039
  750POPS   C4B11838   0.686  11.668   7.317 -0.1692 -0.0188  0.1932
  751POPS   CNO11839   3.276   7.836   5.230  0.0452 -0.0140  0.0454
  751POPS   PO411840   3.380   7.897   5.668  0.1099 -0.0150 -0.1027
  751POPS   GL111841   3.465   7.904   6.097  0.0794 -0.3123  0.2235
  751POPS   GL211842   3.865   8.037   6.156  0.4450 -0.1155 -0.0884
  751POPS   C1A11843   3.180   7.778   6.364 -0.0859 -0.0257  0.1680
  751POPS   D2A11844   2.907   7.468   6.664 -0.0696 -0.5210 -0.1845
  751POPS   C3A11845   2.866   7.564   7.039 -0.1028  0.1314  0.2914
  751POPS   C4A11846   2.604   7.430   7.337 -0.2471 -0.2164 -0.1522
  751POPS   C1B11847   4.060   7.928   6.526  0.2041  0.1551  0.3522
  751POPS   C2B11848   4.181   7.583   6.553 -0.0673 -0.3978  0.1746
  751POPS   C3B11849   4.376   7.391   6.911 -0.1396 -0.1036 -0.1919
  751POPS   C4B11850   4.542   7.032   6.807  0.0859 -0.1538 -0.0370
  752POPS   CNO11851  11.341  13.217   5.898  0.2653 -0.1804  0.0138
  752POPS   PO411852  11.026  13.098   5.649  0.0507 -0.0731 -0.2250
  752POPS   GL111853  10.933  12.937   6.115  0.0635  0.2241  0.1723
  752POPS   GL211854  11.257  12.860   6.292 -0.2046 -0.2637 -0.2276
  752POPS   C1A11855  10.698  13.122   6.517  0.0860 -0.2267 -0.0860
  752POPS   D2A11856  10.674  12.997   6.988  0.0015 -0.2451 -0.2365
  752POPS   C3A11857  10.942  12.717   7.242  0.0692 -0.1718 -0.0239
  752POPS   C4A11858  11.379  12.539   7.448 -0.1697 -0.0115  0.0699
  752POPS   C1B11859  11.360  12.677   6.708 -0.0477 -0.0450  0.0855
  752POPS   C2B11860  11.431  12.949   7.112 -0.0240  0.1644  0.0808
  752POPS   C3B11861  11.284  13.113   7.452 -0.3596 -0.1924  0.2949
  752POPS   C4B11862  11.315  13.227   7.834 -0.0490  0.0429  0.0806
  753POPS   CNO11863  10.526  10.820   5.426 -0.2495 -0.2278 -0.0923
  753POPS   PO411864  10.412  11.231   5.479 -0.0948  0.0125  0.3351
  753POPS   GL111865  10.507  11.027   5.887 -0.1653  0.1666 -0.0735
  753POPS   GL211866  10.321  10.775   5.952  0.1343  0.0289  0.2041
  753POPS   C1A11867  10.327  11.195   6.235  0.0833 -0.1610  0.1953
  753POPS   D2A11868  10.230  11.404   6.619  0.0134 -0.1336  0.0520
  753POPS   C3A11869  10.581  11.496   6.811  0.0928  0.2703 -0.0472
  753POPS   C4A11870  10.520  11.557   7.303  0.1302 -0.0450 -0.1406
  753POPS   C1B11871  10.210  10.763   6.427  0.1452  0.1385  0.1418
  753POPS   C2B11872  10.255  10.976   6.863 -0.0293  0.1450 -0.0965
  753POPS   C3B11873  10.189  11.070   7.295  0.2024 -0.2328  0.2268
  753POPS   C4B11874   9.788  10.926   7.497 -0.1408  0.0060  0.0392
  754POPS   CNO11875   9.269   5.814   5.566  0.1329  0.0924 -0.1567
  754POPS   PO411876   8.807   5.614   5.722  0.2057  0.0527 -0.4284
  754POPS   GL111877   8.979   5.862   6.086 -0.0075  0.0406 -0.0028
  754POPS   GL211878   8.766   5.943   6.204 -0.0924 -0.4984  0.1257
  754POPS   C1A11879   9.031   5.843   6.597  0.1154  0.3145 -0.0500
  754POPS   D2A11880   9.240   5.656   6.971  0.0954  0.0908  0.0667
  754POPS   C3A11881   9.111   5.650   7.408 -0.0266  0.0959  0.2066
  754POPS   C4A11882   8.982   5.394   7.720  0.0910  0.0988 -0.1603
  754POPS   C1B11883   8.569   5.808   6.515  0.3427 -0.0983 -0.0557
  754POPS   C2B11884   8.588   5.420   6.697  0.0130  0.0712  0.0959
  754POPS   C3B11885   8.380   5.274   7.061 -0.1471  0.3977  0.0245
  754POPS   C4B11886   7.910   5.081   7.282  0.0718 -0.1568  0.0220
  755POPS   CNO11887  12.336  12.684   5.381 -0.1555 -0.1879  0.0192
  755POPS   PO411888  12.656  12.672   5.611 -0.0116  0.0641  0.1287
  755POPS   GL111889  12.289  12.720   5.859 -0.0138 -0.1847 -0.1378
  755POPS   GL211890  12.212  13.025   5.875  0.1425 -0.2619 -0.0902
  755POPS   C1A11891  12.091  12.481   6.125 -0.0091 -0.0354 -0.1471
  755POPS   D2A11892  12.045  12.165   6.446  0.2506  0.1966  0.2197
  755POPS   C3A11893  11.932  12.243   6.923  0.0336 -0.0880  0.2039
  755POPS   C4A11894  11.546  12.384   7.061 -0.0657 -0.1420  0.1104
  755POPS   C1B11895  12.083  12.994   6.258  0.2545  0.1972 -0.0472
  755POPS   C2B11896  12.379  12.997   6.531  0.0653  0.0630  0.0838
  755POPS   C3B11897  12.739  12.731   6.712 -0.0347 -0.0170  0.0080
  755POPS   C4B11898  13.220  12.725   6.761  0.3207 -0.1243 -0.1249
  756POPS   CNO11899  13.380   3.905   5.904  0.1193  0.2736 -0.0187
  756POPS   PO411900  13.725   3.720   5.739  0.2064 -0.0216 -0.0089
  756POPS   GL111901  13.956   4.089   5.881 -0.0562  0.0496 -0.1142
  756POPS   GL211902  14.266   4.167   5.660  0.3498 -0.0076  0.2724
  756POPS   C1A11903  13.958   4.422   6.057 -0.1332  0.4142  0.1637
  756POPS   D2A11904  14.030   4.709   6.253  0.0376 -0.0324 -0.0107
  756POPS   C3A11905  13.886   4.668   6.684 -0.4177  0.2715  0.1712
  756POPS   C4A11906  13.938   4.809   7.110 -0.2671 -0.0499 -0.1641
  756POPS   C1B11907  14.379   4.148   6.074  0.4303 -0.1014  0.1415
  756POPS   C2B11908  14.830   4.144   6.366 -0.0328  0.1430  0.0622
  756POPS   C3B11909  15.308   3.839   6.394 -0.0348 -0.0167  0.2073
  756POPS   C4B11910  15.571   3.648   6.620  0.4089  0.2883  0.0027
  757POPS   CNO11911   0.893   9.740   5.810  0.0096  0.1877 -0.1592
  757POPS   PO411912   0.838  10.189   5.853 -0.0712  0.1251 -0.3146
  757POPS   GL111913   0.689  10.240   6.299 -0.0825  0.0324  0.0962
  757POPS   GL211914   0.918  10.383   6.542 -0.1742  0.2920 -0.0914
  757POPS   C1A11915   0.478  10.132   6.596 -0.1199  0.0766  0.0773
  757POPS   D2A11916   0.602   9.925   6.968  0.4550  0.0229  0.1774
  757POPS   C3A11917   0.497   9.867   7.371 -0.3029  0.1936 -0.2316
  757POPS   C4A11918   0.633   9.660   7.725  0.1235 -0.0811 -0.1169
  757POPS   C1B11919   0.949  10.530   6.943  0.0651 -0.0710  0.1692
  757POPS   C2B11920   0.963  10.623   7.364  0.1010  0.2980  0.2186
  757POPS   C3B11921   1.068  10.578   7.798  0.0336 -0.1516  0.1752
  757POPS   C4B11922   1.275  10.686   8.226  0.1512 -0.1064 -0.1418
  758POPS   CNO11923   7.382  14.696   5.624  0.0021 -0.1171 -0.0314
  758POPS   PO411924   7.747  14.458   5.813 -0.0219 -0.0862  0.0450
  758POPS   GL111925   7.730  14.461   6.111 -0.3334 -0.0609  0.0408
  758POPS   GL211926   7.767  14.712   6.285 -0.0390 -0.0088 -0.0723
  758POPS   C1A11927   8.015  14.281   6.423 -0.1618 -0.2119  0.1139
  758POPS   D2A11928   8.286  14.491   6.690 -0.1320 -0.1876  0.3493
  758POPS   C3A11929   8.178  14.399   7.010  0.0395 -0.0645  0.4276
  758POPS   C4A11930   8.049  14.442   7.409 -0.0485  0.1398 -0.2582
  758POPS   C1B11931   7.703  14.646   6.712 -0.0091 -0.1875 -0.4913
  758POPS   C2B11932   7.601  14.492   7.081 -0.1863  0.3362  0.0354
  758POPS   C3B11933   7.461  14.429   7.494 -0.0329  0.2686 -0.0041
  758POPS   C4B11934   7.413  14.278   7.906  0.0580  0.0049  0.1341
  759POPS   CNO11935   2.017  18.148   5.938 -0.0403 -0.0939  0.1159
  759POPS   PO411936   2.445  17.984   5.730  0.1045 -0.1930 -0.1871
  759POPS   GL111937   2.456  17.920   6.126  0.1569  0.3003  0.0710
  759POPS   GL211938   2.179  17.863   6.380  0.0413 -0.0901  0.0211
  759POPS   C1A11939   2.567  18.105   6.535 -0.2237 -0.1460  0.1155
  759POPS   D2A11940   2.710  18.376   6.854 -0.2308 -0.2374 -0.4294
  759POPS   C3A11941   2.583  18.454   7.327 -0.0931 -0.3040 -0.0522
  759POPS   C4A11942   2.749  18.572   7.709  0.2429  0.0501 -0.1155
  759POPS   C1B11943   2.234  17.934   6.902  0.0427  0.0221  0.1047
  759POPS   C2B11944   2.225  17.977   7.371  0.0787  0.2923  0.0185
  759POPS   C3B11945   2.225  18.110   7.792 -0.1866  0.2399 -0.1790
  759POPS   C4B11946   2.376  18.412   8.071 -0.0087 -0.2336  0.1520
  760POPS   CNO11947  11.453  15.812   5.573 -0.1985 -0.0267  0.2919
  760POPS   PO411948  11.209  16.174   5.704  0.1069  0.0683  0.1677
  760POPS   GL111949  11.067  16.159   6.036  0.2411  0.0329 -0.3089
  760POPS   GL211950  10.727  16.228   6.035 -0.2704 -0.1243 -0.0102
  760POPS   C1A11951  11.053  16.171   6.449 -0.0941  0.1642 -0.1929
  760POPS   D2A11952  11.111  16.217   6.898  0.2125  0.0928  0.2885
  760POPS   C3A11953  10.945  16.257   7.215  0.0425  0.0351  0.1385
  760POPS   C4A11954  10.742  16.391   7.493 -0.2519  0.1053 -0.3110
  760POPS   C1B11955  10.572  16.269   6.447 -0.0648 -0.0268  0.1351
  760POPS   C2B11956  10.314  16.560   6.674 -0.1549 -0.2872  0.0022
  760POPS   C3B11957  10.009  16.733   6.938  0.4972 -0.2235  0.1505
  760POPS   C4B11958   9.833  16.809   7.385  0.1367  0.0450  0.0320
  761POPS   CNO11959  10.245   4.035   4.739 -0.1589  0.0584 -0.0654
  761POPS   PO411960  10.524   3.705   4.881 -0.0901  0.1686 -0.0144
  761POPS   GL111961  10.559   3.529   5.419  0.0367  0.1332 -0.1185
  761POPS   GL211962  10.774   3.357   5.490  0.0315 -0.0529 -0.1334
  761POPS   C1A11963  10.318   3.492   5.800  0.3144  0.2686 -0.0819
  761POPS   D2A11964  10.385   3.558   6.284 -0.1657 -0.0720 -0.4198
  761POPS   C3A11965  10.308   3.344   6.616 -0.2467  0.1346  0.0254
  761POPS   C4A11966  10.221   3.648   6.916 -0.0662 -0.1703  0.0407
  761POPS   C1B11967  10.851   3.653   5.805  0.0108 -0.0659 -0.1243
  761POPS   C2B11968  10.872   3.617   6.217 -0.0780 -0.1878  0.0665
  761POPS   C3B11969  10.874   3.649   6.555  0.3517  0.2072 -0.0966
  761POPS   C4B11970  10.699   3.483   6.938 -0.0811 -0.2003  0.2558
  762POPS   CNO11971   4.012  16.736   5.446  0.2764 -0.0462  0.2625
  762POPS   PO411972   4.066  16.373   5.695  0.0234 -0.0972 -0.1391
  762POPS   GL111973   4.096  16.554   6.043 -0.0140  0.1290 -0.1583
  762POPS   GL211974   3.887  16.199   6.163  0.5127 -0.3817  0.1114
  762POPS   C1A11975   3.953  16.868   6.408  0.1648 -0.0765 -0.2283
  762POPS   D2A11976   3.579  16.960   6.539 -0.3006 -0.1910  0.1225
  762POPS   C3A11977   3.214  16.974   6.469 -0.1591  0.0789 -0.0187
  762POPS   C4A11978   2.856  17.163   6.608 -0.1551 -0.3603 -0.1199
  762POPS   C1B11979   4.032  16.371   6.520 -0.1729 -0.0707 -0.1451
  762POPS   C2B11980   3.900  16.590   6.848 -0.3421  0.0303 -0.1794
  762POPS   C3B11981   3.844  16.551   7.306 -0.3008  0.0861  0.2940
  762POPS   C4B11982   3.662  16.400   7.606 -0.2317  0.0404  0.0496
  763POPS   CNO11983   6.560   4.178   5.403 -0.0113  0.1432 -0.1610
  763POPS   PO411984   6.618   3.834   5.773 -0.0254 -0.2587 -0.1482
  763POPS   GL111985   6.760   4.062   6.169  0.0536 -0.0480  0.1039
  763POPS   GL211986   6.762   4.307   6.224  0.0719 -0.1209 -0.2649
  763POPS   C1A11987   7.155   4.151   6.460 -0.1745 -0.1102  0.4381
  763POPS   D2A11988   7.418   4.024   6.848  0.1614 -0.3028  0.1391
  763POPS   C3A11989   7.257   3.836   7.150 -0.0698 -0.1478 -0.0732
  763POPS   C4A11990   7.245   3.723   7.573 -0.0716  0.1641  0.2793
  763POPS   C1B11991   6.862   4.505   6.602  0.2050  0.0946  0.2708
  763POPS   C2B11992   7.105   4.439   6.925 -0.1955  0.2165  0.1033
  763POPS   C3B11993   7.370   4.357   7.339 -0.0289  0.0897 -0.1653
  763POPS   C4B11994   7.646   4.059   7.422 -0.0235 -0.2581  0.2632
  764POPS   CNO11995   1.605  13.442   5.888  0.0092  0.2023  0.0739
  764POPS   PO411996   2.025  13.456   5.909  0.1958 -0.0412 -0.1606
  764POPS   GL111997   1.881  13.164   6.303  0.3454 -0.0301 -0.1829
  764POPS   GL211998   1.595  13.137   6.283  0.2230  0.2794 -0.0901
  764POPS   C1A11999   1.883  12.978   6.736 -0.2032 -0.0308 -0.0100
  764POPS   D2A12000   1.700  12.789   7.064 -0.2277  0.2304  0.1949
  764POPS   C3A12001   1.307  12.740   7.328  0.2234 -0.0981 -0.0686
  764POPS   C4A12002   0.810  12.665   7.307  0.1859 -0.0213 -0.2957
  764POPS   C1B12003   1.100  13.324   6.578 -0.0723  0.1571  0.0868
  764POPS   C2B12004   0.778  13.140   6.917 -0.1301 -0.0086  0.1240
  764POPS   C3B12005   0.559  13.132   7.383  0.1863  0.0514  0.2764
  764POPS   C4B12006   0.564  13.492   7.756 -0.0049 -0.1633 -0.2787
  765POPS   CNO12007  18.484   4.673   5.241 -0.3111 -0.1709  0.2419
  765POPS   PO412008  18.841   4.410   5.380 -0.0387  0.0001  0.0093
  765POPS   GL112009  19.097   4.515   5.812 -0.0236 -0.2519  0.1094
  765POPS   GL212010  19.341   4.613   5.829  0.1619 -0.1434  0.0725
  765POPS   C1A12011  19.018   4.602   6.224  0.1687 -0.2566 -0.1941
  765POPS   D2A12012  18.942   4.880   6.561 -0.3179 -0.1854  0.2807
  765POPS   C3A12013  18.825   4.783   6.998 -0.0729 -0.2146 -0.3678
  765POPS   C4A12014  18.887   4.644   7.448 -0.3953 -0.0728  0.2581
  765POPS   C1B12015  19.527   4.606   6.235 -0.0956 -0.0780  0.1483
  765POPS   C2B12016  19.395   4.668   6.598  0.2704 -0.2790 -0.0427
  765POPS   C3B12017  19.448   4.903   6.977 -0.0709  0.2347 -0.0288
  765POPS   C4B12018  19.255   4.968   7.222  0.2712  0.0813  0.2043
  766POPS   CNO12019   1.591  18.399   5.755 -0.0266  0.2563  0.1421
  766POPS   PO412020   1.463  18.015   5.886 -0.1889 -0.1244  0.0251
  766POPS   GL112021   1.635  18.217   6.230  0.4929  0.1885 -0.1650
  766POPS   GL212022   1.642  18.603   6.266  0.0071 -0.2429  0.1527
  766POPS   C1A12023   1.781  18.052   6.615  0.2194 -0.2445  0.2904
  766POPS   D2A12024   1.766  18.083   7.087  0.0083 -0.1200 -0.3516
  766POPS   C3A12025   1.954  18.414   7.256  0.0997 -0.2446 -0.1783
  766POPS   C4A12026   2.174  18.546   7.615 -0.2518 -0.0919  0.4052
  766POPS   C1B12027   1.774  18.763   6.692 -0.0741 -0.1834 -0.2206
  766POPS   C2B12028   1.813  18.851   7.097  0.1429 -0.0277  0.0727
  766POPS   C3B12029   1.774  18.843   7.551 -0.1006 -0.0657  0.0026
  766POPS   C4B12030   1.965  18.805   8.047 -0.0855 -0.0471 -0.0031
  767POPS   CNO12031  15.678  10.636   5.782  0.1788  0.1288  0.1802
  767POPS   PO412032  15.288  10.614   5.822  0.1926  0.1577  0.1452
  767POPS   GL112033  15.548  10.416   6.231 -0.3944 -0.0757  0.1698
  767POPS   GL212034  15.848  10.286   6.172 -0.0805 -0.1524 -0.0313
  767POPS   C1A12035  15.560  10.435   6.692 -0.1440  0.0830 -0.0182
  767POPS   D2A12036  15.476  10.058   6.963  0.0213  0.0824  0.0563
  767POPS   C3A12037  15.671   9.907   7.322 -0.1387  0.2602 -0.1313
  767POPS   C4A12038  15.934  10.122   7.775  0.2083  0.0810 -0.1763
  767POPS   C1B12039  16.194  10.334   6.372  0.0205  0.0825  0.0425
  767POPS   C2B12040  16.574  10.301   6.387 -0.2321 -0.3073  0.0731
  767POPS   C3B12041  16.971  10.207   6.603  0.2183  0.0776  0.0003
  767POPS   C4B12042  17.329  10.180   6.522  0.2024  0.0222  0.1009
  768POPS   CNO12043  16.949  17.783   5.368 -0.0034 -0.2240 -0.0577
  768POPS   PO412044  16.753  17.479   5.651  0.1555  0.0120  0.2218
  768POPS   GL112045  16.735  17.472   6.082 -0.0069 -0.0381  0.0079
  768POPS   GL212046  16.944  17.713   6.172 -0.1601 -0.0619  0.1398
  768POPS   C1A12047  16.626  17.617   6.510  0.2861  0.0632 -0.1155
  768POPS   D2A12048  16.531  17.661   6.906  0.1394  0.1353  0.2556
  768POPS   C3A12049  16.361  17.918   7.216  0.2860 -0.1286 -0.1753
  768POPS   C4A12050  16.398  18.201   7.672  0.0347 -0.1887  0.0115
  768POPS   C1B12051  17.072  17.783   6.558  0.0173 -0.0015  0.0654
  768POPS   C2B12052  17.006  17.866   6.991 -0.3365  0.1031 -0.2790
  768POPS   C3B12053  16.769  17.893   7.427  0.1194  0.0502 -0.1794
  768POPS   C4B12054  16.780  17.791   7.895 -0.0478 -0.0933  0.0515
  769POPS   CNO12055   1.457   6.153   5.171 -0.1895 -0.0773  0.0261
  769POPS   PO412056   1.733   6.193   5.586  0.3898 -0.3256  0.0778
  769POPS   GL112057   1.640   6.287   5.886 -0.3346  0.2754  0.0200
  769POPS   GL212058   1.770   6.543   6.136 -0.0599  0.2833 -0.0574
  769POPS   C1A12059   1.258   6.313   6.090  0.2354  0.0936  0.0475
  769POPS   D2A12060   0.923   6.554   6.128  0.1667  0.1215  0.2858
  769POPS   C3A12061   0.716   6.558   6.529  0.1879  0.1175 -0.1442
  769POPS   C4A12062   0.396   6.278   6.730 -0.2325  0.1014  0.0544
  769POPS   C1B12063   1.665   6.566   6.577 -0.0998  0.0084 -0.1581
  769POPS   C2B12064   1.616   6.684   7.063  0.1702 -0.2980  0.0470
  769POPS   C3B12065   1.843   6.707   7.429  0.5177 -0.0713  0.0529
  769POPS   C4B12066   1.957   6.801   7.865  0.0375  0.1756 -0.1869
  770POPS   CNO12067   6.265   0.252   5.488  0.1217  0.0181  0.2132
  770POPS   PO412068   6.610   0.232   5.707 -0.0048 -0.0343 -0.1182
  770POPS   GL112069   6.859   0.175   6.113 -0.3571  0.1336  0.0868
  770POPS   GL212070   6.889   0.500   6.256  0.0747  0.0557  0.4092
  770POPS   C1A12071   7.101   0.037   6.533 -0.2483 -0.1470  0.1394
  770POPS   D2A12072   7.399  -0.209   6.605 -0.2490  0.1029 -0.0226
  770POPS   C3A12073   7.415  -0.444   6.989 -0.1160 -0.3135  0.2891
  770POPS   C4A12074   7.528  -0.685   7.173 -0.3634 -0.1324 -0.1088
  770POPS   C1B12075   6.892   0.506   6.695 -0.2389 -0.0334  0.0635
  770POPS   C2B12076   6.977   0.589   7.118 -0.0329  0.2921  0.1978
  770POPS   C3B12077   6.799   0.642   7.497 -0.2972 -0.1136 -0.2871
  770POPS   C4B12078   6.612   0.402   7.830  0.0502  0.0310 -0.0209
  771POPS   CNO12079  16.234   0.933   5.136 -0.1647 -0.1019  0.2816
  771POPS   PO412080  16.457   1.094   5.470  0.0314 -0.3456 -0.1667
  771POPS   GL112081  16.585   0.942   5.846 -0.2211 -0.1021  0.2322
  771POPS   GL212082  16.417   0.820   6.130 -0.0683  0.2567 -0.0674
  771POPS   C1A12083  16.876   1.086   6.198 -0.2850 -0.0074 -0.2171
  771POPS   D2A12084  17.221   1.269   6.427 -0.2556 -0.1750 -0.0260
  771POPS   C3A12085  17.219   1.297   6.852 -0.4077  0.0376  0.3044
  771POPS   C4A12086  17.434   1.231   7.290 -0.0266  0.1022 -0.0685
  771POPS   C1B12087  16.480   0.695   6.484 -0.1795 -0.0354  0.4449
  771POPS   C2B12088  16.488   0.772   6.971  0.2155  0.0379  0.2842
  771POPS   C3B12089  16.223   0.710   7.245  0.0706  0.1352 -0.1441
  771POPS   C4B12090  16.092   0.410   7.566  0.4611  0.2645  0.0298
  772POPS   CNO12091   4.831   8.848   5.725  0.1295  0.0706  0.2871
  772POPS   PO412092   5.198   8.751   5.684  0.0734 -0.2799 -0.3756
  772POPS   GL112093   5.230   8.789   6.106 -0.1536 -0.0072 -0.0485
  772POPS   GL212094   4.960   8.679   6.220  0.0723  0.0230 -0.4611
  772POPS   C1A12095   5.415   8.689   6.474  0.3059  0.1265  0.1746
  772POPS   D2A12096   5.775   8.367   6.517  0.1964 -0.2380  0.1469
  772POPS   C3A12097   5.668   8.213   6.816 -0.0473 -0.1142 -0.0024
  772POPS   C4A12098   5.392   8.266   7.049 -0.0540  0.2449 -0.0094
  772POPS   C1B12099   4.823   8.927   6.445 -0.0880 -0.0713  0.0131
  772POPS   C2B12100   4.729   8.979   6.837 -0.0789  0.0578  0.0678
  772POPS   C3B12101   4.752   8.893   7.245 -0.1934 -0.0004 -0.1581
  772POPS   C4B12102   4.833   8.740   7.664 -0.0795  0.1249 -0.2122
  773POPS   CNO12103  14.660   7.733   4.946  0.4481 -0.0553  0.0020
  773POPS   PO412104  14.907   7.682   5.256  0.0919 -0.2883  0.0944
  773POPS   GL112105  15.108   7.599   5.713 -0.3192  0.0771  0.1303
  773POPS   GL212106  15.447   7.528   5.784  0.0215 -0.0430 -0.0627
  773POPS   C1A12107  15.094   7.323   6.129 -0.4438 -0.0280 -0.0856
  773POPS   D2A12108  14.987   7.141   6.529 -0.3171 -0.0096  0.0433
  773POPS   C3A12109  15.028   7.324   6.910  0.2585  0.1340  0.0078
  773POPS   C4A12110  15.032   7.498   7.253 -0.1906 -0.3631  0.3693
  773POPS   C1B12111  15.540   7.474   6.201  0.2549 -0.1958  0.3014
  773POPS   C2B12112  15.786   7.500   6.401  0.0173  0.2623 -0.2398
  773POPS   C3B12113  16.018   7.672   6.701  0.0671  0.1330 -0.0031
  773POPS   C4B12114  16.234   7.731   7.025  0.3114  0.0366  0.0345
  774POPS   CNO12115   4.521  10.344   6.125 -0.1639 -0.0943  0.0737
  774POPS   PO412116   4.185  10.164   5.869  0.0000 -0.2661  0.3721
  774POPS   GL112117   3.992  10.206   6.233 -0.0047 -0.3964 -0.1346
  774POPS   GL212118   3.791  10.057   6.260  0.1510 -0.0132  0.0305
  774POPS   C1A12119   4.223  10.304   6.521  0.3109 -0.0253  0.0247
  774POPS   D2A12120   4.288  10.202   6.952 -0.4473  0.0389  0.1880
  774POPS   C3A12121   4.522  10.572   7.063  0.2259 -0.0021  0.0113
  774POPS   C4A12122   4.887  10.699   7.108 -0.1544  0.1844 -0.0389
  774POPS   C1B12123   3.774  10.269   6.695 -0.0167 -0.0673 -0.1997
  774POPS   C2B12124   3.844  10.318   7.112 -0.0625 -0.1023 -0.0708
  774POPS   C3B12125   4.178  10.454   7.450 -0.0281 -0.0642  0.3226
  774POPS   C4B12126   4.180  10.746   7.745  0.1509  0.0079  0.0845
  775POPS   CNO12127   9.024  13.398   6.127 -0.0654  0.3108 -0.2222
  775POPS   PO412128   9.279  13.662   5.842 -0.1461 -0.0883  0.0865
  775POPS   GL112129   9.159  13.906   6.261  0.0272  0.0173 -0.3178
  775POPS   GL212130   9.527  13.938   6.358 -0.0786 -0.1232  0.0600
  775POPS   C1A12131   8.997  14.051   6.707  0.2011 -0.3272 -0.1112
  775POPS   D2A12132   8.735  14.387   6.934 -0.0454 -0.2048  0.1598
  775POPS   C3A12133   8.624  14.262   7.382 -0.0938  0.0986  0.0049
  775POPS   C4A12134   8.434  14.416   7.845  0.0726  0.0193 -0.1782
  775POPS   C1B12135   9.496  14.181   6.654  0.0114 -0.3221  0.1897
  775POPS   C2B12136   9.372  14.218   7.039 -0.2062 -0.0658 -0.1257
  775POPS   C3B12137   9.120  14.292   7.312  0.1674 -0.3511  0.1547
  775POPS   C4B12138   8.991  14.268   7.758  0.1145  0.1074 -0.0301
  776POPS   CNO12139   2.172   4.881   5.503  0.1649  0.2583  0.1377
  776POPS   PO412140   2.584   4.717   5.334 -0.3858 -0.3571 -0.2616
  776POPS   GL112141   2.527   4.522   5.745  0.0216 -0.3014  0.0704
  776POPS   GL212142   2.315   4.238   5.723  0.1135 -0.1736 -0.0116
  776POPS   C1A12143   2.499   4.552   6.201 -0.1313  0.0239  0.0713
  776POPS   D2A12144   2.544   4.425   6.631  0.0043  0.1424  0.1746
  776POPS   C3A12145   2.856   4.600   6.767  0.0138 -0.1004  0.0680
  776POPS   C4A12146   3.063   4.718   7.171 -0.0465 -0.2092 -0.0381
  776POPS   C1B12147   2.221   4.045   6.253  0.0016 -0.0652  0.1253
  776POPS   C2B12148   2.320   3.801   6.675 -0.1785 -0.0218 -0.0650
  776POPS   C3B12149   2.387   3.920   7.162  0.0358  0.2069 -0.1792
  776POPS   C4B12150   2.681   3.912   7.414 -0.0713  0.3921 -0.3384
  777POPS   CNO12151  14.964   1.962   5.806  0.0048  0.4478 -0.1877
  777POPS   PO412152  14.654   2.249   5.558  0.0911 -0.1776 -0.2156
  777POPS   GL112153  14.631   2.350   5.954  0.3125  0.1807 -0.0684
  777POPS   GL212154  14.567   2.124   6.135 -0.0912  0.1776  0.2029
  777POPS   C1A12155  14.722   2.538   6.337  0.1289  0.1190  0.0133
  777POPS   D2A12156  14.577   2.839   6.731  0.2159  0.3017  0.1803
  777POPS   C3A12157  14.411   3.000   7.156  0.0311 -0.4080  0.3074
  777POPS   C4A12158  14.136   3.056   7.525 -0.1602 -0.0709  0.0719
  777POPS   C1B12159  14.410   2.184   6.482  0.2649 -0.1198  0.1772
  777POPS   C2B12160  14.201   2.454   6.777  0.0046 -0.0158 -0.0112
  777POPS   C3B12161  14.487   2.531   7.208 -0.0364  0.3314  0.2301
  777POPS   C4B12162  14.472   2.726   7.623 -0.0659 -0.0559  0.0050
  778POPS   CNO12163  16.220   3.292   5.161 -0.1470  0.2803  0.2712
  778POPS   PO412164  16.413   3.336   5.578  0.2889  0.0792 -0.1486
  778POPS   GL112165  16.069   3.158   5.878 -0.0280  0.1873  0.0659
  778POPS   GL212166  15.767   2.903   5.897  0.1177  0.0242  0.1450
  778POPS   C1A12167  15.724   3.352   6.199 -0.1350  0.1878  0.1704
  778POPS   D2A12168  15.273   3.342   6.263  0.0208 -0.0411  0.0828
  778POPS   C3A12169  15.090   3.297   6.640  0.1863 -0.3246  0.1056
  778POPS   C4A12170  15.010   3.014   6.941 -0.1489  0.2394  0.1462
  778POPS   C1B12171  15.716   2.870   6.314 -0.0050  0.0564  0.1151
  778POPS   C2B12172  15.673   2.703   6.648  0.1745 -0.0522 -0.1593
  778POPS   C3B12173  15.568   2.643   7.029 -0.2222 -0.2345 -0.1260
  778POPS   C4B12174  15.394   2.896   7.347 -0.0808 -0.1266 -0.0216
  779POPS   CNO12175   0.307  14.667   5.433  0.1911  0.3583 -0.1727
  779POPS   PO412176   0.103  14.489   5.842 -0.1313 -0.0167 -0.1047
  779POPS   GL112177   0.317  14.559   6.212 -0.0419  0.1082  0.0323
  779POPS   GL212178   0.558  14.312   6.314 -0.2216  0.1143 -0.1006
  779POPS   C1A12179   0.259  14.542   6.672  0.3284  0.3199  0.0935
  779POPS   D2A12180   0.250  14.403   7.058  0.0466 -0.0814  0.1540
  779POPS   C3A12181  -0.109  14.482   7.270 -0.2309  0.0025  0.1054
  779POPS   C4A12182  -0.440  14.418   7.566  0.1872 -0.0807 -0.3849
  779POPS   C1B12183   0.636  14.139   6.689 -0.2767  0.0386 -0.0387
  779POPS   C2B12184   0.954  14.023   6.895 -0.1227 -0.4271  0.2793
  779POPS   C3B12185   1.206  13.969   7.257 -0.1109 -0.1715 -0.1012
  779POPS   C4B12186   1.370  13.720   7.672 -0.1200 -0.1136 -0.3011
  780POPS   CNO12187   1.629  17.263   5.856 -0.1903 -0.0851  0.0858
  780POPS   PO412188   1.396  17.574   5.758  0.1744 -0.2293 -0.0531
  780POPS   GL112189   1.252  17.573   6.166  0.0934 -0.2048 -0.0840
  780POPS   GL212190   1.305  17.840   6.350 -0.2816 -0.0459  0.1293
  780POPS   C1A12191   0.926  17.576   6.570 -0.0894  0.2235  0.0266
  780POPS   D2A12192   0.856  17.637   6.983 -0.0860  0.1219  0.2451
  780POPS   C3A12193   0.552  17.547   7.167 -0.2188  0.3166 -0.0240
  780POPS   C4A12194   0.073  17.586   7.086  0.2560 -0.1679  0.2787
  780POPS   C1B12195   1.315  17.858   6.741  0.0800  0.3056 -0.2526
  780POPS   C2B12196   1.357  17.831   7.137 -0.5120  0.1133  0.1912
  780POPS   C3B12197   1.426  17.998   7.421  0.0575  0.1746 -0.3839
  780POPS   C4B12198   1.735  18.105   7.616  0.2361  0.2773 -0.1001
  781POPS   CNO12199   4.371   6.838   5.584 -0.1958 -0.1343  0.2422
  781POPS   PO412200   4.780   7.021   5.453  0.0223 -0.1144  0.1647
  781POPS   GL112201   4.689   6.885   5.998 -0.4832  0.2459 -0.2263
  781POPS   GL212202   4.423   6.928   6.141 -0.0286 -0.0124 -0.1626
  781POPS   C1A12203   4.888   6.887   6.460 -0.0205  0.2279  0.0653
  781POPS   D2A12204   5.024   6.931   6.877 -0.0688 -0.0259 -0.2836
  781POPS   C3A12205   4.970   7.095   7.322 -0.1509  0.2391 -0.0687
  781POPS   C4A12206   5.244   7.299   7.698  0.1176 -0.0069  0.0339
  781POPS   C1B12207   4.568   7.241   6.376  0.2456 -0.1432 -0.0392
  781POPS   C2B12208   4.879   7.396   6.733  0.2182  0.2308  0.3587
  781POPS   C3B12209   4.841   7.505   7.094  0.0748  0.2507 -0.0113
  781POPS   C4B12210   4.628   7.462   7.427 -0.3488  0.5330  0.0504
  782POPS   CNO12211   1.411   4.293   5.353 -0.1270  0.0864 -0.3643
  782POPS   PO412212   1.094   4.285   5.530 -0.1454 -0.1000  0.3370
  782POPS   GL112213   1.320   4.378   5.850  0.2807 -0.0180 -0.1027
  782POPS   GL212214   1.572   4.495   5.768  0.1582 -0.2073  0.0954
  782POPS   C1A12215   1.485   4.482   6.249  0.1448 -0.0012 -0.1786
  782POPS   D2A12216   1.538   4.431   6.679 -0.2492  0.0932  0.5620
  782POPS   C3A12217   1.249   4.604   6.880  0.2290  0.1875 -0.1733
  782POPS   C4A12218   1.182   4.603   7.278 -0.1013 -0.0069  0.2391
  782POPS   C1B12219   1.804   4.172   5.924 -0.3207  0.1641  0.1110
  782POPS   C2B12220   1.703   4.011   6.181 -0.3090 -0.0916 -0.3902
  782POPS   C3B12221   1.889   4.089   6.621  0.0100 -0.0745  0.0634
  782POPS   C4B12222   2.093   4.287   6.968  0.1577 -0.1652 -0.1420
  783POPS   CNO12223   8.928   3.045   5.412 -0.1753 -0.4361  0.1970
  783POPS   PO412224   8.734   2.598   5.579 -0.2118 -0.0164 -0.0610
  783POPS   GL112225   8.921   2.815   5.892  0.3124 -0.2440 -0.0215
  783POPS   GL212226   9.171   2.705   6.015  0.0873  0.0432  0.0487
  783POPS   C1A12227   8.747   2.843   6.290 -0.0579  0.0356  0.0184
  783POPS   D2A12228   8.767   2.823   6.776  0.1199 -0.1661  0.0963
  783POPS   C3A12229   8.291   2.963   6.857 -0.1437  0.1904 -0.1259
  783POPS   C4A12230   8.023   2.802   7.273  0.2972 -0.0610 -0.3842
  783POPS   C1B12231   9.237   2.567   6.338 -0.0899 -0.3317 -0.3684
  783POPS   C2B12232   9.257   2.597   6.795  0.1892  0.3724  0.0187
  783POPS   C3B12233   9.031   2.750   7.267 -0.1528  0.1080  0.0900
  783POPS   C4B12234   9.199   2.993   7.660 -0.4365 -0.0493  0.0209
  784POPS   CNO12235  11.706   7.383   5.517  0.0099 -0.1857  0.1036
  784POPS   PO412236  12.009   7.668   5.555  0.0620 -0.3922 -0.0454
  784POPS   GL112237  12.102   7.480   5.951  0.0979  0.0608  0.5428
  784POPS   GL212238  12.273   7.166   6.020  0.1089  0.0285  0.3621
  784POPS   C1A12239  11.721   7.397   6.377 -0.1940  0.0581  0.0223
  784POPS   D2A12240  11.527   7.097   6.636  0.2428 -0.4371  0.1480
  784POPS   C3A12241  11.529   7.178   7.104 -0.2639  0.1068  0.1539
  784POPS   C4A12242  11.451   7.248   7.501 -0.1468 -0.1832 -0.1175
  784POPS   C1B12243  12.115   7.092   6.470  0.3169 -0.1994  0.1566
  784POPS   C2B12244  11.965   7.344   6.812  0.3544  0.2563 -0.1427
  784POPS   C3B12245  11.641   7.579   6.826 -0.2033 -0.2240  0.0600
  784POPS   C4B12246  11.646   7.932   6.934  0.0443  0.0135  0.2188
  785POPS   CNO12247  18.007  10.811   5.633 -0.1584  0.0722  0.0326
  785POPS   PO412248  17.860  11.138   5.756 -0.0329  0.0913 -0.1400
  785POPS   GL112249  18.010  11.062   6.197  0.1026  0.1055 -0.2770
  785POPS   GL212250  18.056  10.675   6.157 -0.2806 -0.0663 -0.0267
  785POPS   C1A12251  18.154  11.149   6.629 -0.1156 -0.0807 -0.2533
  785POPS   D2A12252  18.392  11.367   6.873  0.1018 -0.1253 -0.0447
  785POPS   C3A12253  18.389  11.161   7.152  0.1034  0.1711 -0.3397
  785POPS   C4A12254  18.311  11.155   7.556 -0.1630 -0.0240 -0.0474
  785POPS   C1B12255  18.185  10.657   6.519 -0.0033 -0.2005 -0.1538
  785POPS   C2B12256  18.340  10.588   6.926 -0.0590  0.1494 -0.0183
  785POPS   C3B12257  18.186  10.501   7.280  0.0729 -0.1968 -0.0201
  785POPS   C4B12258  18.167  10.548   7.790 -0.0934  0.1146 -0.1376
  786POPS   CNO12259   0.828   0.559   6.234  0.0713  0.2359  0.2884
  786POPS   PO412260   0.523   0.626   5.907  0.0379  0.0350 -0.0727
  786POPS   GL112261   0.280   0.714   6.204  0.0205  0.0297  0.1469
  786POPS   GL212262   0.362   1.045   6.429 -0.2605 -0.1498 -0.0332
  786POPS   C1A12263   0.050   0.672   6.561 -0.0115 -0.4434  0.1449
  786POPS   D2A12264  -0.096   0.758   6.916 -0.0701 -0.0664 -0.1083
  786POPS   C3A12265  -0.430   0.474   7.105 -0.0347 -0.0059  0.0112
  786POPS   C4A12266  -0.549   0.334   7.560 -0.0604 -0.1954 -0.1253
  786POPS   C1B12267   0.329   1.111   6.877  0.0218 -0.0427  0.1303
  786POPS   C2B12268   0.481   0.902   7.284  0.3056  0.2594  0.0289
  786POPS   C3B12269   0.589   0.675   7.673  0.0653 -0.1326 -0.1363
  786POPS   C4B12270   0.626   0.208   7.905 -0.1651 -0.0317 -0.2314
  787POPS   CNO12271   0.196   6.513   5.322 -0.0609 -0.0910 -0.2544
  787POPS   PO412272   0.490   6.346   5.479 -0.0844  0.2054  0.0718
  787POPS   GL112273   0.607   6.262   5.877 -0.1220 -0.0128 -0.2096
  787POPS   GL212274   0.755   5.960   5.972 -0.1000  0.0914 -0.0744
  787POPS   C1A12275   0.299   6.248   6.244 -0.1468 -0.3538  0.2338
  787POPS   D2A12276  -0.066   6.330   6.561  0.1206  0.1494  0.0941
  787POPS   C3A12277  -0.371   6.029   6.581 -0.0697  0.0684 -0.0919
  787POPS   C4A12278  -0.721   5.727   6.644  0.3168  0.3582 -0.0605
  787POPS   C1B12279   0.958   6.077   6.413  0.0279 -0.1254 -0.4113
  787POPS   C2B12280   1.016   5.988   6.907  0.1383  0.4079 -0.1921
  787POPS   C3B12281   1.005   6.007   7.330 -0.1567 -0.0173  0.0606
  787POPS   C4B12282   0.950   6.269   7.670 -0.0851 -0.1561  0.1523
  788POPS   CNO12283  17.797   4.327   5.736  0.2917 -0.2462  0.0615
  788POPS   PO412284  17.448   4.465   5.523 -0.1676 -0.0410 -0.2484
  788POPS   GL112285  17.304   4.490   5.970 -0.2317  0.3171 -0.1446
  788POPS   GL212286  17.492   4.432   6.192 -0.0172  0.0231  0.0785
  788POPS   C1A12287  17.093   4.643   6.404  0.0733  0.1748  0.0324
  788POPS   D2A12288  16.933   4.449   6.842 -0.0908 -0.2804  0.1018
  788POPS   C3A12289  16.762   4.145   7.131 -0.1953  0.1768  0.1515
  788POPS   C4A12290  16.743   3.798   7.507 -0.1088 -0.1017  0.2366
  788POPS   C1B12291  17.678   4.380   6.585 -0.2669  0.1858 -0.0682
  788POPS   C2B12292  17.889   4.524   6.849 -0.0221 -0.3255 -0.2736
  788POPS   C3B12293  17.752   4.838   7.149 -0.1849 -0.2421  0.2316
  788POPS   C4B12294  17.731   5.053   7.530 -0.2035 -0.1516  0.1191
  789POPS   CNO12295  12.697   2.072   4.875 -0.2146  0.1394 -0.0077
  789POPS   PO412296  12.692   2.085   5.310  0.0673  0.2789  0.0285
  789POPS   GL112297  12.610   1.670   5.599 -0.1380  0.0563 -0.0684
  789POPS   GL212298  12.908   1.691   5.689  0.2699  0.0760  0.2196
  789POPS   C1A12299  12.409   1.510   5.999 -0.0086 -0.2371  0.2748
  789POPS   D2A12300  12.393   1.281   6.300  0.1204  0.1298  0.0620
  789POPS   C3A12301  12.105   1.458   6.715  0.2934 -0.2458  0.0151
  789POPS   C4A12302  11.779   1.570   6.995  0.1227  0.2568  0.3386
  789POPS   C1B12303  12.621   1.953   6.024  0.1636 -0.0751 -0.2942
  789POPS   C2B12304  12.402   2.170   6.308 -0.1579 -0.2246  0.2607
  789POPS   C3B12305  12.158   2.468   6.196  0.3528 -0.0096  0.3160
  789POPS   C4B12306  11.798   2.672   6.379 -0.0326  0.0579 -0.2718
  790POPS   CNO12307   3.517   3.076   5.167 -0.0711  0.0326 -0.1755
  790POPS   PO412308   3.526   2.853   5.609 -0.2495  0.0315 -0.1374
  790POPS   GL112309   3.440   3.068   5.978 -0.1574 -0.0272 -0.1983
  790POPS   GL212310   3.737   3.263   6.084 -0.0464 -0.1134  0.1140
  790POPS   C1A12311   3.378   3.101   6.475  0.0468  0.3303  0.0465
  790POPS   D2A12312   3.311   3.142   6.936  0.3685  0.1788  0.4549
  790POPS   C3A12313   3.117   2.886   7.323  0.0045 -0.0913 -0.0906
  790POPS   C4A12314   2.840   2.919   7.630  0.0985 -0.1494  0.1431
  790POPS   C1B12315   4.210   3.335   6.322  0.1018  0.3846 -0.0021
  790POPS   C2B12316   4.418   3.320   6.718 -0.2307 -0.1860 -0.2610
  790POPS   C3B12317   4.277   3.172   7.027 -0.1524 -0.0859  0.1024
  790POPS   C4B12318   4.189   2.928   7.257 -0.5571  0.0077 -0.0625
  791POPS   CNO12319   0.947   2.684   5.760 -0.3330 -0.2816  0.1867
  791POPS   PO412320   1.142   2.315   5.802  0.1559 -0.1672 -0.2706
  791POPS   GL112321   0.910   2.296   6.235  0.0930  0.1012  0.0582
  791POPS   GL212322   0.674   2.487   6.313  0.0400 -0.0172  0.1608
  791POPS   C1A12323   0.908   2.040   6.540  0.0866 -0.2616 -0.0728
  791POPS   D2A12324   0.699   1.960   6.942  0.1598 -0.0301 -0.1206
  791POPS   C3A12325   0.877   1.681   7.098  0.1696 -0.1696 -0.1331
  791POPS   C4A12326   0.735   1.333   7.292  0.2084  0.2852 -0.1004
  791POPS   C1B12327   0.659   2.450   6.793  0.0707  0.1332  0.2511
  791POPS   C2B12328   0.662   2.341   7.264 -0.1681  0.0396  0.4626
  791POPS   C3B12329   0.908   2.021   7.474  0.0612  0.0707  0.1478
  791POPS   C4B12330   1.325   1.871   7.746  0.0039  0.1193 -0.1468
  792POPS   CNO12331  11.762   1.432   4.787  0.0769  0.1094  0.0363
  792POPS   PO412332  11.919   1.617   5.094  0.2611 -0.1578 -0.2080
  792POPS   GL112333  12.119   1.954   5.459  0.0297  0.0307 -0.2067
  792POPS   GL212334  11.761   1.873   5.613 -0.0068 -0.2894 -0.1143
  792POPS   C1A12335  12.122   1.986   5.951 -0.0400  0.0144 -0.3257
  792POPS   D2A12336  12.091   1.736   6.278  0.0554  0.3069 -0.2763
  792POPS   C3A12337  11.718   1.607   6.427  0.1972  0.1078 -0.0044
  792POPS   C4A12338  11.465   1.339   6.702 -0.0449 -0.3893  0.0946
  792POPS   C1B12339  11.824   1.527   5.864  0.3104  0.0370  0.0309
  792POPS   C2B12340  11.994   1.101   5.899 -0.3213  0.2294 -0.2177
  792POPS   C3B12341  12.180   0.878   6.176  0.0584  0.1702 -0.1255
  792POPS   C4B12342  12.369   0.907   6.609  0.1261 -0.1887 -0.0526
  793POPS   CNO12343   0.655   7.053   5.906  0.0010 -0.0849  0.0440
  793POPS   PO412344   0.365   7.027   5.540  0.1882 -0.1855 -0.0014
  793POPS   GL112345   0.182   7.260   5.873 -0.0435  0.1329 -0.1453
  793POPS   GL212346   0.386   7.396   6.140  0.0690 -0.1621 -0.1376
  793POPS   C1A12347  -0.067   7.507   6.231 -0.3421 -0.1611 -0.4414
  793POPS   D2A12348   0.149   7.677   6.490 -0.0461 -0.1583  0.3921
  793POPS   C3A12349  -0.060   7.578   6.838  0.0911 -0.0946 -0.0180
  793POPS   C4A12350  -0.240   7.351   7.233  0.0705  0.0972  0.0548
  793POPS   C1B12351   0.464   6.976   6.340 -0.0583  0.3203 -0.2367
  793POPS   C2B12352   0.166   6.718   6.552 -0.2536 -0.2549 -0.1151
  793POPS   C3B12353  -0.049   6.667   6.990 -0.0320 -0.3566 -0.4012
  793POPS   C4B12354  -0.115   6.748   7.450  0.1609 -0.1717  0.3634
  794POPS   CNO12355   5.094  12.427   6.144  0.2774 -0.2958  0.2340
  794POPS   PO412356   5.336  12.029   5.917 -0.1452 -0.1664 -0.1867
  794POPS   GL112357   5.349  12.114   6.396  0.0542  0.1402 -0.0046
  794POPS   GL212358   5.575  12.455   6.578  0.0564 -0.5448 -0.1890
  794POPS   C1A12359   5.012  12.203   6.672  0.0003  0.4143  0.0858
  794POPS   D2A12360   4.793  12.267   7.124 -0.0384 -0.2301 -0.0181
  794POPS   C3A12361   4.505  12.006   7.333  0.4902 -0.0557 -0.1566
  794POPS   C4A12362   4.515  11.761   7.753  0.1046 -0.2616  0.0346
  794POPS   C1B12363   5.566  12.530   6.989  0.2265 -0.1992  0.0790
  794POPS   C2B12364   5.657  12.319   7.326 -0.0969  0.1417  0.0020
  794POPS   C3B12365   5.615  12.042   7.779 -0.1958  0.0306  0.1101
  794POPS   C4B12366   5.283  11.972   7.969 -0.1450 -0.0980 -0.1232
  795POPS   CNO12367   5.025  11.670   5.251 -0.0824 -0.0402 -0.1461
  795POPS   PO412368   5.122  11.632   5.660  0.3164  0.1490  0.0185
  795POPS   GL112369   5.178  11.637   6.162 -0.0633  0.0460 -0.0938
  795POPS   GL212370   5.435  11.358   6.203  0.0988  0.0239 -0.2260
  795POPS   C1A12371   4.990  11.735   6.577  0.1383  0.0163 -0.0872
  795POPS   D2A12372   4.941  11.816   7.041  0.0670 -0.1154  0.0152
  795POPS   C3A12373   4.647  11.533   7.304  0.3299  0.0243 -0.3035
  795POPS   C4A12374   4.505  11.275   7.702 -0.1524 -0.0636  0.1356
  795POPS   C1B12375   5.621  11.239   6.625 -0.2646  0.0853 -0.0700
  795POPS   C2B12376   5.688  11.152   7.031 -0.2270  0.1370  0.0229
  795POPS   C3B12377   5.603  11.189   7.414 -0.2507 -0.1163 -0.1841
  795POPS   C4B12378   5.392  11.584   7.635 -0.0164  0.2119  0.0909
  796POPS   CNO12379  10.127   3.625   5.132  0.4571  0.1370  0.1337
  796POPS   PO412380   9.876   3.970   5.168 -0.1815  0.0435  0.2179
  796POPS   GL112381   9.982   3.776   5.590 -0.0914 -0.1605 -0.0565
  796POPS   GL212382   9.705   3.470   5.596  0.1045  0.3048 -0.0303
  796POPS   C1A12383   9.993   3.807   6.077 -0.0290 -0.0445  0.4947
  796POPS   D2A12384   9.942   3.746   6.493 -0.2524 -0.1387  0.2007
  796POPS   C3A12385   9.748   3.786   6.966  0.1626  0.1991 -0.0750
  796POPS   C4A12386   9.955   3.938   7.321 -0.2234  0.0010  0.1769
  796POPS   C1B12387   9.821   3.354   6.021  0.3286 -0.0931  0.2698
  796POPS   C2B12388   9.791   3.265   6.443 -0.3086 -0.1558  0.3406
  796POPS   C3B12389   9.805   3.304   6.931  0.2344  0.0026  0.3714
  796POPS   C4B12390   9.850   3.443   7.359  0.0007 -0.2176 -0.1088
  797POPS   CNO12391  14.237   0.281   5.271  0.0445 -0.3290  0.1398
  797POPS   PO412392  14.177  -0.038   5.575 -0.0524 -0.2748  0.0742
  797POPS   GL112393  14.355   0.021   6.059 -0.0345  0.0484 -0.1875
  797POPS   GL212394  14.113   0.323   6.224  0.1304  0.1524 -0.2875
  797POPS   C1A12395  14.779   0.077   6.307  0.0282  0.4220 -0.0343
  797POPS   D2A12396  15.100   0.361   6.511  0.2279 -0.1235  0.1532
  797POPS   C3A12397  15.258   0.315   7.055 -0.0662 -0.0195 -0.0464
  797POPS   C4A12398  15.097   0.574   7.333  0.1292 -0.1849 -0.0115
  797POPS   C1B12399  14.001   0.314   6.800  0.1276  0.2757  0.0834
  797POPS   C2B12400  14.314   0.161   7.139 -0.3138 -0.3254  0.0896
  797POPS   C3B12401  14.448   0.046   7.596  0.0034  0.0556  0.2129
  797POPS   C4B12402  14.822   0.119   7.766 -0.1580  0.2607 -0.2079
  798POPS   CNO12403  10.953  15.767   5.801  0.4362  0.0077  0.2294
  798POPS   PO412404  10.788  15.328   5.889  0.2836  0.1260  0.1327
  798POPS   GL112405  11.162  15.268   6.181  0.0597  0.1380  0.1416
  798POPS   GL212406  11.251  14.953   6.296 -0.0831  0.0363  0.2501
  798POPS   C1A12407  11.328  15.316   6.643 -0.1821 -0.0135  0.1666
  798POPS   D2A12408  11.390  15.181   7.019 -0.0888 -0.0931  0.0807
  798POPS   C3A12409  11.355  15.406   7.377 -0.0878 -0.3029  0.0790
  798POPS   C4A12410  11.551  15.447   7.752  0.0954  0.2968  0.0427
  798POPS   C1B12411  11.120  14.870   6.707 -0.3488  0.0996  0.0873
  798POPS   C2B12412  10.811  15.064   6.911 -0.3225 -0.2480  0.1641
  798POPS   C3B12413  10.562  15.084   7.226 -0.3733 -0.1412 -0.4296
  798POPS   C4B12414  10.289  15.276   7.445 -0.1441 -0.1403 -0.0046
  799POPS   CNO12415   3.588  15.396   5.598  0.2499 -0.1556  0.3571
  799POPS   PO412416   3.309  15.168   5.823  0.1438 -0.0146 -0.1144
  799POPS   GL112417   3.228  15.376   6.182 -0.0295 -0.1056  0.2795
  799POPS   GL212418   3.064  15.711   6.189  0.0266  0.0342 -0.2098
  799POPS   C1A12419   3.186  15.538   6.676  0.2208  0.0164  0.0201
  799POPS   D2A12420   3.125  15.656   7.068 -0.2325 -0.0162  0.3583
  799POPS   C3A12421   3.310  15.481   7.384  0.0516 -0.1698  0.1456
  799POPS   C4A12422   3.603  15.531   7.620 -0.0221  0.0217 -0.0748
  799POPS   C1B12423   3.195  15.945   6.425 -0.0731 -0.1028  0.0389
  799POPS   C2B12424   3.099  16.102   6.807  0.1620  0.3520  0.0432
  799POPS   C3B12425   3.020  16.183   7.197 -0.1866 -0.1872 -0.0650
  799POPS   C4B12426   3.086  15.952   7.571  0.0379  0.2229  0.0129
  800POPS   CNO12427  16.409   0.143   5.696 -0.1013  0.1428  0.2009
  800POPS   PO412428  16.772  -0.023   5.895 -0.0646 -0.1345 -0.3908
  800POPS   GL112429  16.976   0.068   6.232 -0.0067 -0.0937 -0.3141
  800POPS   GL212430  17.109   0.289   6.025  0.1967  0.0055 -0.2292
  800POPS   C1A12431  17.111   0.227   6.667 -0.1720  0.0052 -0.0448
  800POPS   D2A12432  17.262   0.333   6.968  0.0981  0.1516 -0.1526
  800POPS   C3A12433  17.237   0.195   7.389  0.0628  0.2832 -0.0910
  800POPS   C4A12434  17.247   0.017   7.765  0.0517  0.3193 -0.3527
  800POPS   C1B12435  17.007   0.611   6.409 -0.1721 -0.0729 -0.0343
  800POPS   C2B12436  16.985   0.876   6.797 -0.0980 -0.1373 -0.0128
  800POPS   C3B12437  17.173   0.768   7.201  0.2526  0.0547  0.1333
  800POPS   C4B12438  17.633   0.620   7.330  0.1950 -0.2153  0.0882
  801POPS   CNO12439   3.560  13.594   5.446 -0.0283 -0.2729 -0.1820
  801POPS   PO412440   3.312  13.794   5.693  0.0451  0.0965  0.0954
  801POPS   GL112441   3.254  13.800   6.117 -0.1099 -0.0468  0.1396
  801POPS   GL212442   3.090  13.606   6.266 -0.0883  0.4049  0.2733
  801POPS   C1A12443   3.533  13.800   6.467 -0.3765 -0.1630  0.2162
  801POPS   D2A12444   3.554  13.834   6.937  0.0023  0.0929  0.0046
  801POPS   C3A12445   3.817  14.048   7.254  0.1427 -0.2645  0.0380
  801POPS   C4A12446   3.740  14.146   7.726 -0.0169 -0.2646  0.3798
  801POPS   C1B12447   3.083  13.745   6.738  0.2113  0.4547 -0.0992
  801POPS   C2B12448   3.149  13.724   7.215  0.1437  0.1733 -0.2287
  801POPS   C3B12449   3.561  13.688   7.475 -0.1482 -0.1436  0.0551
  801POPS   C4B12450   3.848  13.636   7.706 -0.1158 -0.1354 -0.0744
  802POPS   CNO12451   0.437  12.957   5.904 -0.0261  0.1855 -0.0076
  802POPS   PO412452   0.081  12.771   5.652  0.0667 -0.0103 -0.2451
  802POPS   GL112453  -0.254  12.876   5.883  0.3522 -0.1510 -0.0072
  802POPS   GL212454  -0.642  12.916   5.882  0.0889 -0.0162  0.1278
  802POPS   C1A12455  -0.336  13.102   6.251 -0.2069 -0.2794  0.4132
  802POPS   D2A12456  -0.243  13.095   6.600 -0.1355 -0.0320  0.0431
  802POPS   C3A12457   0.037  12.816   6.837  0.0748  0.2171  0.1351
  802POPS   C4A12458   0.408  12.796   6.902  0.1414 -0.3489  0.1510
  802POPS   C1B12459  -0.689  12.804   6.338  0.3144 -0.1879  0.1466
  802POPS   C2B12460  -0.679  12.978   6.769  0.2172 -0.0748 -0.0987
  802POPS   C3B12461  -0.665  12.813   7.215  0.2416 -0.0036  0.1175
  802POPS   C4B12462  -1.063  12.893   7.446  0.0480 -0.0864 -0.0691
  803POPS   CNO12463   0.970  16.352   5.404  0.1136 -0.2491  0.0890
  803POPS   PO412464   1.297  16.599   5.550 -0.0326 -0.2307 -0.1430
  803POPS   GL112465   1.449  16.598   6.009  0.1586 -0.0208 -0.1778
  803POPS   GL212466   1.559  16.799   6.015  0.0080  0.3149  0.1286
  803POPS   C1A12467   1.511  16.520   6.473 -0.2109  0.1429 -0.1823
  803POPS   D2A12468   1.631  16.314   6.819 -0.0222  0.0637  0.1852
  803POPS   C3A12469   1.411  16.402   7.157 -0.1999  0.2890 -0.1467
  803POPS   C4A12470   1.224  16.271   7.562  0.1140 -0.1413 -0.1907
  803POPS   C1B12471   1.488  17.050   6.385  0.1238 -0.0855 -0.0165
  803POPS   C2B12472   1.343  17.277   6.684  0.0037  0.0435  0.3073
  803POPS   C3B12473   1.247  17.352   7.150  0.0552 -0.2209 -0.0844
  803POPS   C4B12474   1.077  17.598   7.500 -0.1675  0.0671 -0.2768
  804POPS   CNO12475  14.878   4.957   5.265  0.0536 -0.2424  0.0381
  804POPS   PO412476  15.023   4.619   5.518 -0.1298 -0.0816  0.1689
  804POPS   GL112477  14.896   4.750   5.789 -0.0023  0.0305  0.0290
  804POPS   GL212478  15.043   5.111   5.743 -0.2627  0.3624 -0.0393
  804POPS   C1A12479  14.576   4.646   6.064  0.2392  0.0522  0.1026
  804POPS   D2A12480  14.419   4.436   6.461  0.0262  0.1646  0.0841
  804POPS   C3A12481  14.171   4.095   6.507 -0.1945  0.0816  0.2581
  804POPS   C4A12482  14.016   3.737   6.401  0.0375  0.0760 -0.5568
  804POPS   C1B12483  14.861   5.051   6.185  0.0122 -0.0704 -0.1849
  804POPS   C2B12484  14.857   5.311   6.543  0.0380  0.1739  0.1734
  804POPS   C3B12485  14.839   5.557   7.006  0.1235  0.2104  0.0170
  804POPS   C4B12486  14.726   5.519   7.443 -0.2455  0.0717  0.0315
  805POPS   CNO12487   3.854  11.328   5.237  0.2625 -0.3225  0.1286
  805POPS   PO412488   4.041  11.560   5.604 -0.1969 -0.0660  0.0738
  805POPS   GL112489   3.742  11.595   5.938  0.1449  0.2334 -0.2910
  805POPS   GL212490   3.862  11.806   6.137  0.1159 -0.0677 -0.2074
  805POPS   C1A12491   3.386  11.669   6.377 -0.1537  0.1103  0.1480
  805POPS   D2A12492   2.950  11.542   6.444 -0.3086  0.2891  0.1545
  805POPS   C3A12493   2.704  11.770   6.710 -0.1126 -0.1136 -0.0351
  805POPS   C4A12494   2.736  11.965   7.122 -0.0219  0.0644  0.2507
  805POPS   C1B12495   3.926  11.724   6.511  0.2007 -0.0169 -0.1462
  805POPS   C2B12496   3.692  11.771   6.781 -0.1649  0.2658  0.0403
  805POPS   C3B12497   3.557  11.824   7.189 -0.1602  0.0481 -0.0755
  805POPS   C4B12498   3.252  12.059   7.385  0.0312 -0.1642 -0.1434
  806POPS   CNO12499   7.823  12.173   5.407  0.3292 -0.0764  0.3551
  806POPS   PO412500   7.906  12.129   5.814  0.0904  0.1220 -0.1759
  806POPS   GL112501   7.944  11.813   6.105  0.1515 -0.2461  0.1369
  806POPS   GL212502   8.200  11.779   6.345 -0.2395  0.0684  0.1770
  806POPS   C1A12503   7.748  11.883   6.460 -0.3214 -0.0606  0.1330
  806POPS   D2A12504   7.559  11.803   6.986 -0.0727 -0.0366  0.1529
  806POPS   C3A12505   7.575  11.696   7.383  0.0477  0.0249 -0.1551
  806POPS   C4A12506   7.565  11.559   7.690  0.1028  0.0244  0.1437
  806POPS   C1B12507   8.180  11.803   6.754 -0.2070  0.0079 -0.2467
  806POPS   C2B12508   8.123  11.789   7.265 -0.2541 -0.0599  0.0258
  806POPS   C3B12509   8.069  11.480   7.545  0.3081  0.0972 -0.2237
  806POPS   C4B12510   7.911  11.204   7.864  0.0449 -0.0696 -0.1344
  807POPS   CNO12511  12.833  16.908   5.506  0.0601  0.2687  0.0438
  807POPS   PO412512  12.783  16.486   5.478  0.0007  0.2409  0.1558
  807POPS   GL112513  12.582  16.529   5.970  0.0580 -0.0684  0.0285
  807POPS   GL212514  12.424  16.774   5.928  0.1615  0.0862  0.4041
  807POPS   C1A12515  12.721  16.577   6.409  0.1155 -0.1433 -0.2441
  807POPS   D2A12516  12.795  16.483   6.822 -0.0979 -0.0651  0.0541
  807POPS   C3A12517  12.906  16.822   7.076 -0.1085 -0.0396 -0.1179
  807POPS   C4A12518  12.742  17.274   6.992  0.0760 -0.1377  0.1186
  807POPS   C1B12519  12.449  17.001   6.364  0.0220  0.0135  0.1940
  807POPS   C2B12520  12.457  16.938   6.824 -0.0991 -0.1532 -0.2386
  807POPS   C3B12521  12.416  16.910   7.255  0.1142  0.2084 -0.0082
  807POPS   C4B12522  12.381  16.664   7.684  0.0124 -0.0338 -0.3764
  808POPS   CNO12523   2.145  11.021   5.146 -0.2188  0.1385  0.0543
  808POPS   PO412524   1.903  11.023   5.514 -0.1553 -0.0787 -0.0477
  808POPS   GL112525   1.823  11.126   5.978 -0.0574 -0.0229 -0.1648
  808POPS   GL212526   1.568  11.374   6.051 -0.4109 -0.0159  0.0394
  808POPS   C1A12527   1.575  11.094   6.474 -0.0947 -0.0579 -0.0351
  808POPS   D2A12528   1.616  11.102   6.949 -0.2415 -0.0878 -0.0294
  808POPS   C3A12529   1.671  11.369   7.216  0.1414 -0.1231 -0.2877
  808POPS   C4A12530   1.632  11.376   7.592  0.0989 -0.1474  0.1908
  808POPS   C1B12531   1.503  11.587   6.452  0.1150  0.0109  0.1188
  808POPS   C2B12532   1.244  11.438   6.740 -0.1711 -0.1593 -0.0316
  808POPS   C3B12533   1.147  11.492   7.097 -0.0801 -0.2683  0.2046
  808POPS   C4B12534   1.113  11.520   7.469 -0.0390 -0.3055  0.0972
  809POPS   CNO12535   4.460  16.982   5.321 -0.3218  0.0394  0.1830
  809POPS   PO412536   4.586  17.408   5.517 -0.1080  0.1410 -0.2959
  809POPS   GL112537   4.454  17.397   5.977  0.4689  0.0791 -0.4898
  809POPS   GL212538   4.162  17.177   6.086 -0.1939 -0.3986 -0.0622
  809POPS   C1A12539   4.663  17.419   6.426  0.1745 -0.0504 -0.1750
  809POPS   D2A12540   4.767  17.294   6.795 -0.0484  0.1232 -0.2697
  809POPS   C3A12541   4.748  17.408   7.223  0.1950  0.1353 -0.1033
  809POPS   C4A12542   4.807  17.198   7.684  0.2382 -0.2058  0.1249
  809POPS   C1B12543   4.202  17.313   6.574 -0.2601  0.1096  0.2264
  809POPS   C2B12544   4.228  17.385   7.060  0.0793  0.0405  0.1311
  809POPS   C3B12545   4.296  17.423   7.525  0.0812  0.0804 -0.2854
  809POPS   C4B12546   4.528  17.510   7.921  0.1096  0.1966  0.1233
  810POPS   CNO12547   5.676  16.231   5.937  0.2506  0.0470 -0.0000
  810POPS   PO412548   5.318  15.904   5.625 -0.1543 -0.0905 -0.2038
  810POPS   GL112549   5.429  15.792   6.149  0.1536  0.0231  0.2596
  810POPS   GL212550   5.291  15.565   6.254 -0.2251  0.4943  0.1418
  810POPS   C1A12551   5.690  15.830   6.493  0.1307 -0.0155 -0.1939
  810POPS   D2A12552   5.682  15.914   6.904 -0.2816 -0.2110  0.1847
  810POPS   C3A12553   5.267  15.905   7.058 -0.0137  0.0905 -0.0424
  810POPS   C4A12554   4.829  15.908   6.891  0.3081  0.2790 -0.2109
  810POPS   C1B12555   5.372  15.581   6.715 -0.2422  0.0895 -0.1973
  810POPS   C2B12556   5.395  15.468   7.153  0.1959  0.0746 -0.3715
  810POPS   C3B12557   5.066  15.467   7.440 -0.0328 -0.2173  0.1320
  810POPS   C4B12558   4.644  15.539   7.611 -0.2226 -0.0469 -0.5503
  811POPS   CNO12559   9.258  10.541   5.142 -0.0319  0.3074  0.3839
  811POPS   PO412560   9.360  10.448   5.647  0.3758  0.1334  0.0687
  811POPS   GL112561   9.636  10.513   5.940 -0.0044 -0.1991  0.2703
  811POPS   GL212562   9.369  10.722   6.165  0.1022  0.2878  0.2299
  811POPS   C1A12563   9.823  10.539   6.405 -0.1372  0.3342  0.3833
  811POPS   D2A12564   9.876  10.553   6.946 -0.0082 -0.1388  0.1975
  811POPS   C3A12565  10.312  10.580   7.132  0.1164 -0.1776  0.1382
  811POPS   C4A12566  10.758  10.590   7.324  0.0016  0.0144 -0.3611
  811POPS   C1B12567   9.402  10.796   6.640  0.0357  0.3224  0.3043
  811POPS   C2B12568   9.102  10.786   6.906 -0.1185 -0.0155  0.0075
  811POPS   C3B12569   8.996  10.490   7.274 -0.2835  0.1914  0.0702
  811POPS   C4B12570   9.113  10.515   7.725  0.1496 -0.2950 -0.0270
  812POPS   CNO12571   7.413  14.038   5.509 -0.0870  0.3793  0.0181
  812POPS   PO412572   6.987  13.862   5.490  0.0060 -0.0361  0.1265
  812POPS   GL112573   7.129  13.748   5.964 -0.1341 -0.0791  0.1602
  812POPS   GL212574   7.331  13.908   6.216 -0.2972  0.0281 -0.0854
  812POPS   C1A12575   7.181  13.466   6.296 -0.1951  0.1563  0.1065
  812POPS   D2A12576   7.455  13.181   6.526 -0.1059  0.1312  0.2799
  812POPS   C3A12577   7.448  13.148   6.967 -0.1567 -0.2678  0.4751
  812POPS   C4A12578   7.702  12.913   7.234 -0.1680  0.1065 -0.1218
  812POPS   C1B12579   7.547  14.169   6.497  0.1263 -0.1241  0.1048
  812POPS   C2B12580   7.799  14.097   6.826 -0.1879 -0.3064 -0.0396
  812POPS   C3B12581   7.699  13.978   7.138  0.0279  0.0216 -0.1969
  812POPS   C4B12582   7.766  14.011   7.469  0.0158 -0.0059 -0.1022
  813POPS   CNO12583   1.330   8.630   5.970  0.1958 -0.0245 -0.0592
  813POPS   PO412584   1.297   9.056   5.829  0.1572  0.3289  0.0215
  813POPS   GL112585   1.391   9.080   6.260  0.3164  0.1074 -0.1901
  813POPS   GL212586   1.641   9.019   6.363 -0.1241  0.1210 -0.0480
  813POPS   C1A12587   1.261   9.164   6.657  0.4139  0.3839  0.4526
  813POPS   D2A12588   1.345   9.155   7.150  0.1490 -0.2995 -0.1704
  813POPS   C3A12589   1.216   9.086   7.544 -0.0404  0.0324 -0.1875
  813POPS   C4A12590   1.226   9.091   8.057  0.0514 -0.1493  0.1205
  813POPS   C1B12591   1.634   8.725   6.629  0.0737 -0.0492  0.0845
  813POPS   C2B12592   1.661   8.822   6.915  0.2260 -0.2143 -0.2401
  813POPS   C3B12593   1.631   8.752   7.367  0.3046 -0.2849 -0.1924
  813POPS   C4B12594   1.566   8.682   7.818  0.3197  0.0761 -0.2497
  814YOPS   CNO12595   5.844  12.877   5.848 -0.0373  0.3327  0.0869
  814YOPS   PO412596   5.837  13.241   6.019  0.0889  0.0084  0.1936
  814YOPS   GL112597   5.752  12.907   6.329 -0.0377  0.2808  0.0773
  814YOPS   GL212598   5.511  12.982   6.474 -0.0249 -0.0057  0.3893
  814YOPS   C1A12599   5.907  12.810   6.781  0.1996  0.1589  0.1923
  814YOPS   D2A12600   6.227  12.586   6.999 -0.0177  0.0276  0.0762
  814YOPS   C3A12601   6.502  12.459   7.272 -0.2446 -0.0589 -0.0536
  814YOPS   C4A12602   6.871  12.538   7.514 -0.2007  0.0773  0.1100
  814YOPS   C1B12603   5.428  13.000   6.924 -0.1949  0.0832 -0.3175
  814YOPS   C2B12604   5.652  13.077   7.244  0.0087  0.1517  0.0693
  814YOPS   D3B12605   5.907  12.737   7.372  0.2947 -0.0445 -0.2842
  814YOPS   C4B12606   6.308  12.862   7.700 -0.0827  0.1537  0.1964
  815YOPS   CNO12607  13.353  18.098   5.085 -0.2626  0.1893  0.2533
  815YOPS   PO412608  13.237  18.009   5.388  0.1571  0.1927  0.2077
  815YOPS   GL112609  13.150  18.066   5.815  0.3235 -0.1144 -0.0321
  815YOPS   GL212610  13.294  18.322   6.003 -0.1508  0.1208 -0.0463
  815YOPS   C1A12611  13.045  17.663   6.037  0.0506 -0.5258  0.0275
  815YOPS   D2A12612  13.240  17.458   6.305 -0.1559 -0.0295  0.1643
  815YOPS   C3A12613  13.372  17.186   6.562 -0.0051 -0.1148 -0.1793
  815YOPS   C4A12614  13.243  17.181   6.990 -0.0235  0.1586  0.0287
  815YOPS   C1B12615  13.242  18.387   6.407 -0.1455 -0.0334 -0.0344
  815YOPS   C2B12616  13.105  18.317   6.819 -0.3396  0.0322  0.0980
  815YOPS   D3B12617  13.170  18.472   7.279  0.1913 -0.1251  0.1891
  815YOPS   C4B12618  12.820  18.735   7.563  0.1019 -0.0739 -0.2221
  816YOPS   CNO12619   5.416  10.621   5.955  0.0118 -0.0569 -0.0696
  816YOPS   PO412620   5.003  10.382   5.974  0.4375  0.2900  0.3674
  816YOPS   GL112621   5.060  10.487   6.408 -0.1392 -0.0110 -0.0829
  816YOPS   GL212622   5.262  10.785   6.443  0.1625  0.0132  0.0442
  816YOPS   C1A12623   4.864  10.394   6.718  0.0896 -0.1098  0.0687
  816YOPS   D2A12624   4.942  10.215   7.003  0.1438  0.0711 -0.0158
  816YOPS   C3A12625   5.194  10.374   7.375  0.2372 -0.2269 -0.3255
  816YOPS   C4A12626   5.120  10.801   7.510 -0.3450 -0.4103  0.0100
  816YOPS   C1B12627   5.333  10.780   6.820  0.1844 -0.0054 -0.2803
  816YOPS   C2B12628   5.485  10.712   7.191  0.0431  0.1724  0.1973
  816YOPS   D3B12629   5.549  10.578   7.643  0.0677 -0.3905  0.3460
  816YOPS   C4B12630   5.142  10.685   7.973  0.1528 -0.3309  0.1334
  817YOPS   CNO12631   3.283   5.508   5.940 -0.0337  0.1324  0.0819
  817YOPS   PO412632   3.489   5.887   5.890 -0.3327 -0.0507 -0.1846
  817YOPS   GL112633   3.333   5.844   6.285 -0.1199  0.2449 -0.0138
  817YOPS   GL212634   3.124   6.025   6.304 -0.1228  0.2073  0.0294
  817YOPS   C1A12635   3.526   5.754   6.661 -0.0227 -0.1943 -0.0673
  817YOPS   D2A12636   3.571   6.011   7.024  0.2833 -0.0659  0.0853
  817YOPS   C3A12637   3.730   5.905   7.479 -0.2921 -0.1991 -0.1257
  817YOPS   C4A12638   3.710   6.219   7.792 -0.1195  0.0497  0.1067
  817YOPS   C1B12639   3.122   5.983   6.807  0.1503  0.0120  0.1597
  817YOPS   C2B12640   3.039   6.143   7.184 -0.3099 -0.0192 -0.0488
  817YOPS   D3B12641   3.306   6.208   7.495 -0.0851  0.2266  0.2347
  817YOPS   C4B12642   3.129   6.107   7.893 -0.0274 -0.1023  0.0409
  818YOPS   CNO12643  11.352  10.988   5.001 -0.0605  0.3798  0.1374
  818YOPS   PO412644  11.768  11.122   5.029  0.2658  0.1368 -0.1844
  818YOPS   GL112645  11.784  11.106   5.488  0.1475 -0.0402  0.2866
  818YOPS   GL212646  11.774  11.425   5.661  0.2058  0.1319 -0.3253
  818YOPS   C1A12647  11.635  10.944   5.902 -0.2934  0.1197 -0.1727
  818YOPS   D2A12648  11.876  10.868   6.190 -0.2344 -0.1557  0.0572
  818YOPS   C3A12649  11.879  10.782   6.634  0.0617  0.2097  0.2284
  818YOPS   C4A12650  11.568  10.807   7.006  0.0383 -0.1330 -0.0562
  818YOPS   C1B12651  12.030  11.294   5.978 -0.1300  0.0950  0.0376
  818YOPS   C2B12652  12.142  11.198   6.422  0.1147  0.0894 -0.0048
  818YOPS   D3B12653  12.369  10.950   6.716 -0.3773  0.3833 -0.4019
  818YOPS   C4B12654  12.545  11.008   7.098  0.1637 -0.5317  0.0982
  819YOPS   CNO12655   8.359  17.933   5.419 -0.0507  0.0316  0.1101
  819YOPS   PO412656   8.811  17.976   5.417 -0.5748 -0.2130  0.2881
  819YOPS   GL112657   8.808  17.914   5.784 -0.0521 -0.3229  0.3235
  819YOPS   GL212658   8.864  18.176   5.948 -0.0010 -0.1237 -0.0374
  819YOPS   C1A12659   8.809  17.682   6.075  0.0037 -0.2663  0.3828
  819YOPS   D2A12660   8.654  17.632   6.549 -0.1302  0.0183  0.1324
  819YOPS   C3A12661   8.691  17.610   6.962 -0.0299 -0.0168 -0.0003
  819YOPS   C4A12662   8.413  17.775   7.087  0.2411  0.0389 -0.0613
  819YOPS   C1B12663   8.864  18.187   6.430  0.0945  0.4261 -0.0885
  819YOPS   C2B12664   8.932  18.030   6.762  0.0046 -0.1575 -0.1186
  819YOPS   D3B12665   8.967  17.984   7.218  0.1208  0.0364 -0.3068
  819YOPS   C4B12666   8.744  17.632   7.447 -0.0618 -0.2904  0.0860
  820YOPS   CNO12667   2.197   3.232   5.881  0.0658 -0.0789  0.2281
  820YOPS   PO412668   1.774   3.414   5.551  0.0611  0.2497  0.1898
  820YOPS   GL112669   1.718   3.381   6.010  0.1694  0.0003 -0.0661
  820YOPS   GL212670   1.443   3.545   6.232 -0.1609  0.2678 -0.3105
  820YOPS   C1A12671   1.911   3.567   6.434  0.0110 -0.0674  0.0296
  820YOPS   D2A12672   1.875   3.637   6.917  0.5687  0.3100  0.4238
  820YOPS   C3A12673   1.725   3.437   7.197  0.3229 -0.0082  0.1674
  820YOPS   C4A12674   1.591   3.673   7.472  0.0613 -0.0244  0.0854
  820YOPS   C1B12675   1.398   3.695   6.657 -0.2246  0.0291  0.1239
  820YOPS   C2B12676   1.258   3.606   6.981 -0.2865  0.0755  0.3272
  820YOPS   D3B12677   1.116   3.672   7.329  0.0155  0.2621  0.2517
  820YOPS   C4B12678   1.281   4.058   7.497 -0.1943 -0.1302  0.0616
  821YOPS   CNO12679  10.826  16.931   5.449  0.1771 -0.2094 -0.0476
  821YOPS   PO412680  10.841  17.075   5.825  0.2006  0.0749  0.1035
  821YOPS   GL112681  10.668  16.826   6.165  0.1466 -0.2927 -0.0576
  821YOPS   GL212682  10.449  16.713   6.246  0.2023  0.0333 -0.0378
  821YOPS   C1A12683  10.838  16.678   6.540  0.0562 -0.2987  0.2826
  821YOPS   D2A12684  10.804  16.674   6.978 -0.3240 -0.2368 -0.0229
  821YOPS   C3A12685  10.895  16.828   7.365  0.1254  0.2337  0.2830
  821YOPS   C4A12686  10.618  17.212   7.403 -0.0602 -0.0858  0.0282
  821YOPS   C1B12687  10.373  17.025   6.582  0.0757  0.2418 -0.0878
  821YOPS   C2B12688  10.464  17.029   6.932 -0.3634  0.1863  0.1460
  821YOPS   D3B12689  10.378  16.775   7.252  0.1631  0.0492  0.2532
  821YOPS   C4B12690  10.230  16.861   7.742 -0.1339 -0.2477  0.0710
  822YOPS   CNO12691  16.708   5.436   5.677  0.2274 -0.0894  0.0006
  822YOPS   PO412692  16.617   4.924   5.813 -0.0953  0.0265 -0.1207
  822YOPS   GL112693  16.677   5.117   6.250 -0.0968 -0.0791 -0.0515
  822YOPS   GL212694  17.004   5.222   6.284  0.0092 -0.0260 -0.1977
  822YOPS   C1A12695  16.447   5.169   6.689 -0.2202  0.1617 -0.2106
  822YOPS   D2A12696  16.145   5.150   7.045  0.2100  0.1363  0.1744
  822YOPS   C3A12697  15.882   4.935   7.335 -0.2365 -0.2766 -0.0952
  822YOPS   C4A12698  15.981   4.545   7.499  0.0819  0.2290  0.1746
  822YOPS   C1B12699  16.977   4.974   6.698  0.2704  0.0613  0.1427
  822YOPS   C2B12700  16.861   5.061   7.115  0.0644 -0.0622 -0.0499
  822YOPS   D3B12701  16.727   5.225   7.567  0.0698 -0.0287 -0.3109
  822YOPS   C4B12702  17.047   5.385   7.767  0.2332 -0.4983 -0.1635
  823YOPS   CNO12703  15.738  15.991   5.237 -0.1289 -0.0711 -0.2782
  823YOPS   PO412704  15.857  16.074   5.680 -0.2645  0.2066 -0.0727
  823YOPS   GL112705  15.722  16.074   6.078 -0.1500  0.0713  0.1081
  823YOPS   GL212706  15.618  15.836   6.099  0.2099  0.1387 -0.2830
  823YOPS   C1A12707  15.597  16.137   6.603 -0.2327 -0.2726 -0.0228
  823YOPS   D2A12708  15.617  16.160   7.008  0.1086 -0.1406  0.0873
  823YOPS   C3A12709  15.636  16.051   7.369  0.2559  0.1888 -0.1518
  823YOPS   C4A12710  15.930  15.823   7.686 -0.1387 -0.0625  0.0348
  823YOPS   C1B12711  15.474  15.639   6.453  0.2016 -0.1838  0.0622
  823YOPS   C2B12712  15.545  15.248   6.783 -0.2869 -0.0624 -0.2061
  823YOPS   D3B12713  15.456  15.375   7.232  0.0908 -0.1280  0.2290
  823YOPS   C4B12714  15.551  15.078   7.472 -0.1316 -0.1364 -0.2274
  824YOPS   CNO12715  12.030  12.060   5.845  0.1176  0.0179 -0.1572
  824YOPS   PO412716  11.683  12.348   5.619 -0.0593  0.1899  0.2247
  824YOPS   GL112717  11.550  12.302   6.076  0.0847 -0.2137  0.0578
  824YOPS   GL212718  11.269  12.339   6.110 -0.0319  0.2419 -0.0097
  824YOPS   C1A12719  11.719  12.643   6.379 -0.1186  0.1775 -0.2732
  824YOPS   D2A12720  11.835  12.750   6.821 -0.1821  0.1420  0.0094
  824YOPS   C3A12721  11.942  12.704   7.250 -0.1055  0.1935 -0.1054
  824YOPS   C4A12722  12.246  12.820   7.532 -0.0261  0.1549  0.2876
  824YOPS   C1B12723  11.431  12.145   6.584  0.1059  0.2024 -0.1063
  824YOPS   C2B12724  11.413  11.771   6.856 -0.1214 -0.0602 -0.1804
  824YOPS   D3B12725  11.473  11.357   7.126  0.2750  0.1315  0.0702
  824YOPS   C4B12726  11.711  11.192   7.528 -0.3214  0.1744 -0.0891
  825YOPS   CNO12727  11.072  10.353   5.051 -0.0237 -0.3866  0.0767
  825YOPS   PO412728  10.863   9.889   5.075  0.2315  0.1370  0.0975
  825YOPS   GL112729  10.907  10.089   5.487 -0.2478 -0.0046 -0.0967
  825YOPS   GL212730  10.896  10.448   5.475  0.0484  0.1783 -0.0759
  825YOPS   C1A12731  11.285  10.354   5.695 -0.0106  0.3292 -0.0485
  825YOPS   D2A12732  11.303  10.650   6.104 -0.2280  0.0317  0.1492
  825YOPS   C3A12733  11.110  10.687   6.482 -0.1187 -0.2271 -0.1101
  825YOPS   C4A12734  10.690  10.685   6.349 -0.2752  0.1853 -0.1816
  825YOPS   C1B12735  10.896  10.706   5.824  0.1950  0.1086 -0.0482
  825YOPS   C2B12736  10.921  11.080   6.073 -0.2141 -0.1280 -0.2729
  825YOPS   D3B12737  10.833  11.525   6.089  0.0305  0.1248 -0.1125
  825YOPS   C4B12738  10.504  11.627   6.307  0.0532 -0.0491  0.0593
  826YOPS   CNO12739  15.054  17.113   5.394  0.4110 -0.4977 -0.2860
  826YOPS   PO412740  14.968  17.231   5.825  0.0955 -0.0937 -0.0649
  826YOPS   GL112741  15.088  17.245   6.219 -0.1487  0.0147 -0.1278
  826YOPS   GL212742  15.359  17.368   6.149 -0.0687  0.0813 -0.1706
  826YOPS   C1A12743  15.007  17.371   6.631 -0.2932  0.0110  0.0577
  826YOPS   D2A12744  14.922  17.445   7.147 -0.1564 -0.0208  0.2825
  826YOPS   C3A12745  14.820  17.298   7.614  0.2421 -0.3135  0.0860
  826YOPS   C4A12746  14.594  17.618   8.014  0.0040 -0.1176 -0.0399
  826YOPS   C1B12747  15.510  17.516   6.500  0.1627  0.1078 -0.1667
  826YOPS   C2B12748  15.341  17.565   6.959 -0.1846  0.2005  0.3287
  826YOPS   D3B12749  15.245  17.817   7.348 -0.2236 -0.1318  0.1712
  826YOPS   C4B12750  15.529  17.878   7.654  0.0268  0.2150 -0.0584
  827YOPS   CNO12751   9.062   2.357   5.181  0.2668  0.3311  0.0255
  827YOPS   PO412752   9.427   2.179   5.155 -0.0518  0.0148 -0.3409
  827YOPS   GL112753   9.437   2.093   5.666  0.0898 -0.1087 -0.1407
  827YOPS   GL212754   9.706   1.861   5.797  0.1945 -0.1307 -0.1917
  827YOPS   C1A12755   9.498   2.260   6.011 -0.0533 -0.1738  0.0877
  827YOPS   D2A12756   9.702   2.347   6.445 -0.2056  0.2494 -0.1285
  827YOPS   C3A12757   9.667   2.311   6.984  0.0263  0.1610 -0.0301
  827YOPS   C4A12758   9.712   2.689   7.112 -0.0737 -0.0335 -0.0761
  827YOPS   C1B12759   9.785   1.870   6.196  0.0922 -0.0950  0.0198
  827YOPS   C2B12760   9.886   1.797   6.620  0.1248 -0.2917  0.0149
  827YOPS   D3B12761  10.157   2.076   6.945 -0.0857  0.1002  0.0104
  827YOPS   C4B12762  10.457   2.025   7.185 -0.0781 -0.0522 -0.1979
  828YOPS   CNO12763   0.772   1.067   5.652  0.2009 -0.0318  0.0462
  828YOPS   PO412764   0.691   1.484   5.846 -0.0353  0.0643  0.1016
  828YOPS   GL112765   0.543   1.575   6.179 -0.2013  0.2280 -0.1684
  828YOPS   GL212766   0.588   1.931   6.164 -0.0123  0.0355  0.0105
  828YOPS   C1A12767   0.698   1.556   6.589 -0.1576 -0.0769  0.0366
  828YOPS   D2A12768   0.899   1.247   6.778  0.0447  0.0781 -0.1184
  828YOPS   C3A12769   1.175   1.136   6.987  0.2788  0.0163 -0.0029
  828YOPS   C4A12770   1.107   0.927   7.289 -0.1046 -0.2713  0.0352
  828YOPS   C1B12771   0.356   1.905   6.521 -0.0229 -0.2052 -0.4980
  828YOPS   C2B12772  -0.091   2.021   6.584 -0.0301 -0.0679 -0.2814
  828YOPS   D3B12773  -0.311   2.340   6.412 -0.1400 -0.0481 -0.1707
  828YOPS   C4B12774  -0.287   2.650   6.280 -0.0623 -0.2703  0.0565
  829YOPS   CNO12775  13.342   6.639   5.281  0.1786  0.0022 -0.1205
  829YOPS   PO412776  13.668   6.699   5.577 -0.1958 -0.3502 -0.1345
  829YOPS   GL112777  13.731   6.463   5.957 -0.1097  0.0689  0.0806
  829YOPS   GL212778  13.826   6.107   6.077 -0.0086  0.1088 -0.0603
  829YOPS   C1A12779  13.363   6.398   6.211 -0.1493 -0.1500 -0.3990
  829YOPS   D2A12780  12.825   6.432   6.199 -0.0357  0.1237 -0.1176
  829YOPS   C3A12781  12.501   6.283   6.449  0.1035 -0.1857  0.0125
  829YOPS   C4A12782  12.614   6.106   6.766  0.1880 -0.0530  0.3441
  829YOPS   C1B12783  13.558   6.059   6.516  0.3259 -0.2465 -0.2188
  829YOPS   C2B12784  13.400   6.230   6.990 -0.1213 -0.0617 -0.0766
  829YOPS   D3B12785  13.265   6.473   7.362  0.0525  0.0424  0.0533
  829YOPS   C4B12786  13.525   6.566   7.719  0.0221 -0.0406 -0.2439
  830YOPS   CNO12787   9.542   0.926   5.458 -0.1835 -0.0617  0.0637
  830YOPS   PO412788   9.889   1.003   5.305  0.0817  0.2529 -0.1633
  830YOPS   GL112789  10.112   0.882   5.617  0.0785  0.0300 -0.0006
  830YOPS   GL212790  10.036   0.509   5.739 -0.0266 -0.0842  0.0106
  830YOPS   C1A12791  10.367   1.030   5.985  0.1443 -0.1122  0.0491
  830YOPS   D2A12792  10.689   1.136   6.189 -0.1271 -0.0272 -0.1524
  830YOPS   C3A12793  10.781   1.415   6.425  0.1093 -0.0227 -0.0069
  830YOPS   C4A12794  10.943   1.464   6.815 -0.1352 -0.0372  0.0008
  830YOPS   C1B12795   9.975   0.544   6.191  0.0045 -0.2132  0.1519
  830YOPS   C2B12796   9.861   0.718   6.678 -0.1719 -0.0697 -0.1925
  830YOPS   D3B12797   9.931   0.519   7.032 -0.0954 -0.0230 -0.2021
  830YOPS   C4B12798   9.748   0.361   7.424  0.0797 -0.0154 -0.0846
  831YOPS   CNO12799   0.896  12.712   5.973  0.2878 -0.3431  0.0705
  831YOPS   PO412800   1.151  12.334   5.773 -0.2898  0.0551  0.0295
  831YOPS   GL112801   1.328  12.561   6.168  0.1314 -0.1331  0.2884
  831YOPS   GL212802   1.698  12.614   6.332 -0.0758 -0.1355  0.0087
  831YOPS   C1A12803   1.360  12.321   6.467  0.3080  0.1381 -0.2694
  831YOPS   D2A12804   1.486  12.367   6.860  0.1687  0.1123 -0.0034
  831YOPS   C3A12805   1.541  12.298   7.253 -0.1061  0.1217  0.1050
  831YOPS   C4A12806   1.844  12.130   7.341 -0.0148  0.0740 -0.2679
  831YOPS   C1B12807   1.430  12.809   6.647  0.0323 -0.1370  0.3208
  831YOPS   C2B12808   1.302  13.083   6.945 -0.1166  0.2580 -0.1197
  831YOPS   D3B12809   1.201  13.483   7.044 -0.1608  0.1514  0.0672
  831YOPS   C4B12810   0.981  13.493   7.432  0.1609  0.0565 -0.0950
  832YOPS   CNO12811   6.650  16.564   5.868  0.1162  0.0728 -0.1273
  832YOPS   PO412812   6.975  16.667   5.800 -0.0470 -0.0201 -0.1903
  832YOPS   GL112813   7.266  16.935   6.066 -0.0605  0.0910  0.1707
  832YOPS   GL212814   7.535  16.916   6.109  0.3056 -0.1501 -0.1617
  832YOPS   C1A12815   7.393  16.857   6.555  0.5324 -0.0931 -0.3142
  832YOPS   D2A12816   7.376  17.008   7.008 -0.4100 -0.3596  0.0415
  832YOPS   C3A12817   7.344  17.350   7.221 -0.0003 -0.0750 -0.0504
  832YOPS   C4A12818   7.076  17.685   7.173  0.3084 -0.0926  0.1365
  832YOPS   C1B12819   7.611  17.259   6.382 -0.1705 -0.1086 -0.2799
  832YOPS   C2B12820   7.983  17.451   6.480  0.0483 -0.3308  0.0156
  832YOPS   D3B12821   8.226  17.514   6.728 -0.2119  0.0026 -0.0080
  832YOPS   C4B12822   8.283  17.215   6.859  0.0064  0.0705 -0.0788
  833YOPS   CNO12823  11.688   0.018   4.855 -0.0999 -0.3182 -0.0173
  833YOPS   PO412824  11.505   0.143   5.257 -0.3008  0.1384 -0.1231
  833YOPS   GL112825  11.667   0.005   5.754  0.0083  0.0762  0.2088
  833YOPS   GL212826  11.969  -0.117   5.807 -0.2955  0.6876  0.1689
  833YOPS   C1A12827  11.664   0.103   6.140  0.1946  0.1231  0.2924
  833YOPS   D2A12828  11.524   0.215   6.487  0.1599 -0.0401 -0.1712
  833YOPS   C3A12829  11.381   0.217   6.892 -0.1351  0.1747 -0.1036
  833YOPS   C4A12830  11.492  -0.029   7.174  0.1116 -0.1682 -0.0070
  833YOPS   C1B12831  12.072  -0.311   6.289  0.1222 -0.2299 -0.1635
  833YOPS   C2B12832  12.071  -0.387   6.713  0.2024 -0.0352  0.1897
  833YOPS   D3B12833  12.242  -0.464   7.128 -0.0235 -0.0085  0.2265
  833YOPS   C4B12834  12.554  -0.693   7.085  0.0909  0.0824  0.0503
  834YOPS   CNO12835   9.561   9.718   5.317  0.0255  0.0006  0.1622
  834YOPS   PO412836   9.583   9.529   5.570  0.1627 -0.2009 -0.3488
  834YOPS   GL112837   9.570   9.202   5.959 -0.4091  0.2491  0.1417
  834YOPS   GL212838   9.230   9.305   6.166 -0.1643 -0.1496 -0.0588
  834YOPS   C1A12839   9.674   9.186   6.387  0.2856 -0.1298  0.0663
  834YOPS   D2A12840   9.675   9.389   6.721  0.0859 -0.0860 -0.0102
  834YOPS   C3A12841   9.758   9.112   7.089  0.5458  0.0924 -0.0821
  834YOPS   C4A12842   9.450   8.899   7.254 -0.0895 -0.1275  0.1721
  834YOPS   C1B12843   9.186   9.291   6.615 -0.0582 -0.1017  0.0580
  834YOPS   C2B12844   9.241   9.323   7.043 -0.0688 -0.0629 -0.3352
  834YOPS   D3B12845   9.163   9.281   7.516 -0.1771  0.2352 -0.3265
  834YOPS   C4B12846   9.273   8.931   7.740 -0.0083  0.2037 -0.1252
  835YOPS   CNO12847  13.358  13.408   5.962 -0.1032 -0.0880 -0.1397
  835YOPS   PO412848  13.167  13.065   6.211  0.0306  0.0575 -0.1833
  835YOPS   GL112849  13.026  13.217   6.615 -0.3801 -0.0012 -0.0771
  835YOPS   GL212850  12.980  13.588   6.671 -0.1140  0.2477 -0.0844
  835YOPS   C1A12851  12.791  13.152   6.985  0.1246  0.0483 -0.1206
  835YOPS   D2A12852  12.692  13.201   7.458  0.3517  0.0375 -0.1092
  835YOPS   C3A12853  12.510  13.357   7.827  0.0616  0.0674  0.0591
  835YOPS   C4A12854  12.264  13.173   8.025  0.1527 -0.1772 -0.0138
  835YOPS   C1B12855  12.904  13.619   7.103 -0.0555  0.0592 -0.1171
  835YOPS   C2B12856  12.970  13.684   7.529 -0.4864 -0.1294 -0.1343
  835YOPS   D3B12857  13.014  14.079   7.730  0.1297  0.4048  0.0582
  835YOPS   C4B12858  12.916  14.569   7.860  0.1577 -0.2035  0.0048
  836YOPS   CNO12859  11.720  17.398   5.576  0.0223 -0.4020 -0.0559
  836YOPS   PO412860  12.079  17.577   5.648  0.3081 -0.2569 -0.0608
  836YOPS   GL112861  12.064  17.853   5.978  0.1570  0.1921 -0.1864
  836YOPS   GL212862  11.750  17.659   6.021 -0.0310  0.3036  0.2199
  836YOPS   C1A12863  12.447  17.864   6.331  0.0041  0.0436  0.1016
  836YOPS   D2A12864  12.619  18.166   6.646  0.2648  0.0707  0.0744
  836YOPS   C3A12865  12.758  18.241   7.079 -0.3017  0.0437  0.0720
  836YOPS   C4A12866  12.662  18.289   7.414 -0.2807  0.1176  0.0094
  836YOPS   C1B12867  11.823  17.813   6.418 -0.1157 -0.0211 -0.1687
  836YOPS   C2B12868  11.754  17.782   6.879  0.0265  0.3200 -0.2060
  836YOPS   D3B12869  11.837  17.661   7.288 -0.1128  0.1453 -0.0303
  836YOPS   C4B12870  12.137  17.784   7.509 -0.1585  0.0075 -0.1551
  837YOPS   CNO12871  17.324   6.361   5.370 -0.0269  0.1012  0.1253
  837YOPS   PO412872  17.264   6.067   5.788  0.3407  0.1401 -0.3179
  837YOPS   GL112873  17.110   6.055   6.256 -0.1629 -0.0742  0.3489
  837YOPS   GL212874  17.068   6.414   6.209  0.1132  0.2811 -0.1105
  837YOPS   C1A12875  17.232   5.928   6.700  0.2407 -0.2165  0.0979
  837YOPS   D2A12876  17.202   6.070   7.171 -0.0057 -0.0906  0.1740
  837YOPS   C3A12877  17.281   6.297   7.453  0.2318 -0.2463  0.0534
  837YOPS   C4A12878  17.301   5.988   7.752  0.2452  0.2044 -0.0171
  837YOPS   C1B12879  17.219   6.403   6.574  0.3292  0.0470  0.1636
  837YOPS   C2B12880  17.476   6.516   6.946  0.1249  0.0020 -0.0025
  837YOPS   D3B12881  17.738   6.432   7.335 -0.0654 -0.4190 -0.0734
  837YOPS   C4B12882  17.768   6.138   7.695  0.1869 -0.1474 -0.1964
  838YOPS   CNO12883   6.614   6.886   5.586 -0.0716 -0.1309  0.2102
  838YOPS   PO412884   6.788   7.074   5.892  0.0643  0.0804 -0.1599
  838YOPS   GL112885   6.973   6.849   6.192  0.1696  0.4176  0.0345
  838YOPS   GL212886   7.267   6.606   6.052  0.2165 -0.2118 -0.1954
  838YOPS   C1A12887   6.939   6.700   6.631  0.2375 -0.1734  0.1717
  838YOPS   D2A12888   6.858   6.602   6.956 -0.0030  0.0059  0.1143
  838YOPS   C3A12889   6.537   6.396   7.169 -0.1029  0.3749  0.0617
  838YOPS   C4A12890   6.484   6.531   7.619 -0.2792  0.3216  0.1721
  838YOPS   C1B12891   7.227   6.363   6.477 -0.1820  0.1215  0.4479
  838YOPS   C2B12892   7.129   6.011   6.722  0.1133 -0.0780  0.1677
  838YOPS   D3B12893   6.960   5.973   7.102 -0.2698  0.0018 -0.1111
  838YOPS   C4B12894   6.849   5.605   7.389 -0.0695  0.2148  0.1145
  839YOPS   CNO12895   8.738   8.385   5.403  0.1728  0.0381  0.0903
  839YOPS   PO412896   8.770   8.028   5.618 -0.3126  0.0521  0.0013
  839YOPS   GL112897   8.701   8.052   6.055 -0.0561  0.0447 -0.1534
  839YOPS   GL212898   8.312   7.886   6.114  0.1982  0.2538 -0.1771
  839YOPS   C1A12899   8.549   8.164   6.484  0.1001 -0.2926 -0.3868
  839YOPS   D2A12900   8.444   7.996   6.870  0.0551  0.0262  0.0298
  839YOPS   C3A12901   8.460   7.781   7.216 -0.0929  0.1714  0.3701
  839YOPS   C4A12902   8.633   7.702   7.652  0.0996 -0.0252 -0.2722
  839YOPS   C1B12903   8.203   7.737   6.564 -0.0364 -0.0812 -0.1739
  839YOPS   C2B12904   8.117   7.561   6.929 -0.0425 -0.1944 -0.1030
  839YOPS   D3B12905   7.981   7.595   7.325  0.3296 -0.1818 -0.1715
  839YOPS   C4B12906   8.145   7.977   7.542  0.0247  0.2362  0.2794
  840YOPS   CNO12907   3.265  12.874   5.724 -0.1943  0.0345  0.2224
  840YOPS   PO412908   2.882  13.125   5.965 -0.0564  0.0430  0.1823
  840YOPS   GL112909   2.716  13.326   6.333  0.1243 -0.1685  0.1926
  840YOPS   GL212910   2.396  13.214   6.218 -0.0552  0.1095  0.2245
  840YOPS   C1A12911   2.883  13.242   6.670 -0.0910 -0.1772 -0.0789
  840YOPS   D2A12912   3.009  13.273   7.080  0.0084  0.1442 -0.1845
  840YOPS   C3A12913   2.960  13.008   7.395  0.1197  0.0981 -0.0743
  840YOPS   C4A12914   3.067  13.041   7.835  0.1602  0.0321 -0.0132
  840YOPS   C1B12915   2.193  13.415   6.571 -0.0396  0.0002 -0.1436
  840YOPS   C2B12916   2.163  13.447   6.935  0.3298  0.1346 -0.0788
  840YOPS   D3B12917   2.180  13.192   7.320 -0.0978  0.2217 -0.0566
  840YOPS   C4B12918   1.798  13.084   7.469  0.1533  0.3157  0.0777
  841YOPS   CNO12919  16.191  10.599   5.812  0.1945  0.1333  0.0778
  841YOPS   PO412920  16.229  10.971   5.871  0.0884 -0.1984 -0.1951
  841YOPS   GL112921  16.018  10.908   6.185 -0.0173 -0.1979  0.1810
  841YOPS   GL212922  15.694  10.887   6.256  0.0713  0.0229 -0.0619
  841YOPS   C1A12923  16.026  10.733   6.615 -0.0234  0.3403 -0.0363
  841YOPS   D2A12924  16.231  10.415   6.864 -0.1694 -0.2092 -0.0141
  841YOPS   C3A12925  16.090  10.158   7.228  0.0216 -0.2026 -0.1029
  841YOPS   C4A12926  16.335   9.884   7.328 -0.1192  0.0334 -0.0902
  841YOPS   C1B12927  15.621  10.998   6.706 -0.0792 -0.0190  0.0174
  841YOPS   C2B12928  15.657  11.002   7.046 -0.2189  0.2656 -0.1110
  841YOPS   D3B12929  15.873  11.268   7.331 -0.1309  0.0086 -0.1148
  841YOPS   C4B12930  15.858  11.482   7.662  0.1413  0.1994 -0.0830
  842YOPS   CNO12931   3.854   3.324   5.603 -0.0898  0.3179 -0.0170
  842YOPS   PO412932   3.617   3.681   5.860 -0.1854 -0.2767  0.0573
  842YOPS   GL112933   3.462   3.579   6.319  0.0958  0.0773  0.1843
  842YOPS   GL212934   3.236   3.805   6.462 -0.0269 -0.0919  0.0198
  842YOPS   C1A12935   3.718   3.532   6.670 -0.1680  0.2651 -0.0612
  842YOPS   D2A12936   3.885   3.461   7.116 -0.0161  0.0477  0.2057
  842YOPS   C3A12937   4.100   3.373   7.487 -0.1217  0.3420 -0.4209
  842YOPS   C4A12938   4.098   3.041   7.764 -0.1526 -0.0461 -0.0927
  842YOPS   C1B12939   3.313   3.629   6.860  0.5077 -0.1087 -0.0994
  842YOPS   C2B12940   3.189   3.802   7.311 -0.0617  0.2422 -0.3212
  842YOPS   D3B12941   3.015   3.721   7.732 -0.3786 -0.1435 -0.0085
  842YOPS   C4B12942   2.721   3.910   8.046  0.0634  0.2133  0.1591
  843YOPS   CNO12943   5.729   3.680   5.453 -0.0832  0.0265 -0.0255
  843YOPS   PO412944   5.617   3.410   5.718 -0.0334 -0.0928  0.0688
  843YOPS   GL112945   5.786   3.233   6.065 -0.1781 -0.2378  0.0103
  843YOPS   GL212946   5.503   3.107   6.312 -0.0586 -0.0254  0.3036
  843YOPS   C1A12947   5.949   2.897   6.412 -0.0958 -0.2173  0.0956
  843YOPS   D2A12948   6.189   3.000   6.748  0.1064  0.0580  0.1975
  843YOPS   C3A12949   6.563   2.947   6.944  0.1717 -0.1444  0.0674
  843YOPS   C4A12950   6.612   3.216   7.314  0.1403  0.0693 -0.2913
  843YOPS   C1B12951   5.323   3.090   6.680  0.0893  0.1750 -0.1660
  843YOPS   C2B12952   5.257   3.165   7.130 -0.0248 -0.0367  0.0961
  843YOPS   D3B12953   5.055   3.442   7.425 -0.0157 -0.0462  0.3820
  843YOPS   C4B12954   4.577   3.317   7.409 -0.0611  0.1218 -0.0404
  844POPE   NH312955  14.809  16.286   5.424  0.0007 -0.0746 -0.2665
  844POPE   PO412956  15.050  16.694   5.667  0.1342 -0.0137  0.1719
  844POPE   GL112957  14.861  16.733   6.129 -0.2656 -0.0029  0.2350
  844POPE   GL212958  14.707  16.433   6.172 -0.0626  0.1626 -0.2258
  844POPE   C1A12959  14.679  16.991   6.422 -0.3256 -0.0273  0.0441
  844POPE   D2A12960  14.677  17.017   6.875 -0.3043  0.1280 -0.0308
  844POPE   C3A12961  14.356  17.092   7.205  0.3736 -0.1804  0.3185
  844POPE   C4A12962  14.021  17.373   7.337 -0.0677  0.1258 -0.1243
  844POPE   C1B12963  14.767  16.520   6.593  0.0690 -0.4534 -0.2603
  844POPE   C2B12964  14.759  16.507   6.974 -0.2970 -0.0733  0.0573
  844POPE   C3B12965  14.818  16.646   7.381  0.2772 -0.2499 -0.4814
  844POPE   C4B12966  14.872  16.610   7.804 -0.0324  0.2892 -0.0295
  845POPE   NH312967  11.811  15.451   5.853 -0.4517  0.1179 -0.1837
  845POPE   PO412968  11.592  15.117   5.904 -0.0233  0.1544 -0.0977
  845POPE   GL112969  11.680  15.302   6.275  0.0890 -0.2808  0.0470
  845POPE   GL212970  12.046  15.499   6.345 -0.1651  0.2908  0.3282
  845POPE   C1A12971  11.778  15.333   6.764 -0.1034 -0.0240  0.0246
  845POPE   D2A12972  11.795  15.408   7.198 -0.0992 -0.0290 -0.0470
  845POPE   C3A12973  11.719  15.037   7.477 -0.1839 -0.1692  0.0808
  845POPE   C4A12974  11.767  14.771   7.981 -0.1896 -0.0043  0.2197
  845POPE   C1B12975  12.340  15.570   6.625 -0.1040 -0.3216  0.1512
  845POPE   C2B12976  12.638  15.570   7.055  0.0322  0.0164  0.3033
  845POPE   C3B12977  12.588  15.509   7.445  0.0752  0.1778 -0.4497
  845POPE   C4B12978  12.730  15.366   7.916 -0.0421 -0.1201 -0.0567
  846POPE   NH312979   6.119  15.348   5.893  0.1521 -0.2212  0.0432
  846POPE   PO412980   5.704  15.412   5.995 -0.0339  0.2466 -0.0647
  846POPE   GL112981   5.768  15.324   6.389  0.0078  0.3207 -0.1782
  846POPE   GL212982   6.034  15.423   6.415 -0.1514 -0.1341 -0.1953
  846POPE   C1A12983   5.790  15.285   6.825  0.0593 -0.1374  0.2554
  846POPE   D2A12984   5.920  15.190   7.158  0.1266 -0.1600  0.0109
  846POPE   C3A12985   5.852  15.109   7.522  0.1993 -0.0260  0.0809
  846POPE   C4A12986   5.984  15.222   7.918  0.1437 -0.0341  0.3947
  846POPE   C1B12987   6.140  15.613   6.816  0.1967  0.0055 -0.1146
  846POPE   C2B12988   6.010  15.661   7.321 -0.2013  0.0618 -0.1936
  846POPE   C3B12989   6.069  15.740   7.708  0.3499 -0.0902  0.1691
  846POPE   C4B12990   6.371  15.856   8.025 -0.1504  0.0181 -0.0992
  847POPE   NH312991   0.987  17.816   5.862  0.2463 -0.3391  0.1616
  847POPE   PO412992   0.480  17.824   5.877  0.1378 -0.1683 -0.0795
  847POPE   GL112993   0.577  17.891   6.234  0.3097 -0.0223 -0.0637
  847POPE   GL212994   0.867  18.069   6.338  0.2890  0.1987 -0.1093
  847POPE   C1A12995   0.502  17.811   6.735  0.0556  0.1601 -0.1901
  847POPE   D2A12996   0.427  17.990   7.094 -0.2182  0.3241  0.0265
  847POPE   C3A12997   0.537  17.915   7.557  0.2737  0.1893 -0.3310
  847POPE   C4A12998   0.488  17.706   7.889  0.1297 -0.0334 -0.1076
  847POPE   C1B12999   0.911  18.150   6.838  0.0768  0.0611 -0.0200
  847POPE   C2B13000   0.946  18.116   7.369  0.1161  0.2624  0.1066
  847POPE   C3B13001   1.040  18.013   7.828 -0.1196 -0.3451  0.1389
  847POPE   C4B13002   1.019  17.624   8.017  0.1495 -0.1258 -0.2570
  848POPE   NH313003  12.877   9.075   5.469 -0.0489 -0.1616  0.1219
  848POPE   PO413004  12.428   8.943   5.508 -0.2183  0.1500  0.0958
  848POPE   GL113005  12.449   9.135   5.909 -0.3005 -0.0068  0.1651
  848POPE   GL213006  12.122   9.251   6.047  0.0404 -0.0858 -0.1321
  848POPE   C1A13007  12.539   9.566   6.041 -0.0549 -0.0096 -0.2482
  848POPE   D2A13008  12.675   9.749   6.352 -0.0525  0.1819 -0.2238
  848POPE   C3A13009  12.682   9.637   6.795  0.0084  0.0207  0.0809
  848POPE   C4A13010  12.460   9.885   7.025 -0.1622  0.0569 -0.0082
  848POPE   C1B13011  12.145   9.590   6.335 -0.2074  0.0494 -0.1771
  848POPE   C2B13012  12.261   9.913   6.544  0.0405 -0.1275  0.0409
  848POPE   C3B13013  12.219  10.260   6.816 -0.1843 -0.1081  0.1049
  848POPE   C4B13014  12.219  10.574   7.143 -0.1425 -0.0098 -0.0363
  849POPE   NH313015  15.827  17.300   5.935 -0.1371  0.0671 -0.1179
  849POPE   PO413016  15.868  16.874   5.915 -0.1671 -0.1726 -0.1940
  849POPE   GL113017  15.827  16.592   6.324  0.0707  0.2630  0.3657
  849POPE   GL213018  16.016  16.307   6.474 -0.0496  0.0043  0.3525
  849POPE   C1A13019  15.731  16.604   6.775 -0.5851  0.2567  0.2727
  849POPE   D2A13020  15.635  16.580   7.202 -0.1792  0.0913 -0.3002
  849POPE   C3A13021  15.905  16.399   7.547 -0.3474 -0.2053 -0.1645
  849POPE   C4A13022  15.842  16.475   8.043 -0.0147  0.1877  0.1352
  849POPE   C1B13023  16.140  16.172   6.879 -0.0553  0.1103  0.2078
  849POPE   C2B13024  16.091  16.078   7.248 -0.1906  0.1646  0.1792
  849POPE   C3B13025  16.322  16.200   7.736  0.0665  0.0686 -0.1788
  849POPE   C4B13026  16.320  15.959   8.089  0.0464 -0.2737  0.0149
  850POPE   NH313027  14.562  16.104   5.819  0.0287  0.2637  0.1177
  850POPE   PO413028  14.418  16.463   5.730 -0.0430 -0.4515  0.1984
  850POPE   GL113029  14.214  16.214   6.125 -0.1448 -0.2256  0.1814
  850POPE   GL213030  13.811  16.050   6.182  0.0442 -0.0226 -0.0378
  850POPE   C1A13031  14.101  15.947   6.540 -0.2407  0.0190 -0.1751
  850POPE   D2A13032  14.223  15.929   7.019  0.2806  0.4756 -0.0972
  850POPE   C3A13033  14.173  16.065   7.314 -0.3341 -0.0202 -0.0459
  850POPE   C4A13034  14.170  16.068   7.855  0.0902  0.0411  0.0432
  850POPE   C1B13035  13.681  16.197   6.542 -0.1136 -0.0595  0.1097
  850POPE   C2B13036  13.755  16.251   6.932 -0.0485  0.3578  0.1322
  850POPE   C3B13037  13.779  16.313   7.228 -0.3813 -0.1325  0.1108
  850POPE   C4B13038  13.787  16.188   7.588  0.1096 -0.0608  0.0971
  851POPE   NH313039   7.612   6.484   5.636  0.3672  0.0248  0.0205
  851POPE   PO413040   7.778   6.887   5.707 -0.3300  0.1281 -0.3500
  851POPE   GL113041   7.626   6.988   6.118  0.2089 -0.1066 -0.0014
  851POPE   GL213042   7.774   7.176   6.393 -0.0205  0.0635 -0.0820
  851POPE   C1A13043   7.351   6.913   6.447 -0.0640  0.3718 -0.0960
  851POPE   D2A13044   7.317   6.876   6.859 -0.2177  0.0342  0.0273
  851POPE   C3A13045   7.363   6.735   7.271  0.0669  0.0233  0.0430
  851POPE   C4A13046   7.587   6.600   7.665 -0.2951 -0.1957  0.2367
  851POPE   C1B13047   7.711   7.254   6.833 -0.0413 -0.2536 -0.4411
  851POPE   C2B13048   7.674   7.123   7.215  0.2948 -0.2173  0.2617
  851POPE   C3B13049   7.752   7.062   7.631 -0.0683  0.1393 -0.0131
  851POPE   C4B13050   7.782   7.120   8.114  0.0503 -0.1177  0.1404
  852POPE   NH313051  18.048   1.566   5.872  0.0385  0.3453 -0.0123
  852POPE   PO413052  17.626   1.704   5.858  0.0432  0.0200  0.1369
  852POPE   GL113053  17.514   1.635   6.242  0.0302 -0.0228 -0.3522
  852POPE   GL213054  17.799   1.457   6.287 -0.1045  0.2317 -0.1638
  852POPE   C1A13055  17.348   1.750   6.679  0.0466 -0.1544 -0.3614
  852POPE   D2A13056  17.674   1.750   7.058  0.2365 -0.0581  0.2352
  852POPE   C3A13057  17.855   2.068   7.281  0.1853 -0.0562  0.1100
  852POPE   C4A13058  18.213   2.230   7.333  0.0813 -0.0836  0.3717
  852POPE   C1B13059  17.725   1.352   6.725 -0.2231 -0.2182 -0.0719
  852POPE   C2B13060  18.023   1.362   7.074 -0.0303 -0.3465  0.0031
  852POPE   C3B13061  18.443   1.300   7.162 -0.2165  0.1560 -0.0902
  852POPE   C4B13062  18.799   1.300   7.385 -0.3558  0.2617  0.0206
  853POPE   NH313063   8.783   9.814   5.513  0.2145  0.0921 -0.0036
  853POPE   PO413064   8.489  10.197   5.644  0.2106 -0.2412 -0.1522
  853POPE   GL113065   8.589   9.969   5.979 -0.0436  0.0135  0.1341
  853POPE   GL213066   8.373   9.773   6.048 -0.0395 -0.1704 -0.2504
  853POPE   C1A13067   8.780  10.125   6.379 -0.1879  0.0593  0.1724
  853POPE   D2A13068   8.798  10.324   6.886  0.0924  0.0409 -0.0934
  853POPE   C3A13069   8.506  10.265   7.222  0.1695 -0.5257 -0.2077
  853POPE   C4A13070   8.456  10.510   7.535 -0.2252  0.0868  0.2481
  853POPE   C1B13071   8.403   9.804   6.473 -0.3245  0.1092 -0.1413
  853POPE   C2B13072   8.535   9.841   6.891 -0.0330 -0.0576 -0.2090
  853POPE   C3B13073   8.419   9.797   7.251  0.3366 -0.0890 -0.0276
  853POPE   C4B13074   8.338   9.906   7.737  0.1838  0.2848  0.1956
  854POPE   NH313075   1.885  17.726   5.747 -0.0090 -0.3851 -0.0783
  854POPE   PO413076   2.197  17.540   5.951 -0.0312 -0.1254 -0.0204
  854POPE   GL113077   2.416  17.451   6.232 -0.0134  0.0530  0.1615
  854POPE   GL213078   2.398  17.086   6.355  0.1274  0.0538  0.3007
  854POPE   C1A13079   2.443  17.525   6.632 -0.0319 -0.1853  0.4073
  854POPE   D2A13080   2.436  17.508   7.015 -0.1918  0.1624 -0.1164
  854POPE   C3A13081   2.910  17.325   7.217  0.1973 -0.0172  0.1880
  854POPE   C4A13082   3.268  17.286   7.432 -0.0407  0.0886  0.0063
  854POPE   C1B13083   2.164  17.097   6.690  0.0669  0.1541  0.1285
  854POPE   C2B13084   2.202  17.064   7.004 -0.0232 -0.1001  0.1512
  854POPE   C3B13085   2.345  17.139   7.450  0.1937 -0.0435  0.1606
  854POPE   C4B13086   2.754  17.269   7.719  0.1159  0.0977  0.1829
  855POPE   NH313087  15.148  10.241   5.500 -0.0692  0.0001 -0.1814
  855POPE   PO413088  15.347   9.811   5.712  0.1341 -0.0175 -0.4015
  855POPE   GL113089  15.528   9.888   6.083  0.0680  0.0761  0.0374
  855POPE   GL213090  15.729   9.697   6.197 -0.3143 -0.2757  0.2159
  855POPE   C1A13091  15.402  10.003   6.455  0.2159  0.0735  0.0970
  855POPE   D2A13092  15.052  10.281   6.600  0.3573  0.0964 -0.1410
  855POPE   C3A13093  15.032  10.311   7.052 -0.0012 -0.0610  0.0116
  855POPE   C4A13094  14.856  10.119   7.322 -0.1033  0.0237 -0.0916
  855POPE   C1B13095  15.608   9.573   6.583  0.1377 -0.1012 -0.0046
  855POPE   C2B13096  15.467   9.426   6.936 -0.0579  0.1111  0.1405
  855POPE   C3B13097  15.365   9.305   7.367 -0.0163  0.1831 -0.0820
  855POPE   C4B13098  15.244   9.261   7.840  0.1071 -0.0095  0.1234
  856POPE   NH313099  13.555  13.911   6.048  0.0722  0.0695 -0.3104
  856POPE   PO413100  13.764  13.687   5.795 -0.1048  0.0705  0.0866
  856POPE   GL113101  13.852  13.488   6.202  0.1100 -0.0488  0.0532
  856POPE   GL213102  13.722  13.093   6.307  0.0151  0.1882 -0.2749
  856POPE   C1A13103  13.935  13.717   6.660  0.1396  0.1733  0.1130
  856POPE   D2A13104  13.889  13.551   7.064 -0.0421  0.0320  0.0866
  856POPE   C3A13105  14.008  13.222   6.957 -0.0536  0.1464 -0.1036
  856POPE   C4A13106  14.151  13.127   6.510 -0.0936 -0.1122 -0.0006
  856POPE   C1B13107  13.663  12.962   6.710  0.2051 -0.2865 -0.2461
  856POPE   C2B13108  13.831  12.831   7.206  0.1061  0.1163  0.2250
  856POPE   C3B13109  13.758  12.804   7.684  0.2125 -0.0251 -0.0126
  856POPE   C4B13110  13.443  12.872   7.910  0.1141  0.0292 -0.1305
  857POPE   NH313111   6.390   8.101   5.856  0.0610  0.1250 -0.1336
  857POPE   PO413112   6.762   8.504   5.792  0.0867  0.3125  0.3799
  857POPE   GL113113   6.663   8.549   6.200  0.1785  0.0641  0.1437
  857POPE   GL213114   6.934   8.695   6.218  0.1723 -0.3779  0.1586
  857POPE   C1A13115   6.623   8.313   6.599  0.0198  0.0528  0.1610
  857POPE   D2A13116   6.497   8.206   7.021  0.0888  0.0832  0.0772
  857POPE   C3A13117   6.658   8.123   7.518  0.0084 -0.2332  0.3670
  857POPE   C4A13118   6.771   8.144   7.969 -0.5068  0.1465 -0.1775
  857POPE   C1B13119   7.146   8.609   6.613  0.0678 -0.0061  0.0079
  857POPE   C2B13120   7.190   8.811   6.980 -0.3793 -0.0189 -0.0692
  857POPE   C3B13121   7.036   8.999   7.261 -0.1917 -0.1946 -0.0444
  857POPE   C4B13122   6.890   8.999   7.611  0.2478 -0.0816 -0.1395
  858POPE   NH313123   5.318  15.427   5.709 -0.1333  0.2044  0.1124
  858POPE   PO413124   4.913  15.276   5.760 -0.1185  0.2780 -0.0712
  858POPE   GL113125   4.852  15.309   6.166  0.0941 -0.1775 -0.1238
  858POPE   GL213126   4.807  14.960   6.221 -0.1359 -0.0645 -0.2116
  858POPE   C1A13127   4.898  15.353   6.609 -0.0417  0.0298 -0.0348
  858POPE   D2A13128   4.887  15.427   6.993 -0.1937 -0.0489  0.5008
  858POPE   C3A13129   4.590  15.211   7.205 -0.4018  0.0937  0.0969
  858POPE   C4A13130   4.289  15.037   7.430 -0.2203 -0.1484 -0.0714
  858POPE   C1B13131   4.682  14.879   6.507 -0.2879 -0.2640  0.1534
  858POPE   C2B13132   4.798  14.894   6.893  0.1464 -0.3144 -0.3221
  858POPE   C3B13133   5.005  14.923   7.304  0.1697  0.2548  0.0568
  858POPE   C4B13134   5.305  14.902   7.629  0.0177 -0.2525  0.0730
  859POPE   NH313135   6.924   7.638   5.919  0.0658  0.1820 -0.1322
  859POPE   PO413136   7.351   7.841   5.944  0.1111  0.0728  0.1883
  859POPE   GL113137   7.178   7.705   6.338 -0.0208  0.0153 -0.1411
  859POPE   GL213138   7.267   7.408   6.341 -0.0783  0.1514 -0.0846
  859POPE   C1A13139   7.081   7.677   6.761 -0.2744 -0.2048 -0.2106
  859POPE   D2A13140   7.231   7.420   7.064  0.2338 -0.2939 -0.0688
  859POPE   C3A13141   7.134   7.160   7.431 -0.0580 -0.0268  0.1046
  859POPE   C4A13142   6.840   7.248   7.749  0.3717  0.0526 -0.1310
  859POPE   C1B13143   6.993   7.185   6.590 -0.0082 -0.0089 -0.0585
  859POPE   C2B13144   6.795   7.139   6.947  0.2093 -0.2021  0.0447
  859POPE   C3B13145   6.749   6.889   7.359  0.2639  0.1262 -0.1004
  859POPE   C4B13146   6.899   6.750   7.785  0.0854  0.0309  0.1656
  860POPE   NH313147   5.757  17.088   5.780 -0.2086 -0.0345  0.1129
  860POPE   PO413148   5.458  17.485   5.726  0.1543  0.1575  0.1828
  860POPE   GL113149   5.806  17.517   6.067 -0.1774 -0.2257 -0.5199
  860POPE   GL213150   5.782  17.236   6.300  0.0628 -0.0802 -0.0936
  860POPE   C1A13151   6.107  17.564   6.411  0.1095  0.2223  0.0030
  860POPE   D2A13152   6.383  17.392   6.580  0.0549 -0.0902  0.0482
  860POPE   C3A13153   6.294  17.128   6.816  0.1297  0.0393  0.1018
  860POPE   C4A13154   6.208  16.793   7.233  0.2785 -0.0231  0.0466
  860POPE   C1B13155   5.785  17.245   6.715  0.0557 -0.1772 -0.3155
  860POPE   C2B13156   5.880  17.255   7.036  0.1109 -0.0214  0.2826
  860POPE   C3B13157   5.927  17.220   7.451 -0.2529 -0.0173 -0.0057
  860POPE   C4B13158   6.231  17.484   7.743  0.2234 -0.3783  0.2242
  861POPE   NH313159   0.004   2.071   5.259  0.3196 -0.0813  0.1595
  861POPE   PO413160   0.066   2.361   5.616 -0.0311 -0.3029  0.0921
  861POPE   GL113161   0.162   2.634   6.021  0.0714  0.1915  0.0387
  861POPE   GL213162   0.504   2.863   5.954 -0.0029 -0.2618 -0.3068
  861POPE   C1A13163   0.200   2.482   6.454  0.1152 -0.2269 -0.0765
  861POPE   D2A13164   0.156   2.343   6.962  0.1346 -0.1809  0.0930
  861POPE   C3A13165   0.033   2.645   7.269 -0.0651  0.1173 -0.0805
  861POPE   C4A13166   0.008   2.741   7.763 -0.1611  0.1283  0.0877
  861POPE   C1B13167   0.348   2.942   6.358 -0.0561 -0.1231  0.3193
  861POPE   C2B13168   0.301   2.883   6.742  0.1676  0.0534  0.1622
  861POPE   C3B13169   0.516   2.825   7.094 -0.1603  0.1194 -0.0786
  861POPE   C4B13170   0.440   2.758   7.537  0.0501  0.0021  0.2035
  862POPE   NH313171   9.589  10.020   5.723 -0.1444  0.0453  0.3170
  862POPE   PO413172   9.186   9.751   5.737 -0.0701 -0.1056  0.2749
  862POPE   GL113173   9.202   9.842   6.024  0.2500  0.2784 -0.0086
  862POPE   GL213174   9.342  10.185   6.141 -0.0796 -0.2504 -0.1047
  862POPE   C1A13175   9.342   9.755   6.474  0.0439  0.0014  0.1127
  862POPE   D2A13176   9.481   9.804   6.931 -0.2859  0.0475  0.0924
  862POPE   C3A13177   9.655   9.579   7.274 -0.2757 -0.1327 -0.0670
  862POPE   C4A13178   9.730   9.226   7.552  0.1307 -0.2116 -0.0581
  862POPE   C1B13179   9.265  10.312   6.522  0.0984 -0.0271  0.0232
  862POPE   C2B13180   9.413  10.298   6.976 -0.3145  0.0605 -0.1690
  862POPE   C3B13181   9.521  10.491   7.376 -0.1478  0.1493  0.1831
  862POPE   C4B13182   9.331  10.867   7.356  0.1297  0.0774 -0.2884
  863POPE   NH313183  16.052   4.061   5.642  0.0726  0.0628 -0.0244
  863POPE   PO413184  15.961   3.620   5.657 -0.2075  0.1747  0.1622
  863POPE   GL113185  16.149   3.618   6.046  0.2716  0.2909  0.1010
  863POPE   GL213186  16.324   3.628   6.060 -0.2202 -0.0652 -0.0047
  863POPE   C1A13187  15.996   3.769   6.387  0.0080  0.2280  0.2268
  863POPE   D2A13188  16.049   3.742   6.817 -0.0089 -0.0114 -0.0415
  863POPE   C3A13189  15.736   3.728   7.189 -0.1607 -0.1871 -0.0370
  863POPE   C4A13190  15.616   3.773   7.667 -0.1648 -0.1513  0.2757
  863POPE   C1B13191  16.480   3.688   6.460 -0.1064  0.1529  0.1206
  863POPE   C2B13192  16.615   3.335   6.807  0.0158 -0.0019  0.2074
  863POPE   C3B13193  16.615   3.329   7.326 -0.2148  0.0218 -0.0380
  863POPE   C4B13194  16.971   3.320   7.541 -0.2436  0.5617  0.0228
  864POPE   NH313195  18.487   9.566   5.860  0.2966 -0.0566 -0.3223
  864POPE   PO413196  18.034   9.389   5.834  0.1804  0.1576 -0.1388
  864POPE   GL113197  18.057   9.077   6.165 -0.0020 -0.0526  0.0680
  864POPE   GL213198  17.834   9.224   6.366 -0.0348 -0.1357 -0.0502
  864POPE   C1A13199  18.324   9.200   6.478  0.0358  0.4143 -0.0126
  864POPE   D2A13200  18.521   9.216   6.821  0.2881 -0.4047  0.0076
  864POPE   C3A13201  18.426   9.268   7.324 -0.1609  0.0340 -0.4383
  864POPE   C4A13202  18.154   9.150   7.683  0.1481  0.1522 -0.1465
  864POPE   C1B13203  17.929   9.301   6.808  0.0183  0.1436 -0.0150
  864POPE   C2B13204  17.959   9.284   7.175  0.0593  0.0504 -0.3473
  864POPE   C3B13205  17.891   9.684   7.521  0.0622  0.0212 -0.1445
  864POPE   C4B13206  17.713   9.731   7.964  0.0274 -0.1336 -0.2603
  865POPE   NH313207   9.834   9.092   5.549  0.2193  0.3097 -0.0280
  865POPE   PO413208  10.147   9.411   5.568  0.1872 -0.0964 -0.0867
  865POPE   GL113209  10.323   9.418   5.888 -0.0431 -0.2545 -0.2870
  865POPE   GL213210  10.021   9.321   6.078  0.1695 -0.2130 -0.1666
  865POPE   C1A13211  10.683   9.355   6.225 -0.3566  0.1256  0.2047
  865POPE   D2A13212  11.032   9.519   6.485 -0.3033 -0.0592  0.0405
  865POPE   C3A13213  10.898   9.576   6.903  0.2004  0.0273 -0.0403
  865POPE   C4A13214  11.078   9.732   7.320  0.1510  0.1794 -0.2867
  865POPE   C1B13215  10.101   9.446   6.483 -0.1314  0.1768 -0.0381
  865POPE   C2B13216  10.105   9.575   6.943  0.0884  0.1111 -0.0285
  865POPE   C3B13217  10.158   9.605   7.400  0.0165 -0.2699 -0.3924
  865POPE   C4B13218  10.608   9.741   7.501  0.0739 -0.0618 -0.3064
  866POPE   NH313219   3.471  10.256   5.927 -0.0454 -0.1713 -0.2073
  866POPE   PO413220   3.343   9.857   6.030 -0.2183 -0.0956 -0.3124
  866POPE   GL113221   3.549   9.495   6.260 -0.1997 -0.0672  0.0082
  866POPE   GL213222   3.856   9.539   6.303  0.0741 -0.0461  0.0227
  866POPE   C1A13223   3.371   9.360   6.619 -0.0232  0.2629  0.2020
  866POPE   D2A13224   3.505   9.233   6.949  0.0878  0.0503  0.2679
  866POPE   C3A13225   3.469   9.128   7.407 -0.3955  0.3009 -0.0748
  866POPE   C4A13226   3.273   9.192   7.800 -0.1765  0.0909 -0.0898
  866POPE   C1B13227   3.670   9.788   6.644 -0.1320 -0.1295 -0.0534
  866POPE   C2B13228   3.604   9.825   7.035  0.2045 -0.0764  0.0650
  866POPE   C3B13229   3.657   9.965   7.420  0.2337 -0.3422  0.0920
  866POPE   C4B13230   3.745   9.795   7.868  0.2698  0.1389  0.1459
  867POPE   NH313231  17.142  11.299   5.705  0.0353  0.5411  0.1003
  867POPE   PO413232  16.663  11.251   5.811 -0.2405  0.3755 -0.1633
  867POPE   GL113233  16.600  11.052   6.247 -0.0853  0.0167  0.3240
  867POPE   GL213234  16.557  10.706   6.127  0.1245 -0.0096  0.2509
  867POPE   C1A13235  16.269  11.205   6.575  0.3288 -0.0623  0.1688
  867POPE   D2A13236  16.275  11.154   7.037  0.2736  0.2773 -0.2801
  867POPE   C3A13237  16.105  10.761   7.206  0.0842 -0.2162 -0.2140
  867POPE   C4A13238  16.046  10.559   7.526 -0.2353  0.0942  0.1844
  867POPE   C1B13239  16.512  10.752   6.605 -0.2011  0.1015  0.2724
  867POPE   C2B13240  16.633  10.739   7.054 -0.1043 -0.1646  0.1119
  867POPE   C3B13241  16.943  10.730   7.417  0.1275 -0.4142  0.0694
  867POPE   C4B13242  17.259  10.416   7.543  0.0359  0.1641 -0.2280
  868POPE   NH313243  13.799  17.291   5.433  0.0040 -0.0187 -0.1647
  868POPE   PO413244  14.064  17.671   5.613  0.0754  0.0901 -0.1654
  868POPE   GL113245  14.169  17.515   6.053 -0.0062  0.0445  0.0591
  868POPE   GL213246  14.557  17.411   6.032  0.1105 -0.0700  0.2047
  868POPE   C1A13247  14.191  17.119   6.406 -0.0014  0.2303 -0.0854
  868POPE   D2A13248  14.106  17.129   6.785 -0.2576  0.1382  0.0428
  868POPE   C3A13249  13.776  17.090   6.935 -0.0634 -0.0463  0.1426
  868POPE   C4A13250  13.863  16.888   7.375  0.0407 -0.2339  0.3011
  868POPE   C1B13251  14.538  17.502   6.458 -0.1446  0.1049 -0.1783
  868POPE   C2B13252  14.456  17.448   6.903 -0.0379 -0.1189  0.0592
  868POPE   C3B13253  14.467  17.626   7.232  0.0996 -0.1840 -0.1359
  868POPE   C4B13254  14.714  17.758   7.538 -0.0674 -0.2750  0.2699
  869POPE   NH313255   6.707  16.950   5.445  0.1117 -0.0290  0.0651
  869POPE   PO413256   6.437  17.384   5.430  0.1637 -0.0411  0.0037
  869POPE   GL113257   6.719  17.356   5.788 -0.0162  0.1101  0.1429
  869POPE   GL213258   6.755  17.091   6.011 -0.0889  0.1425  0.3077
  869POPE   C1A13259   6.730  17.669   6.094 -0.1778 -0.1339  0.1156
  869POPE   D2A13260   6.765  17.742   6.564 -0.0784 -0.1364 -0.1574
  869POPE   C3A13261   6.559  17.687   6.901  0.0423 -0.0682  0.0589
  869POPE   C4A13262   6.427  17.483   7.203 -0.4462 -0.1517 -0.0771
  869POPE   C1B13263   6.492  17.002   6.281 -0.3439  0.0744 -0.0071
  869POPE   C2B13264   6.467  16.604   6.518  0.0516  0.2454 -0.1658
  869POPE   C3B13265   6.524  16.652   6.927  0.1546  0.3466 -0.4421
  869POPE   C4B13266   6.578  16.608   7.403  0.1164 -0.0539 -0.2161
  870POPE   NH313267   7.585   8.287   5.884  0.2044  0.0692 -0.0825
  870POPE   PO413268   7.865   7.944   5.878  0.2437 -0.2633  0.1913
  870POPE   GL113269   7.754   7.854   6.229  0.1356 -0.2466  0.2060
  870POPE   GL213270   7.576   8.145   6.348 -0.4067 -0.0054 -0.0304
  870POPE   C1A13271   7.631   7.679   6.588  0.0339 -0.1453  0.0900
  870POPE   D2A13272   7.619   7.726   6.980  0.0586 -0.0963 -0.0294
  870POPE   C3A13273   7.237   7.925   7.189 -0.2055 -0.2537 -0.1279
  870POPE   C4A13274   7.141   8.085   7.593  0.1619 -0.2706  0.1021
  870POPE   C1B13275   7.346   8.139   6.661  0.2337 -0.0279  0.2015
  870POPE   C2B13276   7.031   8.224   6.864  0.1779  0.0050 -0.0117
  870POPE   C3B13277   6.980   8.441   7.211  0.4269 -0.1378 -0.0560
  870POPE   C4B13278   6.853   8.527   7.649 -0.1102 -0.2524 -0.3017
  871POPE   NH313279  16.575   1.843   5.489  0.2101 -0.0215  0.0621
  871POPE   PO413280  16.905   2.085   5.673 -0.0998 -0.1467 -0.0133
  871POPE   GL113281  17.128   2.267   6.017 -0.0686 -0.0574  0.0884
  871POPE   GL213282  17.415   2.172   6.141  0.0549 -0.0735  0.2362
  871POPE   C1A13283  16.983   2.163   6.411 -0.1272  0.0114 -0.1692
  871POPE   D2A13284  16.944   2.112   6.851  0.0014 -0.1222 -0.2309
  871POPE   C3A13285  17.127   1.777   7.141 -0.0715 -0.0959 -0.2069
  871POPE   C4A13286  16.976   1.453   7.300  0.2320 -0.0830 -0.1300
  871POPE   C1B13287  17.477   2.203   6.531  0.0865 -0.0030  0.2774
  871POPE   C2B13288  17.520   2.213   6.969  0.2674 -0.0623  0.1264
  871POPE   C3B13289  17.221   2.269   7.390  0.2715 -0.1332  0.3751
  871POPE   C4B13290  16.819   2.358   7.612  0.2372  0.1074 -0.1001
  872POPE   NH313291   0.160  16.802   5.808  0.0375  0.1159 -0.3426
  872POPE   PO413292  -0.331  16.929   5.743  0.0184 -0.1776  0.3312
  872POPE   GL113293  -0.270  17.080   6.141  0.2370  0.1597  0.3221
  872POPE   GL213294  -0.209  17.419   6.209 -0.0801 -0.0891 -0.0224
  872POPE   C1A13295  -0.294  17.230   6.631  0.5450 -0.2188 -0.0794
  872POPE   D2A13296  -0.384  17.189   7.141  0.0112 -0.2535 -0.1017
  872POPE   C3A13297  -0.262  17.441   7.478  0.0870  0.3469 -0.1998
  872POPE   C4A13298  -0.066  17.679   7.788  0.1344 -0.4003  0.1307
  872POPE   C1B13299   0.181  17.420   6.387 -0.0524 -0.2674 -0.0608
  872POPE   C2B13300   0.527  17.313   6.691  0.0318  0.1922  0.1384
  872POPE   C3B13301   0.801  17.152   6.930 -0.0374  0.1544  0.0952
  872POPE   C4B13302   0.837  17.115   7.395 -0.0930  0.1354 -0.0823
  873POPE   NH313303  16.637  15.111   5.983 -0.1503 -0.2003 -0.3314
  873POPE   PO413304  16.750  14.709   5.630 -0.0269  0.1180  0.1201
  873POPE   GL113305  16.786  14.612   5.996 -0.0238 -0.3600  0.1384
  873POPE   GL213306  17.035  14.757   6.125  0.1080  0.0190 -0.2067
  873POPE   C1A13307  16.768  14.160   6.318 -0.0097  0.1162  0.0049
  873POPE   D2A13308  16.413  13.914   6.428 -0.0833  0.2148  0.0942
  873POPE   C3A13309  15.936  13.991   6.632  0.0140 -0.3608  0.0380
  873POPE   C4A13310  15.793  13.855   7.101 -0.0767 -0.1939  0.1689
  873POPE   C1B13311  16.740  14.650   6.503 -0.1061 -0.2237 -0.1624
  873POPE   C2B13312  16.625  14.214   6.781  0.3306  0.2378  0.1935
  873POPE   C3B13313  16.438  13.868   6.921  0.0149  0.0312 -0.1462
  873POPE   C4B13314  16.117  13.534   6.798  0.1652 -0.0016  0.2211
  874YOPE   NH313315   7.099  15.529   5.893  0.0945 -0.4058  0.1841
  874YOPE   PO413316   7.571  15.512   6.037  0.1357  0.0683  0.3690
  874YOPE   GL113317   7.419  15.375   6.411 -0.1816 -0.3092  0.0121
  874YOPE   GL213318   7.581  15.174   6.533  0.1140 -0.0883 -0.1526
  874YOPE   C1A13319   7.478  15.453   6.867 -0.0208  0.1537 -0.2935
  874YOPE   D2A13320   7.537  15.452   7.230  0.1737 -0.1730 -0.6326
  874YOPE   C3A13321   7.588  15.785   7.512 -0.0795  0.2032  0.4007
  874YOPE   C4A13322   7.790  16.042   7.694 -0.0868  0.0825  0.1701
  874YOPE   C1B13323   7.361  14.980   6.865  0.0796  0.0219  0.1003
  874YOPE   C2B13324   7.283  14.903   7.333 -0.0175  0.0468 -0.1265
  874YOPE   D3B13325   7.180  14.762   7.791  0.0808  0.3019  0.2431
  874YOPE   C4B13326   7.103  14.562   8.194 -0.1938  0.1794 -0.2481
  875YOPE   NH313327   8.004   4.805   5.875 -0.0823 -0.2197  0.2965
  875YOPE   PO413328   8.387   4.824   5.674  0.0665  0.4431 -0.1120
  875YOPE   GL113329   8.462   4.850   6.123  0.1483 -0.1488 -0.0975
  875YOPE   GL213330   8.295   5.136   6.293  0.1799 -0.1650  0.1769
  875YOPE   C1A13331   8.559   4.699   6.526  0.2226 -0.5514 -0.1129
  875YOPE   D2A13332   8.769   4.940   6.915 -0.0824  0.2088 -0.1346
  875YOPE   C3A13333   8.720   4.930   7.418  0.2922 -0.0812  0.1756
  875YOPE   C4A13334   8.327   5.002   7.626  0.0298  0.2577 -0.1244
  875YOPE   C1B13335   8.115   5.015   6.680 -0.0194 -0.1948 -0.0649
  875YOPE   C2B13336   8.066   4.705   6.931  0.5217  0.3423 -0.3107
  875YOPE   D3B13337   8.367   4.604   7.254 -0.2391  0.2895 -0.2896
  875YOPE   C4B13338   8.541   4.535   7.629  0.2133  0.2643 -0.1490
  876YOPE   NH313339   0.824  11.894   5.820  0.0085  0.0514 -0.2030
  876YOPE   PO413340   0.387  11.889   5.848 -0.1202 -0.1195 -0.0724
  876YOPE   GL113341   0.506  11.895   6.177  0.1746 -0.0510 -0.4220
  876YOPE   GL213342   0.227  11.854   6.357 -0.1009  0.0264  0.2047
  876YOPE   C1A13343   0.639  12.080   6.632  0.0356  0.0147  0.1449
  876YOPE   D2A13344   0.632  12.383   6.945 -0.1098 -0.1074 -0.0164
  876YOPE   C3A13345   0.551  12.211   7.284 -0.0966 -0.0586  0.0346
  876YOPE   C4A13346   0.387  12.118   7.681 -0.0779 -0.0435 -0.2607
  876YOPE   C1B13347   0.195  11.728   6.794 -0.1172 -0.2494  0.1169
  876YOPE   C2B13348   0.218  11.711   7.189 -0.2036 -0.2349  0.0667
  876YOPE   D3B13349   0.201  11.400   7.477 -0.2702 -0.0894 -0.4421
  876YOPE   C4B13350   0.309  11.097   7.756 -0.1645  0.0506 -0.0602
  877YOPE   NH313351  16.126   0.803   5.669  0.1391  0.0185  0.1094
  877YOPE   PO413352  15.692   0.785   5.763  0.1019  0.0569 -0.1924
  877YOPE   GL113353  15.889   1.022   6.050 -0.3470 -0.2240  0.2634
  877YOPE   GL213354  16.187   1.207   6.002  0.1817 -0.0349 -0.1803
  877YOPE   C1A13355  15.944   1.109   6.447  0.0967 -0.1979 -0.3836
  877YOPE   D2A13356  16.073   0.961   6.737 -0.1625 -0.2174  0.0909
  877YOPE   C3A13357  15.943   1.166   7.162 -0.1963  0.2194 -0.1124
  877YOPE   C4A13358  16.148   1.050   7.571  0.1049 -0.0977  0.0025
  877YOPE   C1B13359  16.410   1.359   6.204 -0.1079 -0.0739 -0.1112
  877YOPE   C2B13360  16.555   1.172   6.604  0.1084 -0.1309 -0.1339
  877YOPE   D3B13361  16.438   1.292   7.109  0.2000 -0.1552 -0.1091
  877YOPE   C4B13362  16.360   1.485   7.531 -0.1807  0.1725  0.3367
  878YOPE   NH313363   3.405  14.277   5.882 -0.0713 -0.0863 -0.0467
  878YOPE   PO413364   3.421  14.590   5.690 -0.2849 -0.1084 -0.1585
  878YOPE   GL113365   3.472  14.784   6.081 -0.0740 -0.2892  0.0203
  878YOPE   GL213366   3.266  14.527   6.281 -0.0167 -0.3218  0.0797
  878YOPE   C1A13367   3.305  15.042   6.540 -0.0267  0.0195 -0.0161
  878YOPE   D2A13368   3.314  15.178   6.985 -0.0872 -0.0498  0.1253
  878YOPE   C3A13369   3.225  14.947   7.273 -0.2947  0.2560  0.0714
  878YOPE   C4A13370   3.314  15.071   7.751 -0.0653  0.0157  0.3377
  878YOPE   C1B13371   3.474  14.288   6.658 -0.1679 -0.2230  0.0009
  878YOPE   C2B13372   3.357  14.248   7.048  0.0711 -0.1544 -0.2102
  878YOPE   D3B13373   3.323  14.117   7.484  0.0709 -0.2975 -0.2083
  878YOPE   C4B13374   3.044  14.074   7.769 -0.1555 -0.0197  0.2618
  879YOPE   NH313375  13.497  18.433   5.548  0.3874 -0.0995  0.0260
  879YOPE   PO413376  13.018  18.489   5.578 -0.0161  0.0775 -0.0868
  879YOPE   GL113377  12.756  18.604   5.832  0.0853  0.1051 -0.0042
  879YOPE   GL213378  12.908  19.028   5.713 -0.0349  0.1515  0.1900
  879YOPE   C1A13379  12.458  18.834   5.814  0.0736  0.1693 -0.2210
  879YOPE   D2A13380  12.160  18.884   6.144  0.0219  0.2235  0.3695
  879YOPE   C3A13381  12.033  18.666   6.475 -0.1834 -0.0085 -0.0329
  879YOPE   C4A13382  11.809  18.523   6.827  0.0538  0.0525 -0.1860
  879YOPE   C1B13383  12.705  19.172   6.082 -0.0478 -0.0395  0.1172
  879YOPE   C2B13384  12.626  19.077   6.435  0.0846 -0.2305  0.0684
  879YOPE   D3B13385  12.381  18.947   6.781 -0.0455 -0.0630  0.0414
  879YOPE   C4B13386  12.368  18.520   6.953  0.0698  0.2081 -0.2297
  880YOPE   NH313387  15.532   7.864   5.338  0.1211 -0.1346 -0.1877
  880YOPE   PO413388  15.168   8.094   5.477 -0.0439  0.2451  0.0187
  880YOPE   GL113389  15.277   8.057   5.865  0.1066 -0.1297 -0.2039
  880YOPE   GL213390  15.190   8.314   6.165  0.2272  0.2603  0.1209
  880YOPE   C1A13391  15.140   7.819   6.143  0.0402  0.0690  0.1319
  880YOPE   D2A13392  15.003   7.663   6.481 -0.1285 -0.0412  0.0496
  880YOPE   C3A13393  14.929   7.802   6.839 -0.1819  0.1472  0.3203
  880YOPE   C4A13394  14.658   7.937   7.079 -0.0639  0.1630 -0.2520
  880YOPE   C1B13395  15.003   8.182   6.526  0.2620 -0.1404 -0.1289
  880YOPE   C2B13396  14.747   8.349   6.838  0.1392 -0.0549  0.0941
  880YOPE   D3B13397  14.801   8.392   7.276  0.0729  0.0013 -0.0016
  880YOPE   C4B13398  14.708   8.416   7.753 -0.2915 -0.0132  0.0309
  881YOPE   NH313399   0.897   8.890   6.116 -0.0085 -0.3167  0.1654
  881YOPE   PO413400   0.849   9.335   6.126  0.2804  0.1570  0.0944
  881YOPE   GL113401   0.896   9.460   6.557 -0.1546  0.2116  0.3338
  881YOPE   GL213402   0.703   9.694   6.544 -0.1645 -0.4048 -0.2064
  881YOPE   C1A13403   0.998   9.486   6.976  0.2766  0.0695  0.1966
  881YOPE   D2A13404   0.904   9.454   7.363 -0.2189  0.1320 -0.1392
  881YOPE   C3A13405   1.228   9.583   7.699 -0.3817 -0.0231 -0.1618
  881YOPE   C4A13406   1.540   9.813   7.827 -0.0429 -0.0373 -0.1019
  881YOPE   C1B13407   0.474   9.331   6.919  0.2287 -0.4104  0.0966
  881YOPE   C2B13408   0.368   9.290   7.367 -0.0703  0.1252  0.0867
  881YOPE   D3B13409   0.213   9.250   7.748  0.0027 -0.1172  0.0504
  881YOPE   C4B13410   0.281   9.382   8.112  0.3623 -0.0553  0.1032
  882YOPE   NH313411  12.439   5.973   5.379  0.2465 -0.2235  0.1826
  882YOPE   PO413412  12.736   6.288   5.639 -0.0779 -0.3039  0.2271
  882YOPE   GL113413  12.406   6.162   5.992 -0.0763 -0.0417  0.1501
  882YOPE   GL213414  11.982   6.228   5.957  0.1594  0.1043  0.0617
  882YOPE   C1A13415  12.211   5.885   6.228  0.1961 -0.1720  0.0216
  882YOPE   D2A13416  12.352   5.686   6.624 -0.0757 -0.1438  0.0402
  882YOPE   C3A13417  12.133   5.424   6.944 -0.3588 -0.2242 -0.0547
  882YOPE   C4A13418  12.012   5.100   7.045 -0.0347  0.1813 -0.1019
  882YOPE   C1B13419  11.830   6.258   6.372  0.1154 -0.0542  0.2057
  882YOPE   C2B13420  11.996   6.257   6.643  0.0263 -0.3506 -0.0445
  882YOPE   D3B13421  12.131   5.960   6.969  0.0473  0.1105 -0.0162
  882YOPE   C4B13422  12.059   5.791   7.298  0.0470  0.0545  0.1044
  883YOPE   NH313423   5.007   0.816   5.957  0.1240  0.1751  0.1102
  883YOPE   PO413424   5.412   1.005   6.002 -0.3852 -0.0236 -0.0475
  883YOPE   GL113425   5.630   1.143   6.294 -0.0188  0.0048 -0.1166
  883YOPE   GL213426   5.765   0.971   6.344 -0.0457 -0.1744 -0.2636
  883YOPE   C1A13427   5.434   1.362   6.667  0.1141  0.3951 -0.1780
  883YOPE   D2A13428   5.530   1.409   6.988  0.0729  0.0029  0.1446
  883YOPE   C3A13429   5.242   1.434   7.332 -0.0483  0.0018  0.1041
  883YOPE   C4A13430   5.128   1.237   7.720 -0.0971 -0.2052 -0.2940
  883YOPE   C1B13431   5.585   0.675   6.717 -0.0679  0.0298  0.1457
  883YOPE   C2B13432   5.369   0.333   6.813 -0.1731  0.1355  0.0381
  883YOPE   D3B13433   5.412   0.234   7.219 -0.3467 -0.0176 -0.0477
  883YOPE   C4B13434   5.554   0.349   7.706  0.3080 -0.0885 -0.0873
  884YOPE   NH313435  15.363  10.923   5.408 -0.0950  0.0504  0.2052
  884YOPE   PO413436  14.928  10.711   5.437  0.1556 -0.0342 -0.1953
  884YOPE   GL113437  14.755  10.486   5.745 -0.1291  0.0728 -0.0690
  884YOPE   GL213438  14.655  10.717   6.002 -0.1803  0.0626 -0.1751
  884YOPE   C1A13439  14.677  10.226   6.180 -0.0990 -0.1141 -0.0674
  884YOPE   D2A13440  14.558  10.093   6.532 -0.2761  0.0865  0.0031
  884YOPE   C3A13441  14.549  10.095   6.985 -0.1042  0.1132  0.2128
  884YOPE   C4A13442  14.378   9.786   7.210  0.1004 -0.2424  0.2014
  884YOPE   C1B13443  14.648  10.765   6.430  0.0902 -0.0613 -0.0334
  884YOPE   C2B13444  14.700  10.533   6.799  0.2834  0.1331 -0.0657
  884YOPE   D3B13445  14.643  10.568   7.261  0.0762  0.0728 -0.0742
  884YOPE   C4B13446  14.396  10.272   7.496  0.0526  0.0626 -0.0227
  885YOPE   NH313447   6.952   0.614   5.802  0.1448  0.0293  0.0980
  885YOPE   PO413448   6.737   0.952   5.855 -0.2156  0.1720  0.3860
  885YOPE   GL113449   6.832   0.973   6.193 -0.0183 -0.1437 -0.0902
  885YOPE   GL213450   7.034   1.072   6.340 -0.4525 -0.2378 -0.0075
  885YOPE   C1A13451   6.540   0.873   6.457  0.0461 -0.2574 -0.1839
  885YOPE   D2A13452   6.160   0.741   6.566 -0.0671 -0.2449 -0.2818
  885YOPE   C3A13453   6.023   0.704   6.914  0.0568  0.0332 -0.3248
  885YOPE   C4A13454   5.675   0.673   7.196  0.3859 -0.0881 -0.1603
  885YOPE   C1B13455   7.124   0.954   6.748  0.2455 -0.2062  0.0396
  885YOPE   C2B13456   7.455   0.785   7.094  0.1836 -0.0131 -0.0152
  885YOPE   D3B13457   7.675   0.486   7.364  0.0963  0.1265 -0.0304
  885YOPE   C4B13458   7.681   0.289   7.729  0.3212 -0.2287 -0.4250
  886YOPE   NH313459  15.270  14.793   5.890 -0.1921 -0.1154 -0.1156
  886YOPE   PO413460  15.454  14.468   6.025  0.2861 -0.1255 -0.0757
  886YOPE   GL113461  15.286  14.322   6.384  0.2036  0.1859 -0.2161
  886YOPE   GL213462  14.979  14.225   6.412 -0.0323  0.0783  0.1958
  886YOPE   C1A13463  15.057  14.465   6.826  0.0605 -0.2025 -0.1070
  886YOPE   D2A13464  15.017  14.964   6.955  0.2128  0.0666 -0.0080
  886YOPE   C3A13465  14.595  15.071   7.158  0.0896 -0.3474  0.2658
  886YOPE   C4A13466  14.403  15.218   7.568 -0.0018  0.0374  0.2040
  886YOPE   C1B13467  14.866  14.026   6.713  0.0198 -0.0960  0.2931
  886YOPE   C2B13468  14.593  14.020   6.999 -0.0701 -0.4608  0.0293
  886YOPE   D3B13469  14.192  14.008   7.009 -0.0995  0.0538  0.1768
  886YOPE   C4B13470  13.717  14.041   6.915  0.0219  0.1505  0.2227
  887YOPE   NH313471   4.317  12.949   5.853 -0.0700 -0.0019  0.1354
  887YOPE   PO413472   4.517  12.569   5.653  0.2764 -0.1599 -0.0985
  887YOPE   GL113473   4.569  12.448   6.114  0.1254  0.1378  0.0914
  887YOPE   GL213474   4.307  12.642   6.290  0.1991 -0.1136  0.0694
  887YOPE   C1A13475   4.652  12.382   6.465 -0.1113 -0.4526  0.1079
  887YOPE   D2A13476   4.522  11.995   6.778  0.0277 -0.1599 -0.1495
  887YOPE   C3A13477   4.289  11.792   6.889  0.1017 -0.0839 -0.0136
  887YOPE   C4A13478   3.994  11.631   7.271 -0.0139 -0.1011 -0.1124
  887YOPE   C1B13479   4.386  12.708   6.726 -0.0419  0.2997 -0.0989
  887YOPE   C2B13480   4.445  12.644   7.191  0.0783 -0.1077 -0.1997
  887YOPE   D3B13481   4.605  12.465   7.604 -0.1231 -0.0204  0.1199
  887YOPE   C4B13482   4.368  12.389   8.064 -0.1539 -0.1331  0.2142
  888YOPE   NH313483   1.271   3.467   5.790 -0.1883 -0.2422  0.2214
  888YOPE   PO413484   1.323   3.122   5.638  0.1395  0.1775  0.1599
  888YOPE   GL113485   1.357   2.980   6.021 -0.1673  0.1607  0.5444
  888YOPE   GL213486   1.230   2.655   6.163 -0.0547 -0.0201 -0.1321
  888YOPE   C1A13487   1.506   3.081   6.360 -0.1926 -0.0121 -0.0549
  888YOPE   D2A13488   1.472   3.197   6.817  0.0832 -0.1792 -0.2401
  888YOPE   C3A13489   1.255   3.151   7.206  0.0387  0.0111  0.2287
  888YOPE   C4A13490   1.211   3.204   7.569  0.0319  0.0608 -0.3134
  888YOPE   C1B13491   1.112   2.656   6.583 -0.1607 -0.4046 -0.1503
  888YOPE   C2B13492   1.064   2.675   7.016  0.1693  0.1149  0.0843
  888YOPE   D3B13493   1.066   2.628   7.426  0.0482 -0.0565  0.2432
  888YOPE   C4B13494   1.186   2.487   7.914  0.0097  0.3246  0.1007
  889YOPE   NH313495  15.402   5.023   5.448  0.1747 -0.0807 -0.1708
  889YOPE   PO413496  15.883   4.829   5.716  0.0590 -0.0686 -0.1220
  889YOPE   GL113497  16.147   4.826   6.057 -0.0634 -0.2644 -0.2720
  889YOPE   GL213498  16.198   5.196   6.225  0.0273  0.1813  0.1947
  889YOPE   C1A13499  16.035   4.793   6.504 -0.0225 -0.0743 -0.0513
  889YOPE   D2A13500  16.008   4.686   6.926  0.0681 -0.0154 -0.1252
  889YOPE   C3A13501  15.567   4.652   7.105  0.1275 -0.1221 -0.3223
  889YOPE   C4A13502  15.268   4.441   7.358  0.1486 -0.0296 -0.3858
  889YOPE   C1B13503  15.996   5.327   6.555  0.2255  0.5769 -0.1769
  889YOPE   C2B13504  15.821   5.688   6.891 -0.0540 -0.4774  0.0689
  889YOPE   D3B13505  15.747   5.858   7.306  0.3917 -0.0015  0.1127
  889YOPE   C4B13506  15.676   5.852   7.736 -0.1148 -0.1437  0.2530
  890YOPE   NH313507   3.140  17.504   5.727 -0.1857 -0.0654  0.1733
  890YOPE   PO413508   2.979  17.112   5.638  0.1112  0.1081  0.0147
  890YOPE   GL113509   3.308  16.999   5.916 -0.2293 -0.1173  0.1478
  890YOPE   GL213510   3.443  17.257   6.056  0.1951 -0.2236 -0.0643
  890YOPE   C1A13511   3.493  16.572   6.213 -0.3461  0.1067 -0.0912
  890YOPE   D2A13512   3.494  16.362   6.594  0.0082 -0.1461 -0.4538
  890YOPE   C3A13513   3.434  16.475   7.002 -0.0024 -0.1635 -0.1431
  890YOPE   C4A13514   3.245  16.588   7.373  0.0213 -0.3617  0.2336
  890YOPE   C1B13515   3.314  17.437   6.502  0.0828  0.0095 -0.0035
  890YOPE   C2B13516   3.324  17.361   6.906 -0.0303 -0.0904 -0.2490
  890YOPE   D3B13517   3.249  17.700   7.220  0.1987  0.0754 -0.2695
  890YOPE   C4B13518   3.056  17.751   7.547 -0.4467  0.2250 -0.0761
  891YOPE   NH313519  14.570   5.926   5.763  0.3972 -0.0086 -0.0367
  891YOPE   PO413520  15.039   5.658   5.682 -0.0278 -0.0377 -0.1634
  891YOPE   GL113521  15.122   5.460   6.142 -0.1149 -0.0058 -0.0304
  891YOPE   GL213522  14.867   5.805   6.198 -0.1080  0.0332  0.1263
  891YOPE   C1A13523  15.356   5.075   6.433  0.3030 -0.1961  0.3704
  891YOPE   D2A13524  15.616   5.049   6.817 -0.0106 -0.1304  0.1236
  891YOPE   C3A13525  15.482   5.116   7.127 -0.1143 -0.0888 -0.0124
  891YOPE   C4A13526  15.179   5.192   7.409 -0.1766 -0.0839 -0.2685
  891YOPE   C1B13527  14.989   5.881   6.666 -0.2052  0.0615  0.0144
  891YOPE   C2B13528  14.989   6.110   7.077  0.0687  0.0166 -0.0826
  891YOPE   D3B13529  14.868   6.474   7.280 -0.1948 -0.0469 -0.0844
  891YOPE   C4B13530  14.801   6.926   7.403  0.0969 -0.0408  0.2670
  892YOPE   NH313531  17.362   9.034   5.692 -0.2606 -0.2171 -0.1042
  892YOPE   PO413532  17.201   8.678   5.538 -0.1863  0.3495  0.0303
  892YOPE   GL113533  16.941   8.610   5.892 -0.2137  0.0125  0.2576
  892YOPE   GL213534  17.045   8.861   6.062 -0.1353 -0.0602  0.0922
  892YOPE   C1A13535  16.823   8.347   6.170  0.0025 -0.2171  0.2153
  892YOPE   D2A13536  16.782   7.929   6.242  0.2042 -0.0506  0.0845
  892YOPE   C3A13537  16.638   7.925   6.717 -0.0083 -0.0635 -0.2137
  892YOPE   C4A13538  16.676   8.087   7.145 -0.0029  0.0590  0.1150
  892YOPE   C1B13539  16.911   8.791   6.485 -0.0384  0.0883  0.2400
  892YOPE   C2B13540  17.177   8.859   6.917 -0.3118  0.1297  0.0554
  892YOPE   D3B13541  17.357   8.968   7.321 -0.4436 -0.0125 -0.1344
  892YOPE   C4B13542  17.631   9.239   7.659  0.0069  0.0428 -0.1814
  893YOPE   NH313543  12.963  15.234   5.898  0.2908  0.1105 -0.0941
  893YOPE   PO413544  12.772  14.826   5.925  0.0238 -0.2382 -0.1352
  893YOPE   GL113545  13.071  14.811   6.270 -0.0233  0.1054 -0.1284
  893YOPE   GL213546  13.012  14.620   6.540  0.0535 -0.3032 -0.1652
  893YOPE   C1A13547  13.194  15.224   6.486 -0.2323 -0.0773 -0.2845
  893YOPE   D2A13548  13.221  15.320   6.837  0.0086 -0.0462  0.1235
  893YOPE   C3A13549  13.265  15.007   7.138 -0.2596 -0.0452  0.1594
  893YOPE   C4A13550  13.129  14.743   7.390 -0.1600 -0.1375 -0.1938
  893YOPE   C1B13551  13.063  14.541   6.919 -0.0993 -0.2207 -0.0194
  893YOPE   C2B13552  12.918  14.312   7.229  0.0549 -0.1051  0.1033
  893YOPE   D3B13553  12.545  14.421   7.514 -0.2170 -0.0600 -0.0119
  893YOPE   C4B13554  12.368  14.399   7.958 -0.1276  0.1696  0.0963
  894YOPE   NH313555   6.746  18.344   5.459  0.2761  0.0936  0.0012
  894YOPE   PO413556   6.943  18.219   5.526  0.2178  0.2024  0.4817
  894YOPE   GL113557   6.906  18.210   5.973  0.3681 -0.1209  0.0808
  894YOPE   GL213558   6.768  18.252   6.163 -0.2385 -0.0096  0.1201
  894YOPE   C1A13559   7.190  17.991   6.273  0.0502  0.0362 -0.0787
  894YOPE   D2A13560   7.259  17.731   6.717 -0.1163  0.0268  0.1367
  894YOPE   C3A13561   7.645  17.490   6.848 -0.0187  0.0514  0.1518
  894YOPE   C4A13562   7.947  17.573   7.139  0.1436  0.1808  0.3642
  894YOPE   C1B13563   6.570  18.235   6.564 -0.1177 -0.4077 -0.3478
  894YOPE   C2B13564   6.832  18.165   6.936  0.1482 -0.0777 -0.2899
  894YOPE   D3B13565   6.668  17.956   7.328  0.1909 -0.0743  0.4021
  894YOPE   C4B13566   6.694  17.665   7.740  0.0447 -0.2443 -0.0932
  895YOPE   NH313567   5.675   8.623   5.860  0.0103  0.4499 -0.1563
  895YOPE   PO413568   5.891   8.923   5.824 -0.1936 -0.0366 -0.2492
  895YOPE   GL113569   5.875   8.821   6.282  0.0951  0.0835 -0.2151
  895YOPE   GL213570   6.156   8.977   6.225  0.1377  0.0705 -0.5031
  895YOPE   C1A13571   5.802   8.892   6.799  0.0536 -0.1986  0.1706
  895YOPE   D2A13572   5.601   8.773   7.128  0.0226 -0.0809 -0.0057
  895YOPE   C3A13573   5.598   8.617   7.436  0.2300 -0.0140 -0.2043
  895YOPE   C4A13574   5.402   8.633   7.818  0.0528  0.3485  0.0494
  895YOPE   C1B13575   6.129   9.198   6.538 -0.1423  0.1204  0.1978
  895YOPE   C2B13576   6.200   9.278   6.911 -0.0084  0.2001  0.2800
  895YOPE   D3B13577   6.477   9.278   7.354 -0.2583  0.1819  0.4252
  895YOPE   C4B13578   6.887   9.461   7.517 -0.0926 -0.1528  0.0368
  896YOPE   NH313579  12.648   4.290   5.534 -0.1081 -0.0539  0.2949
  896YOPE   PO413580  13.043   4.408   5.581  0.1626  0.1499 -0.1023
  896YOPE   GL113581  12.989   4.468   5.953 -0.4829 -0.3717  0.1023
  896YOPE   GL213582  12.966   4.174   6.085 -0.0008  0.0384  0.3539
  896YOPE   C1A13583  13.122   4.559   6.414 -0.0806  0.1391  0.0663
  896YOPE   D2A13584  13.038   4.406   6.804  0.2295  0.3379  0.0662
  896YOPE   C3A13585  13.100   4.404   7.262  0.1466  0.3039  0.1404
  896YOPE   C4A13586  13.379   4.624   7.572  0.0933 -0.1990  0.0201
  896YOPE   C1B13587  13.124   4.053   6.480 -0.0024 -0.0401 -0.0481
  896YOPE   C2B13588  13.245   3.911   6.827 -0.1150 -0.0260 -0.0709
  896YOPE   D3B13589  13.485   3.995   7.251 -0.1587 -0.1741 -0.0324
  896YOPE   C4B13590  13.935   3.861   7.349 -0.0473 -0.0546  0.1910
  897YOPE   NH313591   5.005   4.131   5.454  0.2372 -0.1549 -0.0550
  897YOPE   PO413592   5.190   4.502   5.497 -0.0162 -0.0230  0.2612
  897YOPE   GL113593   4.987   4.450   5.889 -0.2304  0.0254  0.1405
  897YOPE   GL213594   5.094   4.734   5.994  0.1960  0.0933 -0.0931
  897YOPE   C1A13595   4.912   4.156   6.214 -0.0043 -0.0462 -0.0438
  897YOPE   D2A13596   4.947   3.974   6.632 -0.4603 -0.0359 -0.0717
  897YOPE   C3A13597   5.338   4.097   6.864 -0.0860 -0.0530 -0.1389
  897YOPE   C4A13598   5.756   4.273   6.988 -0.2241 -0.1298 -0.2167
  897YOPE   C1B13599   5.205   4.910   6.328  0.1569 -0.0463 -0.0734
  897YOPE   C2B13600   5.075   5.006   6.782 -0.2297 -0.0735 -0.2977
  897YOPE   D3B13601   5.244   4.891   7.200  0.2434 -0.1018 -0.0980
  897YOPE   C4B13602   5.275   4.702   7.681  0.1445 -0.0221 -0.0276
  898YOPE   NH313603  16.820  16.104   5.756  0.3012  0.0168  0.2704
  898YOPE   PO413604  16.557  16.247   5.843  0.0428  0.2849  0.3511
  898YOPE   GL113605  16.311  15.988   6.010  0.0067  0.1638 -0.1751
  898YOPE   GL213606  16.444  15.951   6.249  0.0627 -0.0004  0.0252
  898YOPE   C1A13607  15.994  15.838   6.437 -0.0345 -0.2475  0.0143
  898YOPE   D2A13608  15.826  15.719   6.817 -0.3146 -0.1273  0.1201
  898YOPE   C3A13609  16.018  15.553   7.217  0.0801  0.0939  0.1597
  898YOPE   C4A13610  16.050  15.270   7.608 -0.0652  0.1624 -0.0148
  898YOPE   C1B13611  16.458  15.842   6.640 -0.2596 -0.0819 -0.0128
  898YOPE   C2B13612  16.573  15.867   7.036  0.1965 -0.0260 -0.1102
  898YOPE   D3B13613  16.662  15.889   7.408  0.2169 -0.1320  0.1975
  898YOPE   C4B13614  16.438  15.576   7.545 -0.2493  0.0134  0.2351
  899YOPE   NH313615   4.739  13.700   5.925  0.0450 -0.0811  0.0616
  899YOPE   PO413616   4.987  13.345   5.851 -0.2475  0.0645  0.0108
  899YOPE   GL113617   5.155  13.322   6.255 -0.2791  0.0118  0.0971
  899YOPE   GL213618   5.379  13.426   6.202  0.0120 -0.2614  0.1262
  899YOPE   C1A13619   5.080  13.365   6.695 -0.0350 -0.1280 -0.1443
  899YOPE   D2A13620   4.950  13.172   7.132 -0.0778  0.2763 -0.0698
  899YOPE   C3A13621   5.161  13.346   7.448  0.0012  0.1058 -0.1400
  899YOPE   C4A13622   5.060  13.301   7.888 -0.0297  0.0319 -0.0355
  899YOPE   C1B13623   5.555  13.482   6.606  0.1874 -0.2174 -0.0680
  899YOPE   C2B13624   5.439  13.493   7.035 -0.0965  0.0633  0.2521
  899YOPE   D3B13625   5.598  13.617   7.503 -0.0772  0.0173 -0.1456
  899YOPE   C4B13626   5.907  13.507   7.716 -0.0910  0.0655  0.0712
  900YOPE   NH313627  13.741   7.201   5.534 -0.0361 -0.1013 -0.3333
  900YOPE   PO413628  13.493   7.536   5.301 -0.1794 -0.2044 -0.2189
  900YOPE   GL113629  13.469   7.513   5.825 -0.1107 -0.0594  0.1461
  900YOPE   GL213630  13.074   7.401   6.069  0.1139 -0.5083  0.1070
  900YOPE   C1A13631  13.392   7.743   6.188 -0.0327  0.0056 -0.0377
  900YOPE   D2A13632  13.219   8.038   6.391  0.2734  0.3369  0.0838
  900YOPE   C3A13633  13.309   7.879   6.829  0.0553 -0.0303 -0.2167
  900YOPE   C4A13634  13.501   8.071   7.229 -0.0269 -0.1517 -0.3620
  900YOPE   C1B13635  13.044   7.491   6.498 -0.2253 -0.2768  0.1507
  900YOPE   C2B13636  12.860   7.683   6.842  0.1276  0.1058  0.0808
  900YOPE   D3B13637  12.858   7.511   7.192  0.1357  0.2022 -0.3776
  900YOPE   C4B13638  12.609   7.466   7.577 -0.0518 -0.0074  0.2844
  901YOPE   NH313639  14.964  11.935   5.577  0.0040 -0.1332  0.3750
  901YOPE   PO413640  15.184  12.400   5.848 -0.0875 -0.1226  0.4035
  901YOPE   GL113641  14.994  12.625   6.190 -0.0091 -0.1528  0.3354
  901YOPE   GL213642  15.107  13.019   6.230  0.0884  0.2020  0.2612
  901YOPE   C1A13643  15.019  12.692   6.657 -0.0855 -0.0495 -0.0939
  901YOPE   D2A13644  15.136  12.856   7.075 -0.4774 -0.0640  0.1816
  901YOPE   C3A13645  14.863  13.017   7.274 -0.1699 -0.0697 -0.0645
  901YOPE   C4A13646  14.609  13.170   7.574  0.0385  0.1153 -0.1743
  901YOPE   C1B13647  15.182  13.139   6.645  0.1004  0.2450 -0.0454
  901YOPE   C2B13648  15.045  13.489   6.872 -0.2265 -0.1554  0.1298
  901YOPE   D3B13649  15.248  13.693   7.132 -0.0584  0.3557 -0.1852
  901YOPE   C4B13650  15.018  14.053   7.392 -0.3785  0.4116 -0.1006
  902YOPE   NH313651   7.444  16.514   5.813 -0.1755 -0.1990  0.1371
  902YOPE   PO413652   7.769  16.279   5.581 -0.2230  0.1727 -0.2079
  902YOPE   GL113653   7.789  16.236   6.040  0.3246 -0.0025 -0.0766
  902YOPE   GL213654   7.666  16.434   6.256  0.3094  0.0089 -0.0356
  902YOPE   C1A13655   8.077  16.009   6.296  0.1180  0.2051 -0.0710
  902YOPE   D2A13656   8.345  16.164   6.707 -0.0459 -0.2278 -0.0743
  902YOPE   C3A13657   8.548  16.189   7.083  0.1978  0.1753  0.0142
  902YOPE   C4A13658   8.708  16.296   7.485  0.0757 -0.1496  0.1865
  902YOPE   C1B13659   7.956  16.453   6.636 -0.2360  0.0830  0.2106
  902YOPE   C2B13660   8.115  16.606   6.967  0.0247 -0.0013 -0.2648
  902YOPE   D3B13661   8.336  16.637   7.305 -0.1930 -0.1502 -0.3683
  902YOPE   C4B13662   8.469  16.725   7.710  0.1265 -0.1397  0.2531
  903YOPE   NH313663   2.262  14.416   5.798  0.1517  0.2102  0.1913
  903YOPE   PO413664   2.535  14.829   5.545 -0.2458  0.1202  0.1161
  903YOPE   GL113665   2.485  14.858   5.988  0.1146  0.2672 -0.2074
  903YOPE   GL213666   2.344  15.175   6.091 -0.3760  0.1379 -0.1175
  903YOPE   C1A13667   2.385  14.866   6.444  0.0260 -0.0196  0.0350
  903YOPE   D2A13668   2.164  14.937   6.859 -0.2925 -0.2149  0.0186
  903YOPE   C3A13669   2.134  14.725   7.203  0.0644 -0.0551 -0.0453
  903YOPE   C4A13670   2.092  14.285   7.231  0.0279  0.0225 -0.0415
  903YOPE   C1B13671   2.490  15.540   6.283  0.3365  0.0003  0.0808
  903YOPE   C2B13672   2.741  15.776   6.643  0.0044  0.0666 -0.0044
  903YOPE   D3B13673   2.670  15.751   6.974 -0.0172 -0.2613 -0.1233
  903YOPE   C4B13674   2.629  15.849   7.356 -0.2434  0.0993 -0.1038
  904YOPE   NH313675   1.633  15.658   5.173 -0.2820 -0.0873  0.0854
  904YOPE   PO413676   1.842  15.326   5.450  0.3595  0.2198  0.0253
  904YOPE   GL113677   1.637  15.175   5.928  0.0693 -0.0641  0.2372
  904YOPE   GL213678   1.415  14.893   5.910 -0.0078 -0.1461 -0.0905
  904YOPE   C1A13679   1.394  15.284   6.186 -0.0774 -0.0452  0.1612
  904YOPE   D2A13680   1.385  15.568   6.497 -0.0201 -0.3865  0.1598
  904YOPE   C3A13681   1.026  15.767   6.668 -0.2657 -0.1349  0.2320
  904YOPE   C4A13682   0.894  15.802   7.078  0.1181 -0.0510  0.3375
  904YOPE   C1B13683   1.260  14.870   6.363  0.0843  0.1028 -0.0535
  904YOPE   C2B13684   1.242  14.972   6.779  0.1422  0.0831 -0.2083
  904YOPE   D3B13685   1.088  14.874   7.092  0.1125  0.3097  0.0145
  904YOPE   C4B13686   0.946  14.914   7.425 -0.1116  0.0679  0.1100
  905YOPE   NH313687   1.941  13.990   5.912  0.1287  0.2199 -0.2769
  905YOPE   PO413688   2.398  13.920   6.014  0.3602 -0.0007 -0.2764
  905YOPE   GL113689   2.656  13.805   6.426  0.0069 -0.0553  0.1787
  905YOPE   GL213690   2.386  14.009   6.542  0.3181 -0.0609 -0.1574
  905YOPE   C1A13691   2.630  13.610   6.802 -0.0663 -0.1625 -0.0273
  905YOPE   D2A13692   2.605  13.468   7.265  0.0355  0.0583 -0.1333
  905YOPE   C3A13693   2.589  13.286   7.670 -0.1937  0.0432 -0.2813
  905YOPE   C4A13694   2.655  13.207   8.114  0.0682  0.0556 -0.0876
  905YOPE   C1B13695   2.181  13.897   6.910 -0.0948 -0.2159 -0.2276
  905YOPE   C2B13696   2.176  13.699   7.376  0.1168  0.2108 -0.0628
  905YOPE   D3B13697   2.020  13.518   7.761 -0.1599  0.2517 -0.0262
  905YOPE   C4B13698   1.997  13.524   8.151 -0.0696  0.2589  0.2654
  906YOPE   NH313699  10.396  12.573   5.212 -0.2711  0.2740 -0.0519
  906YOPE   PO413700  10.290  12.343   5.609  0.0475  0.0020 -0.1330
  906YOPE   GL113701  10.492  12.031   5.927  0.0249 -0.3615  0.3615
  906YOPE   GL213702  10.794  12.058   6.113  0.1353 -0.0776  0.5572
  906YOPE   C1A13703  10.402  12.207   6.358 -0.0509 -0.1085  0.2602
  906YOPE   D2A13704  10.455  12.399   6.762  0.0278 -0.2248  0.2149
  906YOPE   C3A13705  10.372  12.564   7.134 -0.0918 -0.0597  0.1105
  906YOPE   C4A13706  10.556  12.671   7.491  0.1871 -0.1508 -0.0082
  906YOPE   C1B13707  10.918  12.093   6.487 -0.2686  0.2029 -0.1290
  906YOPE   C2B13708  10.923  11.863   6.820  0.0047  0.2411 -0.2438
  906YOPE   D3B13709  10.975  11.534   7.125 -0.0765  0.0841  0.0878
  906YOPE   C4B13710  10.717  11.128   7.107  0.0533  0.2674  0.1468
  907YOPE   NH313711  16.256   4.467   5.403  0.3116  0.0689  0.0122
  907YOPE   PO413712  16.556   4.173   5.517 -0.3387  0.2284 -0.0391
  907YOPE   GL113713  16.412   4.398   5.898  0.2659 -0.1525 -0.1576
  907YOPE   GL213714  16.696   4.572   6.119  0.1371  0.1971 -0.0022
  907YOPE   C1A13715  16.203   4.313   6.296  0.3752  0.2628  0.1925
  907YOPE   D2A13716  15.758   4.333   6.499 -0.0015 -0.3334 -0.1436
  907YOPE   C3A13717  15.756   4.161   6.869  0.0278 -0.4774  0.0914
  907YOPE   C4A13718  15.707   4.201   7.297  0.0603  0.0595  0.0138
  907YOPE   C1B13719  16.531   4.728   6.477 -0.2328  0.0068  0.0133
  907YOPE   C2B13720  16.476   4.685   6.958  0.1324 -0.2334 -0.2394
  907YOPE   D3B13721  16.413   4.913   7.394 -0.1225 -0.0381 -0.0799
  907YOPE   C4B13722  16.415   4.980   7.876 -0.1028  0.1223  0.0778
  908YOPE   NH313723  17.952   9.867   5.673 -0.0623  0.0168  0.1248
  908YOPE   PO413724  18.426   9.996   5.685 -0.1191 -0.7225  0.0128
  908YOPE   GL113725  18.501  10.059   6.073 -0.1173  0.3158 -0.1072
  908YOPE   GL213726  18.612   9.907   6.334  0.0918  0.0687  0.0297
  908YOPE   C1A13727  18.170  10.179   6.328  0.1842  0.1315 -0.0146
  908YOPE   D2A13728  17.829  10.220   6.573  0.0233 -0.0474  0.2298
  908YOPE   C3A13729  17.721  10.419   6.890  0.0525  0.1134 -0.1280
  908YOPE   C4A13730  17.628  10.592   7.257 -0.0420  0.1690 -0.2874
  908YOPE   C1B13731  18.762   9.693   6.681  0.0398  0.0250  0.1116
  908YOPE   C2B13732  18.665   9.675   7.085 -0.4235  0.0800 -0.1894
  908YOPE   D3B13733  18.407   9.781   7.447  0.2049  0.0778  0.0928
  908YOPE   C4B13734  18.242  10.079   7.624 -0.1712  0.2484  0.1000
  909YOPE   NH313735  11.822  16.066   5.346  0.1613 -0.2771 -0.2261
  909YOPE   PO413736  11.937  15.948   5.687 -0.2411  0.1252 -0.1348
  909YOPE   GL113737  11.977  15.922   6.116 -0.1997  0.0271  0.0235
  909YOPE   GL213738  12.111  16.225   6.049  0.0597  0.1516 -0.2055
  909YOPE   C1A13739  12.078  15.958   6.601  0.0867  0.2066  0.0144
  909YOPE   D2A13740  12.131  15.972   7.003 -0.3214  0.2071  0.2217
  909YOPE   C3A13741  11.851  16.061   7.287 -0.0246  0.0183  0.0043
  909YOPE   C4A13742  11.646  15.941   7.682 -0.1942 -0.2213 -0.2185
  909YOPE   C1B13743  12.244  16.419   6.398 -0.0498  0.2657  0.0615
  909YOPE   C2B13744  12.260  16.420   6.782  0.1304  0.0475 -0.0397
  909YOPE   D3B13745  12.357  16.387   7.198  0.0234 -0.2059  0.0056
  909YOPE   C4B13746  12.432  15.993   7.479 -0.3077 -0.1314 -0.2886
  910YOPE   NH313747   0.788   5.948   5.443 -0.1214 -0.4237  0.1709
  910YOPE   PO413748   0.841   5.569   5.637 -0.1299 -0.0367  0.3321
  910YOPE   GL113749   1.131   5.453   5.939 -0.0555  0.1528  0.0827
  910YOPE   GL213750   1.469   5.412   5.915  0.0530 -0.1223 -0.1398
  910YOPE   C1A13751   1.187   5.507   6.382 -0.2423  0.0190 -0.2981
  910YOPE   D2A13752   1.315   5.687   6.663 -0.1964  0.0061 -0.0407
  910YOPE   C3A13753   1.421   5.704   7.040  0.2048  0.1821  0.4478
  910YOPE   C4A13754   1.388   5.765   7.480 -0.1160 -0.0923  0.2039
  910YOPE   C1B13755   1.493   5.843   6.128  0.5443  0.0828 -0.1517
  910YOPE   C2B13756   1.543   6.102   6.499  0.0915  0.1869 -0.2322
  910YOPE   D3B13757   1.539   6.190   6.995 -0.1336  0.4462 -0.4405
  910YOPE   C4B13758   1.398   6.340   7.406 -0.1513  0.4391  0.1307
  911YOPE   NH313759   5.670   2.827   5.774  0.0929  0.2771  0.2288
  911YOPE   PO413760   5.207   2.653   5.740  0.0103  0.0408 -0.2489
  911YOPE   GL113761   5.352   2.538   6.117  0.4759 -0.2409 -0.1507
  911YOPE   GL213762   5.181   2.366   6.368  0.1178  0.1818  0.0991
  911YOPE   C1A13763   5.547   2.685   6.562  0.0268 -0.0279  0.0235
  911YOPE   D2A13764   5.706   2.787   6.877 -0.0889  0.2592 -0.0295
  911YOPE   C3A13765   6.059   2.761   7.153  0.1600 -0.1195 -0.1302
  911YOPE   C4A13766   6.415   2.708   7.373  0.0493 -0.0332 -0.0362
  911YOPE   C1B13767   5.211   2.474   6.846  0.0584  0.4389 -0.0124
  911YOPE   C2B13768   5.272   2.701   7.252  0.1064  0.2150 -0.0614
  911YOPE   D3B13769   5.068   2.950   7.566  0.1814 -0.0429  0.2815
  911YOPE   C4B13770   4.912   3.137   7.884  0.1367  0.1773 -0.0326
  912YOPE   NH313771   8.491   0.374   5.718  0.1224 -0.1199 -0.3531
  912YOPE   PO413772   8.462   0.806   5.481 -0.1550  0.0646 -0.2574
  912YOPE   GL113773   8.430   1.046   5.821 -0.0399  0.1310 -0.3101
  912YOPE   GL213774   8.628   0.837   6.018  0.0576  0.0184 -0.3849
  912YOPE   C1A13775   8.380   1.506   5.962 -0.1440 -0.0305  0.1622
  912YOPE   D2A13776   8.004   1.826   6.078  0.0945 -0.1574 -0.4662
  912YOPE   C3A13777   7.969   2.000   6.528 -0.1512 -0.0095  0.2415
  912YOPE   C4A13778   8.110   1.973   6.968  0.2998  0.2013 -0.2301
  912YOPE   C1B13779   8.438   0.944   6.350  0.1330  0.2968 -0.0468
  912YOPE   C2B13780   8.424   0.845   6.805  0.2841 -0.1652  0.1163
  912YOPE   D3B13781   8.465   1.053   7.233 -0.3317  0.0554  0.3056
  912YOPE   C4B13782   8.759   1.356   7.351  0.0904 -0.3606 -0.1943
  913YOPE   NH313783  16.246  11.457   5.698 -0.0635 -0.0084 -0.0875
  913YOPE   PO413784  15.930  11.856   5.826 -0.1959  0.2081  0.1968
  913YOPE   GL113785  15.980  11.876   6.236  0.1404 -0.0017  0.0232
  913YOPE   GL213786  15.834  12.072   6.472 -0.0658  0.0130  0.0602
  913YOPE   C1A13787  16.298  11.824   6.574 -0.3767  0.0042 -0.1509
  913YOPE   D2A13788  16.423  11.709   6.995  0.0696 -0.1332 -0.1734
  913YOPE   C3A13789  16.108  11.738   7.243  0.1990  0.2223 -0.3011
  913YOPE   C4A13790  15.920  11.966   7.433  0.0110 -0.1838 -0.0954
  913YOPE   C1B13791  15.905  11.983   6.868 -0.0366 -0.1636  0.1874
  913YOPE   C2B13792  15.592  11.737   7.085 -0.0860  0.3428  0.3339
  913YOPE   D3B13793  15.209  11.716   7.247 -0.0032 -0.0381  0.4421
  913YOPE   C4B13794  14.795  11.931   7.095  0.3170  0.0112  0.1490
  914YOPE   NH313795  15.086   8.543   5.694  0.0522  0.0466  0.2658
  914YOPE   PO413796  15.341   8.914   5.690  0.0201 -0.2915  0.5622
  914YOPE   GL113797  15.134   9.200   6.001 -0.2534 -0.1981  0.2581
  914YOPE   GL213798  15.413   9.367   6.030 -0.1409 -0.2163 -0.0156
  914YOPE   C1A13799  14.879   9.228   6.402 -0.5904 -0.1055 -0.1601
  914YOPE   D2A13800  14.969   9.173   6.777  0.2586  0.2683 -0.0409
  914YOPE   C3A13801  14.877   9.338   7.127  0.2667 -0.0835  0.0121
  914YOPE   C4A13802  14.847   9.537   7.515 -0.2090 -0.3124  0.0484
  914YOPE   C1B13803  15.417   9.066   6.535 -0.0918 -0.2069  0.0635
  914YOPE   C2B13804  15.608   8.935   6.859  0.0443 -0.2385 -0.0012
  914YOPE   D3B13805  15.864   8.962   7.191 -0.1995  0.1206 -0.1696
  914YOPE   C4B13806  15.956   9.107   7.681 -0.1728 -0.1722  0.1088
  915YOPE   NH313807  12.739  18.087   5.536  0.1237 -0.0990  0.1047
  915YOPE   PO413808  12.317  18.079   5.590  0.2663 -0.1889 -0.2014
  915YOPE   GL113809  12.503  18.209   5.991  0.2882  0.0017  0.1049
  915YOPE   GL213810  12.842  18.113   6.185  0.2945  0.3750  0.1214
  915YOPE   C1A13811  12.544  18.490   6.282 -0.1381 -0.3185 -0.0437
  915YOPE   D2A13812  12.846  18.636   6.616  0.0372 -0.1176  0.0915
  915YOPE   C3A13813  12.778  18.758   7.063  0.2489 -0.1870  0.1787
  915YOPE   C4A13814  12.962  19.157   7.344 -0.0975  0.2135  0.0758
  915YOPE   C1B13815  13.019  17.843   6.494  0.2686 -0.1630 -0.1782
  915YOPE   C2B13816  13.089  17.716   6.897 -0.1760 -0.0943  0.1831
  915YOPE   D3B13817  13.004  17.750   7.275  0.0979 -0.2133  0.2427
  915YOPE   C4B13818  12.699  17.847   7.592 -0.3748  0.3341 -0.0118
  916YOPE   NH313819   5.306   0.453   5.904  0.0271  0.1941  0.0728
  916YOPE   PO413820   4.930   0.217   5.976 -0.0613  0.1932  0.3231
  916YOPE   GL113821   4.711   0.415   6.197 -0.0552  0.1480 -0.1001
  916YOPE   GL213822   4.354   0.473   6.268  0.2663 -0.0604  0.2899
  916YOPE   C1A13823   4.862   0.331   6.676 -0.0206  0.1623 -0.0062
  916YOPE   D2A13824   4.949   0.268   7.088  0.2844 -0.1502 -0.0384
  916YOPE   C3A13825   4.566   0.332   7.322  0.0074 -0.0722  0.2347
  916YOPE   C4A13826   4.221   0.627   7.510  0.0361 -0.0551 -0.0574
  916YOPE   C1B13827   4.326   0.423   6.713  0.3983  0.0423  0.4066
  916YOPE   C2B13828   4.091   0.342   7.153 -0.0275 -0.0268 -0.0245
  916YOPE   D3B13829   3.948   0.217   7.504  0.3739  0.0190  0.0132
  916YOPE   C4B13830   3.886  -0.073   7.799  0.3072 -0.1815  0.0185
  917YOPE   NH313831   6.326  10.315   5.865  0.0271 -0.3241 -0.1178
  917YOPE   PO413832   5.920  10.160   5.692 -0.3848 -0.0043  0.2872
  917YOPE   GL113833   5.995  10.001   6.096  0.1455 -0.1895 -0.1673
  917YOPE   GL213834   6.248   9.998   6.230 -0.1380  0.1703  0.1079
  917YOPE   C1A13835   5.815   9.703   6.332 -0.1933  0.2584  0.1568
  917YOPE   D2A13836   5.672   9.637   6.792 -0.0599  0.0355  0.1454
  917YOPE   C3A13837   5.783   9.355   7.114 -0.2975 -0.2114 -0.0503
  917YOPE   C4A13838   6.040   8.979   7.242 -0.0120  0.1446 -0.0742
  917YOPE   C1B13839   6.155   9.885   6.716  0.1567 -0.0551  0.0168
  917YOPE   C2B13840   6.003   9.803   7.110  0.2067  0.0342 -0.0583
  917YOPE   D3B13841   6.111   9.665   7.518  0.1563  0.2529  0.1033
  917YOPE   C4B13842   6.144   9.449   7.688  0.3293  0.2161 -0.0871
  918YOPE   NH313843   4.450  16.390   5.367 -0.1858 -0.0013 -0.3141
  918YOPE   PO413844   4.459  15.903   5.450  0.1261  0.0172 -0.1033
  918YOPE   GL113845   4.448  16.019   5.883  0.0416  0.1901 -0.3463
  918YOPE   GL213846   4.338  15.855   6.098 -0.1250  0.1633 -0.2075
  918YOPE   C1A13847   4.634  16.372   6.287  0.1855 -0.0392 -0.0754
  918YOPE   D2A13848   4.929  16.440   6.565  0.1440 -0.0270  0.0696
  918YOPE   C3A13849   4.863  16.448   7.072  0.1223 -0.0504 -0.2113
  918YOPE   C4A13850   4.922  16.108   7.339  0.1787  0.2189 -0.1878
  918YOPE   C1B13851   4.353  16.007   6.544 -0.0077 -0.1036  0.3394
  918YOPE   C2B13852   4.293  16.216   6.942 -0.2132  0.1090 -0.3722
  918YOPE   D3B13853   4.428  16.368   7.348 -0.3379 -0.3550 -0.3509
  918YOPE   C4B13854   4.731  16.501   7.600  0.3309  0.1204 -0.0361
  919YOPE   NH313855  10.974  16.592   5.756  0.0950  0.1630 -0.1054
  919YOPE   PO413856  11.282  16.886   5.726 -0.1869  0.4781  0.2868
  919YOPE   GL113857  11.645  16.957   6.006  0.1914 -0.1193  0.1466
  919YOPE   GL213858  11.872  16.665   6.074 -0.1606  0.4625 -0.1089
  919YOPE   C1A13859  11.677  17.225   6.304  0.0911 -0.2815 -0.0043
  919YOPE   D2A13860  11.517  17.436   6.662  0.0749  0.1506  0.1700
  919YOPE   C3A13861  11.622  17.239   7.081 -0.0641  0.1426  0.1382
  919YOPE   C4A13862  11.915  17.126   7.404  0.4837 -0.1590  0.3194
  919YOPE   C1B13863  12.011  16.873   6.458 -0.1859  0.2411 -0.0071
  919YOPE   C2B13864  11.964  16.874   6.957 -0.3316  0.0573  0.0322
  919YOPE   D3B13865  11.935  16.639   7.301  0.0925 -0.0612 -0.1008
  919YOPE   C4B13866  11.738  16.654   7.753  0.0819 -0.1669  0.4116
  920YOPE   NH313867   7.099  10.690   5.919 -0.0611  0.2386  0.0861
  920YOPE   PO413868   7.508  10.396   5.847 -0.1231  0.1354 -0.1589
  920YOPE   GL113869   7.756  10.319   6.169  0.2197  0.0333 -0.0779
  920YOPE   GL213870   7.626  10.014   6.248  0.0202  0.1543  0.0232
  920YOPE   C1A13871   8.038  10.644   6.459  0.0483 -0.2146  0.0626
  920YOPE   D2A13872   7.996  10.941   6.688 -0.1430  0.1561  0.1626
  920YOPE   C3A13873   7.522  11.209   6.883 -0.0577  0.0290 -0.2241
  920YOPE   C4A13874   7.160  11.416   7.042 -0.0112 -0.0521  0.0512
  920YOPE   C1B13875   7.689  10.176   6.694 -0.0526  0.0675 -0.1655
  920YOPE   C2B13876   7.523  10.185   7.144 -0.1892 -0.0140  0.1160
  920YOPE   D3B13877   7.202  10.332   7.382 -0.1299 -0.1054  0.1018
  920YOPE   C4B13878   7.054  10.669   7.758  0.1573 -0.1516 -0.1163
  921YOPE   NH313879  14.551  16.952   5.785 -0.3564  0.0989  0.1118
  921YOPE   PO413880  14.221  17.138   5.718 -0.0098  0.1760  0.2523
  921YOPE   GL113881  13.951  17.097   5.956  0.0788  0.2161  0.0446
  921YOPE   GL213882  13.727  17.234   5.995  0.1746  0.2609  0.2027
  921YOPE   C1A13883  13.753  16.965   6.408  0.2487 -0.4197 -0.0818
  921YOPE   D2A13884  13.704  16.722   6.598 -0.0224 -0.1759  0.0998
  921YOPE   C3A13885  13.483  16.656   7.024  0.1051 -0.2542  0.1107
  921YOPE   C4A13886  13.414  16.562   7.456  0.0234 -0.0894  0.0055
  921YOPE   C1B13887  13.823  17.428   6.375  0.3862  0.0449  0.1146
  921YOPE   C2B13888  13.907  17.610   6.757  0.0159 -0.1403 -0.1830
  921YOPE   D3B13889  13.613  17.580   7.044 -0.1331  0.0975  0.0868
  921YOPE   C4B13890  13.504  17.492   7.432  0.0497  0.3957  0.0982
  922YOPE   NH313891  14.003   9.362   5.721  0.2606  0.0483  0.0868
  922YOPE   PO413892  14.281   9.083   5.516 -0.0749  0.3935  0.1880
  922YOPE   GL113893  14.088   8.814   5.783  0.1064  0.1641  0.3116
  922YOPE   GL213894  13.772   8.938   5.867  0.3678  0.2041  0.0531
  922YOPE   C1A13895  13.951   8.540   6.093  0.0297 -0.2372  0.1702
  922YOPE   D2A13896  14.049   8.283   6.400  0.0932 -0.2415 -0.4768
  922YOPE   C3A13897  14.226   8.441   6.715  0.0819 -0.1067  0.3027
  922YOPE   C4A13898  14.200   8.563   7.142 -0.3445 -0.1398  0.2920
  922YOPE   C1B13899  13.722   8.961   6.283 -0.2597 -0.2778  0.1371
  922YOPE   C2B13900  13.445   9.005   6.630  0.2720  0.0078 -0.0726
  922YOPE   D3B13901  13.471   8.970   7.072 -0.2724 -0.1379 -0.1888
  922YOPE   C4B13902  13.124   8.944   7.455 -0.2244  0.0996 -0.0949
  923YOPE   NH313903   1.225   4.738   5.505  0.0266 -0.2416  0.0178
  923YOPE   PO413904   0.902   5.078   5.664 -0.1011  0.1623 -0.1540
  923YOPE   GL113905   0.762   5.046   6.105 -0.0314 -0.0356 -0.0647
  923YOPE   GL213906   0.672   5.427   6.100 -0.1196 -0.2384 -0.0773
  923YOPE   C1A13907   0.859   5.208   6.546 -0.3424  0.0324 -0.1957
  923YOPE   D2A13908   0.916   5.398   7.015  0.1341 -0.0416  0.0744
  923YOPE   C3A13909   1.150   5.200   7.279  0.2093  0.2588 -0.2072
  923YOPE   C4A13910   1.390   5.040   7.391  0.0391  0.2454 -0.1007
  923YOPE   C1B13911   0.707   5.695   6.430  0.0435  0.2011 -0.0802
  923YOPE   C2B13912   0.514   5.847   6.901 -0.1081  0.1871 -0.0869
  923YOPE   D3B13913   0.368   5.729   7.231 -0.2287 -0.2695 -0.1477
  923YOPE   C4B13914   0.284   5.564   7.550 -0.3336 -0.0727 -0.3181
  924YOPE   NH313915   1.707  16.411   5.655  0.2727 -0.1014  0.0111
  924YOPE   PO413916   1.752  15.914   5.617 -0.1162 -0.0683  0.2870
  924YOPE   GL113917   1.759  15.877   5.954 -0.1807  0.0690 -0.1288
  924YOPE   GL213918   1.815  16.195   6.128  0.1926 -0.1004 -0.0394
  924YOPE   C1A13919   1.861  15.529   6.227 -0.3051  0.0055  0.0598
  924YOPE   D2A13920   2.124  15.389   6.521  0.0699 -0.1673 -0.2197
  924YOPE   C3A13921   2.355  15.434   6.867  0.2123  0.0755  0.0533
  924YOPE   C4A13922   2.213  15.473   7.180 -0.2119  0.0012 -0.5530
  924YOPE   C1B13923   1.595  16.002   6.478 -0.1506  0.1105  0.1808
  924YOPE   C2B13924   1.438  15.879   6.886  0.2078 -0.2111  0.1947
  924YOPE   D3B13925   1.344  15.928   7.222 -0.1242  0.2418 -0.4440
  924YOPE   C4B13926   1.436  15.750   7.595 -0.2515  0.1029  0.0153
  925YOPE   NH313927  17.666   8.438   5.653  0.0946 -0.1726 -0.0187
  925YOPE   PO413928  17.778   8.020   5.468  0.0416  0.1177 -0.1061
  925YOPE   GL113929  17.722   7.962   5.964 -0.0363 -0.0836  0.1586
  925YOPE   GL213930  17.920   8.227   6.092  0.0083 -0.0359 -0.1657
  925YOPE   C1A13931  17.730   7.787   6.301  0.0100 -0.1768  0.2058
  925YOPE   D2A13932  18.041   7.478   6.519  0.1256  0.0285  0.0649
  925YOPE   C3A13933  18.004   7.198   6.813 -0.2751 -0.2132  0.0760
  925YOPE   C4A13934  17.872   7.094   7.280 -0.0924 -0.1749 -0.2237
  925YOPE   C1B13935  17.685   8.258   6.450 -0.3423 -0.1015  0.4014
  925YOPE   C2B13936  17.502   8.069   6.830  0.0554 -0.0650 -0.2855
  925YOPE   D3B13937  17.251   8.032   7.171 -0.0893 -0.0492 -0.0591
  925YOPE   C4B13938  17.149   7.891   7.454 -0.1636 -0.3772 -0.0180
  926YOPE   NH313939   5.229   6.902   5.648 -0.0155  0.1973  0.3779
  926YOPE   PO413940   5.657   6.816   5.808 -0.0164  0.0816 -0.1237
  926YOPE   GL113941   5.726   7.179   6.102 -0.1045 -0.2814  0.2063
  926YOPE   GL213942   6.012   7.342   6.144 -0.0443 -0.3732 -0.1192
  926YOPE   C1A13943   5.617   7.292   6.419 -0.0229 -0.5741 -0.3663
  926YOPE   D2A13944   5.325   7.280   6.747 -0.2351 -0.1659  0.0431
  926YOPE   C3A13945   5.357   7.499   7.146 -0.1461  0.0905 -0.3205
  926YOPE   C4A13946   5.155   7.731   7.473 -0.0434  0.1329 -0.0601
  926YOPE   C1B13947   6.069   7.446   6.557 -0.3489 -0.0789  0.1823
  926YOPE   C2B13948   6.230   7.501   6.947 -0.2389 -0.2850 -0.1266
  926YOPE   D3B13949   6.175   7.627   7.360  0.4157  0.0723  0.0869
  926YOPE   C4B13950   6.418   7.680   7.655 -0.0028 -0.2160  0.2142
  927YOPE   NH313951  10.455   0.980   5.228  0.0307  0.0398  0.3377
  927YOPE   PO413952  10.669   1.279   4.984  0.1910  0.1140  0.1590
  927YOPE   GL113953  10.873   1.231   5.378  0.1534 -0.0021 -0.2558
  927YOPE   GL213954  10.834   0.848   5.467  0.0737 -0.0824 -0.1876
  927YOPE   C1A13955  11.097   1.213   5.819  0.0450 -0.1356 -0.1183
  927YOPE   D2A13956  11.243   1.258   6.255  0.0086 -0.2084 -0.0325
  927YOPE   C3A13957  11.377   0.927   6.467  0.1478  0.0676  0.0233
  927YOPE   C4A13958  11.333   0.760   6.877  0.0052 -0.2473  0.0165
  927YOPE   C1B13959  11.001   0.646   5.835 -0.1445  0.2811 -0.3218
  927YOPE   C2B13960  10.969   0.734   6.188 -0.0577  0.0230  0.0430
  927YOPE   D3B13961  10.836   0.460   6.515 -0.0756 -0.0342 -0.2061
  927YOPE   C4B13962  10.882   0.509   7.001 -0.0012  0.1396 -0.2178
  928YOPE   NH313963  17.236  15.892   6.023  0.0165  0.1713 -0.2546
  928YOPE   PO413964  17.506  15.618   5.889 -0.0355 -0.0546 -0.0040
  928YOPE   GL113965  17.562  15.219   6.109 -0.0183  0.3402  0.0625
  928YOPE   GL213966  17.498  14.935   6.044 -0.2992 -0.0246  0.1967
  928YOPE   C1A13967  18.014  15.206   6.324 -0.0829 -0.0463  0.1139
  928YOPE   D2A13968  18.361  15.103   6.570  0.0128  0.1207 -0.0391
  928YOPE   C3A13969  18.429  14.806   6.832 -0.2605  0.2291  0.1927
  928YOPE   C4A13970  18.232  14.333   6.764  0.2754 -0.2328 -0.0060
  928YOPE   C1B13971  17.502  14.902   6.544  0.0848  0.1332  0.4219
  928YOPE   C2B13972  17.487  14.843   6.933 -0.1055  0.0252  0.1458
  928YOPE   D3B13973  17.551  14.588   7.241  0.0134 -0.0429 -0.4713
  928YOPE   C4B13974  17.480  14.453   7.669 -0.1883  0.1226 -0.0215
  929YOPE   NH313975  16.785  17.023   5.973  0.0920  0.1125  0.1493
  929YOPE   PO413976  16.817  16.620   5.928 -0.2550 -0.3046 -0.1143
  929YOPE   GL113977  16.960  16.391   6.306  0.0278 -0.0172 -0.1828
  929YOPE   GL213978  16.914  16.126   6.296  0.2899 -0.0598  0.0653
  929YOPE   C1A13979  17.181  16.416   6.696 -0.2344 -0.2219  0.4594
  929YOPE   D2A13980  17.375  16.631   7.049 -0.2112 -0.0512 -0.0175
  929YOPE   C3A13981  17.244  16.574   7.444  0.0550 -0.1917  0.2278
  929YOPE   C4A13982  17.050  16.195   7.664 -0.2022  0.2326 -0.0590
  929YOPE   C1B13983  16.974  15.909   6.719 -0.0306  0.3953 -0.2016
  929YOPE   C2B13984  17.088  15.935   7.092  0.0653 -0.1098  0.1722
  929YOPE   D3B13985  17.293  15.761   7.439  0.1356 -0.0254  0.3895
  929YOPE   C4B13986  17.668  15.551   7.547  0.0428 -0.0751 -0.0454
  930YOPE   NH313987  15.621  12.215   6.037  0.3462  0.2808  0.2585
  930YOPE   PO413988  15.953  12.351   5.787  0.0202  0.3139 -0.3960
  930YOPE   GL113989  16.110  12.393   6.153 -0.0940  0.0365  0.1222
  930YOPE   GL213990  15.887  12.595   6.378  0.1165 -0.0008  0.2779
  930YOPE   C1A13991  16.291  12.335   6.438 -0.2936 -0.0829  0.1658
  930YOPE   D2A13992  16.495  12.210   6.791 -0.3260  0.2764 -0.2440
  930YOPE   C3A13993  16.385  12.209   7.247  0.1038 -0.1385 -0.0617
  930YOPE   C4A13994  16.457  12.409   7.648 -0.0670 -0.2003  0.0164
  930YOPE   C1B13995  15.913  12.524   6.747  0.1905  0.0341 -0.0356
  930YOPE   C2B13996  15.983  12.447   7.112  0.1945  0.2997 -0.2195
  930YOPE   D3B13997  15.885  12.514   7.606  0.0078  0.1658  0.2610
  930YOPE   C4B13998  15.842  12.201   7.930 -0.0790  0.3503 -0.2446
  931YOPE   NH313999  12.967  14.384   5.734  0.0854  0.0545  0.1081
  931YOPE   PO414000  13.056  13.958   5.999 -0.1283 -0.2394  0.0652
  931YOPE   GL114001  13.158  14.020   6.391 -0.2702  0.0592 -0.1220
  931YOPE   GL214002  12.852  14.075   6.531  0.0085 -0.1452  0.1681
  931YOPE   C1A14003  13.242  14.075   6.847  0.0894  0.2538 -0.1758
  931YOPE   D2A14004  13.319  14.024   7.269  0.1105 -0.1202 -0.1566
  931YOPE   C3A14005  13.720  13.811   7.389 -0.1147 -0.1008 -0.2278
  931YOPE   C4A14006  14.068  13.841   7.743  0.3038  0.1569 -0.1556
  931YOPE   C1B14007  12.711  13.995   6.822 -0.4316 -0.5684 -0.0187
  931YOPE   C2B14008  12.632  13.945   7.296  0.1825 -0.1778  0.1040
  931YOPE   D3B14009  12.555  13.947   7.773  0.0406  0.0620  0.0656
  931YOPE   C4B14010  12.361  13.807   8.206 -0.2092 -0.0543 -0.0103
  932YOPE   NH314011   8.544  11.674   5.946  0.3103  0.0075 -0.1526
  932YOPE   PO414012   8.858  11.256   5.848 -0.1194 -0.0301 -0.1073
  932YOPE   GL114013   8.571  11.029   6.154 -0.0306  0.0983 -0.1857
  932YOPE   GL214014   8.291  11.277   6.272  0.0933 -0.0996  0.0901
  932YOPE   C1A14015   8.489  10.853   6.578  0.0801 -0.3195 -0.0630
  932YOPE   D2A14016   8.468  10.669   6.918  0.0090  0.0602  0.2971
  932YOPE   C3A14017   8.214  10.909   7.152  0.0323 -0.2073 -0.1341
  932YOPE   C4A14018   8.194  10.968   7.597  0.1375  0.0179 -0.2099
  932YOPE   C1B14019   8.391  11.331   6.699 -0.2596  0.0913  0.2592
  932YOPE   C2B14020   8.419  11.396   7.174  0.0237 -0.2900 -0.1410
  932YOPE   D3B14021   8.513  11.332   7.654  0.1660 -0.1027  0.1044
  932YOPE   C4B14022   8.449  11.230   8.105 -0.2669  0.0182 -0.0319
  933YOPE   NH314023  15.557   0.301   5.849  0.0561 -0.2757 -0.2212
  933YOPE   PO414024  15.962   0.009   5.884  0.2937  0.0884  0.0074
  933YOPE   GL114025  15.786   0.017   6.274  0.0145 -0.3480 -0.0725
  933YOPE   GL214026  15.534   0.233   6.338  0.1650 -0.1064  0.0575
  933YOPE   C1A14027  15.937  -0.114   6.696 -0.2261  0.1731  0.2855
  933YOPE   D2A14028  15.904  -0.375   7.058  0.0695 -0.0878  0.2265
  933YOPE   C3A14029  15.933  -0.447   7.488 -0.0297  0.0048  0.0435
  933YOPE   C4A14030  15.716  -0.305   7.883 -0.3311 -0.3097 -0.2004
  933YOPE   C1B14031  15.502   0.052   6.691  0.1087  0.1750 -0.2646
  933YOPE   C2B14032  15.628   0.029   7.145  0.3662  0.2346  0.0946
  933YOPE   D3B14033  15.798  -0.012   7.521  0.1605 -0.0721 -0.0394
  933YOPE   C4B14034  15.764   0.288   7.903  0.2331  0.0149  0.0726
  934YOPE   NH314035  10.802   8.052   5.185 -0.2339 -0.3863 -0.0144
  934YOPE   PO414036  11.102   8.275   5.379  0.0891 -0.1595  0.4137
  934YOPE   GL114037  11.029   8.338   5.895 -0.0056 -0.1783 -0.3139
  934YOPE   GL214038  11.377   8.079   5.901 -0.2516 -0.0697  0.2638
  934YOPE   C1A14039  11.017   8.352   6.369  0.0166 -0.0212  0.2669
  934YOPE   D2A14040  10.905   8.570   6.690 -0.2838 -0.0676 -0.1291
  934YOPE   C3A14041  10.666   8.916   6.610 -0.0782 -0.0498 -0.3130
  934YOPE   C4A14042  10.534   9.323   6.707  0.3797 -0.3864  0.0375
  934YOPE   C1B14043  11.326   7.988   6.311 -0.0621  0.0925 -0.0061
  934YOPE   C2B14044  11.203   7.999   6.715  0.2445 -0.0427  0.2220
  934YOPE   D3B14045  11.028   7.976   7.104  0.0872 -0.0235 -0.0531
  934YOPE   C4B14046  10.811   8.225   7.528 -0.0576  0.2298 -0.0510
  935YOPE   NH314047  14.111   0.466   5.740 -0.0950 -0.0475  0.1765
  935YOPE   PO414048  13.875   0.815   5.628  0.2810 -0.0080  0.1337
  935YOPE   GL114049  13.884   0.969   6.109  0.0116 -0.3204 -0.1894
  935YOPE   GL214050  13.561   1.281   6.120 -0.0655  0.0874  0.0354
  935YOPE   C1A14051  13.916   1.184   6.559 -0.2553  0.1975 -0.0636
  935YOPE   D2A14052  13.634   1.205   6.942  0.0036 -0.1892  0.1800
  935YOPE   C3A14053  13.225   1.041   6.734 -0.4123 -0.1689  0.1767
  935YOPE   C4A14054  12.928   1.023   6.396  0.1990 -0.3494  0.0098
  935YOPE   C1B14055  13.319   1.364   6.405 -0.0209  0.0436 -0.0884
  935YOPE   C2B14056  12.903   1.438   6.700  0.3447  0.1087 -0.1918
  935YOPE   D3B14057  12.579   1.469   6.974 -0.1369  0.0113  0.1039
  935YOPE   C4B14058  12.259   1.708   7.162 -0.2760 -0.0577 -0.2276
  936YOPE   NH314059  11.369   6.510   5.452  0.2334  0.0825  0.2362
  936YOPE   PO414060  11.633   6.386   5.670  0.0624 -0.1500 -0.2714
  936YOPE   GL114061  11.384   6.314   6.058  0.1299  0.2096  0.0987
  936YOPE   GL214062  11.412   6.657   6.105 -0.1350 -0.1875 -0.0468
  936YOPE   C1A14063  11.387   6.157   6.522  0.1280  0.0144  0.0536
  936YOPE   D2A14064  11.611   6.193   6.964 -0.1492  0.2240 -0.2869
  936YOPE   C3A14065  11.472   5.985   7.380  0.1270 -0.3649  0.0524
  936YOPE   C4A14066  11.363   5.936   7.770 -0.0373  0.1793 -0.4105
  936YOPE   C1B14067  11.247   6.647   6.564  0.0531  0.1779  0.2983
  936YOPE   C2B14068  11.118   6.375   6.863 -0.2198 -0.0575 -0.1988
  936YOPE   D3B14069  11.104   6.308   7.261 -0.0850 -0.0168 -0.1225
  936YOPE   C4B14070  11.022   6.298   7.721 -0.0439  0.0071 -0.0237
  937YOPE   NH314071   8.240  14.186   5.758 -0.0573  0.1096  0.1527
  937YOPE   PO414072   8.648  14.272   5.551 -0.1872 -0.0865 -0.0283
  937YOPE   GL114073   8.778  14.462   5.992 -0.0981  0.2284 -0.3547
  937YOPE   GL214074   8.851  14.757   6.079  0.0744  0.3802  0.1761
  937YOPE   C1A14075   8.650  14.297   6.346  0.0995  0.1201 -0.0948
  937YOPE   D2A14076   8.381  14.006   6.657  0.4794  0.0760 -0.2440
  937YOPE   C3A14077   8.388  13.985   7.070  0.0165  0.0808 -0.1246
  937YOPE   C4A14078   8.327  13.763   7.542  0.0664 -0.3646  0.0132
  937YOPE   C1B14079   8.589  14.818   6.335  0.2397 -0.0911  0.1835
  937YOPE   C2B14080   8.598  14.888   6.797 -0.0136  0.0579 -0.1177
  937YOPE   D3B14081   8.493  14.772   7.181 -0.2033  0.0629  0.2128
  937YOPE   C4B14082   8.350  14.854   7.618  0.0017 -0.0582  0.1595
  938YOPE   NH314083   3.845   7.691   5.780  0.1141 -0.2211  0.0596
  938YOPE   PO414084   3.975   7.272   5.596  0.2010  0.1310 -0.0831
  938YOPE   GL114085   3.966   7.126   6.070  0.1680 -0.1912 -0.2474
  938YOPE   GL214086   3.792   7.392   6.265  0.0312 -0.1704  0.4062
  938YOPE   C1A14087   4.079   6.987   6.507 -0.2703  0.2681 -0.0309
  938YOPE   D2A14088   4.118   6.852   6.985  0.0310 -0.2324  0.0495
  938YOPE   C3A14089   4.427   6.975   7.265 -0.0521  0.0645  0.0993
  938YOPE   C4A14090   4.578   6.982   7.670 -0.0635  0.3323 -0.0899
  938YOPE   C1B14091   3.667   7.606   6.510 -0.0107 -0.0944  0.2056
  938YOPE   C2B14092   3.482   7.619   6.937  0.0465 -0.1612  0.0935
  938YOPE   D3B14093   3.592   7.464   7.372  0.0928 -0.0396  0.1929
  938YOPE   C4B14094   3.601   7.536   7.803 -0.1694 -0.0785  0.1603
  939YOPE   NH314095   7.281   5.074   5.858 -0.1514 -0.2900  0.0546
  939YOPE   PO414096   7.616   5.129   5.670 -0.1099  0.1230  0.0842
  939YOPE   GL114097   7.749   5.210   6.066  0.0254  0.3495 -0.1237
  939YOPE   GL214098   7.692   5.011   6.249 -0.4473 -0.0980 -0.0286
  939YOPE   C1A14099   7.553   5.482   6.379  0.0975  0.0471 -0.0327
  939YOPE   D2A14100   7.328   5.601   6.686 -0.2678 -0.1399  0.0095
  939YOPE   C3A14101   7.356   5.656   7.125 -0.2369 -0.1769  0.1404
  939YOPE   C4A14102   7.231   5.908   7.605 -0.0493 -0.2167  0.2694
  939YOPE   C1B14103   7.618   5.003   6.627 -0.1354 -0.3308 -0.1769
  939YOPE   C2B14104   7.429   5.194   6.946  0.1676 -0.3563  0.3438
  939YOPE   D3B14105   6.961   5.214   7.128 -0.0585  0.0069  0.0096
  939YOPE   C4B14106   6.602   5.012   7.348 -0.2335  0.2517 -0.0313
  940YOPE   NH314107   9.212   3.485   5.495 -0.1049  0.4077 -0.4408
  940YOPE   PO414108   8.778   3.528   5.338 -0.1314  0.0375 -0.1617
  940YOPE   GL114109   8.774   3.374   5.745  0.0732  0.0270 -0.0541
  940YOPE   GL214110   9.012   3.599   5.968  0.1274  0.0419  0.0026
  940YOPE   C1A14111   8.647   3.260   6.089 -0.2857  0.1536 -0.1078
  940YOPE   D2A14112   8.270   3.047   6.386  0.0145 -0.1203 -0.0754
  940YOPE   C3A14113   7.937   3.304   6.666 -0.1944  0.1819  0.0994
  940YOPE   C4A14114   7.900   3.664   7.048  0.2735 -0.2420 -0.2754
  940YOPE   C1B14115   8.860   3.665   6.360  0.2300 -0.1526  0.0662
  940YOPE   C2B14116   8.646   3.293   6.559  0.2738  0.1403 -0.1858
  940YOPE   D3B14117   8.795   3.275   7.042  0.0529 -0.0083 -0.1041
  940YOPE   C4B14118   8.760   3.320   7.526 -0.0219 -0.0968  0.2824
  941YOPE   NH314119   0.789   0.196   5.811 -0.2671  0.2872 -0.0885
  941YOPE   PO414120   0.600  -0.234   5.929 -0.1446  0.1165  0.1662
  941YOPE   GL114121   0.703   0.055   6.296 -0.1838  0.0476 -0.0148
  941YOPE   GL214122   0.428   0.257   6.275 -0.0996 -0.0091 -0.2277
  941YOPE   C1A14123   0.752   0.330   6.641  0.1542  0.0971 -0.2272
  941YOPE   D2A14124   0.401   0.545   6.837 -0.0915 -0.1171  0.2334
  941YOPE   C3A14125   0.284   0.463   7.218  0.2939 -0.0396  0.0361
  941YOPE   C4A14126   0.187   0.374   7.618 -0.2146  0.0949 -0.0926
  941YOPE   C1B14127   0.164   0.161   6.571  0.1264 -0.1759  0.2311
  941YOPE   C2B14128  -0.037   0.213   6.877  0.0117  0.1886 -0.0810
  941YOPE   D3B14129  -0.021  -0.003   7.304  0.1024 -0.0785 -0.0225
  941YOPE   C4B14130  -0.377  -0.105   7.463 -0.1986  0.0691 -0.0745
  942YOPE   NH314131   4.197  10.655   5.785  0.0637 -0.0276 -0.3028
  942YOPE   PO414132   3.759  10.682   5.984  0.0221 -0.3057  0.4563
  942YOPE   GL114133   3.565  10.605   6.343  0.3560  0.4113  0.2402
  942YOPE   GL214134   3.213  10.613   6.409 -0.2372  0.0953 -0.0667
  942YOPE   C1A14135   3.551  10.662   6.797  0.1438 -0.0080 -0.0989
  942YOPE   D2A14136   3.460  10.689   7.195  0.2147 -0.0646 -0.0179
  942YOPE   C3A14137   3.730  10.622   7.499 -0.0547  0.1757 -0.0837
  942YOPE   C4A14138   3.792  10.349   7.805  0.0933 -0.0171 -0.4301
  942YOPE   C1B14139   3.061  10.642   6.857 -0.0454  0.1466 -0.1512
  942YOPE   C2B14140   2.890  10.592   7.188  0.2014 -0.1351  0.0452
  942YOPE   D3B14141   2.614  10.624   7.580 -0.4315  0.1001 -0.1098
  942YOPE   C4B14142   2.218  10.755   7.704  0.0898 -0.0514  0.0031
  943YOPE   NH314143   9.159   6.689   5.552  0.0984 -0.1667  0.0421
  943YOPE   PO414144   8.971   6.231   5.506  0.0294  0.0710  0.0664
  943YOPE   GL114145   9.049   6.339   5.977 -0.3064 -0.0198 -0.0428
  943YOPE   GL214146   9.287   6.550   6.025 -0.1095 -0.0373 -0.1018
  943YOPE   C1A14147   9.237   6.224   6.386  0.0075 -0.1433  0.2649
  943YOPE   D2A14148   9.107   6.382   6.780 -0.2566  0.2370  0.0284
  943YOPE   C3A14149   9.079   6.122   7.035 -0.1234  0.0417 -0.0096
  943YOPE   C4A14150   9.100   6.146   7.417 -0.0759  0.0259  0.3472
  943YOPE   C1B14151   9.386   6.854   6.216  0.0030  0.0995 -0.2093
  943YOPE   C2B14152   9.369   6.973   6.612 -0.0739 -0.0518 -0.3462
  943YOPE   D3B14153   9.456   6.679   6.990 -0.0496  0.0475 -0.0171
  943YOPE   C4B14154   9.605   6.459   7.265 -0.0314  0.0438  0.0345
  944POPC   NC314155   4.318   9.021   5.546 -0.0716  0.0298 -0.3867
  944POPC   PO414156   4.671   9.259   5.566 -0.0742  0.1233  0.1889
  944POPC   GL114157   4.577   9.343   6.012  0.1907 -0.1388  0.1298
  944POPC   GL214158   4.837   9.588   6.186  0.0106  0.2130  0.1474
  944POPC   C1A14159   4.282   9.221   6.365  0.0233 -0.1544 -0.1650
  944POPC   D2A14160   4.289   8.829   6.520 -0.0129  0.2404  0.0681
  944POPC   C3A14161   4.027   8.608   6.692 -0.4965  0.0823  0.1951
  944POPC   C4A14162   3.843   8.781   7.088 -0.1111  0.2580 -0.1783
  944POPC   C1B14163   4.761   9.440   6.550  0.0946 -0.0004 -0.1878
  944POPC   C2B14164   4.644   9.418   6.956 -0.0334 -0.1339  0.2579
  944POPC   C3B14165   4.395   9.447   7.350  0.2845 -0.0070 -0.1986
  944POPC   C4B14166   4.192   9.907   7.419  0.5568  0.1262  0.0638
  945POPC   NC314167   2.915   0.254   5.800 -0.2001 -0.0082 -0.1691
  945POPC   PO414168   2.505   0.343   6.001  0.0877 -0.2098  0.0008
  945POPC   GL114169   2.212   0.229   6.365  0.2599 -0.0391 -0.0508
  945POPC   GL214170   2.063  -0.137   6.411 -0.1912  0.1605 -0.2461
  945POPC   C1A14171   2.237   0.460   6.619 -0.0695  0.0561  0.0633
  945POPC   D2A14172   2.374   0.727   7.004 -0.1229  0.3272 -0.1582
  945POPC   C3A14173   2.196   0.947   7.443 -0.1235  0.1497 -0.1562
  945POPC   C4A14174   2.373   1.245   7.711 -0.1077  0.2561  0.1126
  945POPC   C1B14175   2.210  -0.044   6.802 -0.0260 -0.0857 -0.0407
  945POPC   C2B14176   2.308   0.249   7.116  0.0216 -0.1401  0.1279
  945POPC   C3B14177   2.201   0.478   7.383  0.4796 -0.0740  0.1230
  945POPC   C4B14178   2.041   0.632   7.764 -0.0751  0.0684  0.0045
  946POPC   NC314179  10.090  14.390   5.839  0.0638 -0.0737 -0.0793
  946POPC   PO414180   9.951  14.844   5.757  0.0955  0.0516 -0.0200
  946POPC   GL114181  10.216  14.747   6.169 -0.1235  0.0473  0.1586
  946POPC   GL214182  10.218  14.981   6.347 -0.0855  0.1960 -0.1048
  946POPC   C1A14183  10.287  14.436   6.446 -0.2343  0.0160  0.0336
  946POPC   D2A14184  10.452  14.329   6.863 -0.0318  0.0290 -0.0884
  946POPC   C3A14185  10.183  14.217   7.141  0.2497  0.0022 -0.3811
  946POPC   C4A14186  10.134  13.895   7.383 -0.1828 -0.1073 -0.1882
  946POPC   C1B14187  10.321  14.915   6.800  0.2689  0.1407 -0.3425
  946POPC   C2B14188  10.219  14.689   7.161 -0.1340  0.2303  0.0977
  946POPC   C3B14189   9.995  14.519   7.564 -0.1029 -0.0602 -0.0457
  946POPC   C4B14190   9.714  14.808   7.858  0.0837  0.0000 -0.0788
  947POPC   NC314191   0.154   8.584   5.781 -0.3022 -0.1615 -0.1033
  947POPC   PO414192   0.544   8.463   5.924 -0.1721 -0.0338 -0.2180
  947POPC   GL114193   0.738   8.397   6.397  0.1465 -0.0984 -0.0349
  947POPC   GL214194   1.013   8.197   6.380  0.2157 -0.0322  0.1837
  947POPC   C1A14195   0.574   8.396   6.843  0.2735 -0.2151 -0.0119
  947POPC   D2A14196   0.478   8.350   7.220  0.0560  0.0484  0.1225
  947POPC   C3A14197   0.225   8.341   7.588  0.3261  0.0979  0.0110
  947POPC   C4A14198  -0.104   8.088   7.720 -0.0798 -0.0544  0.2107
  947POPC   C1B14199   1.089   8.037   6.835  0.0800  0.1023 -0.0668
  947POPC   C2B14200   0.792   7.955   7.111 -0.2146  0.0353  0.0297
  947POPC   C3B14201   0.566   7.924   7.496  0.1769 -0.1155 -0.0914
  947POPC   C4B14202   0.347   7.913   7.871  0.1337 -0.0895 -0.1567
  948POPC   NC314203   8.627   2.174   5.339  0.0084  0.2705 -0.0398
  948POPC   PO414204   8.378   2.238   5.683 -0.2771  0.0492  0.1647
  948POPC   GL114205   8.429   2.113   6.086 -0.0240  0.0900 -0.0944
  948POPC   GL214206   8.682   2.335   6.112 -0.2246  0.0556 -0.2209
  948POPC   C1A14207   8.707   1.810   6.191 -0.1827  0.0146 -0.0385
  948POPC   D2A14208   8.689   1.360   6.354  0.0568  0.0701  0.1363
  948POPC   C3A14209   8.571   1.350   6.767  0.1913 -0.0074 -0.0348
  948POPC   C4A14210   8.226   1.544   6.990  0.2941 -0.0238  0.1229
  948POPC   C1B14211   8.843   2.294   6.532 -0.2228  0.1771  0.0945
  948POPC   C2B14212   8.879   2.255   6.922  0.2529 -0.4995  0.0609
  948POPC   C3B14213   8.754   2.339   7.319  0.0139 -0.0022 -0.0325
  948POPC   C4B14214   8.890   2.561   7.697  0.0606 -0.1237 -0.3677
  949POPC   NC314215  12.938  10.275   4.624 -0.0871  0.3491  0.1503
  949POPC   PO414216  12.609  10.358   4.878  0.0978 -0.2412 -0.1479
  949POPC   GL114217  12.503  10.385   5.346  0.2701  0.0507 -0.2396
  949POPC   GL214218  12.168  10.416   5.513 -0.0181  0.3099 -0.0847
  949POPC   C1A14219  12.558  10.653   5.676 -0.0358 -0.2925  0.0634
  949POPC   D2A14220  12.390  10.768   6.100  0.0705  0.0514 -0.1770
  949POPC   C3A14221  12.509  10.495   6.484 -0.0167 -0.0862  0.4738
  949POPC   C4A14222  12.723  10.160   6.684  0.3298 -0.0107  0.2428
  949POPC   C1B14223  11.920  10.506   5.857 -0.3435 -0.0766  0.0930
  949POPC   C2B14224  11.558  10.227   6.113 -0.0294  0.0318 -0.0266
  949POPC   C3B14225  11.248   9.925   5.948 -0.1826 -0.0497  0.0218
  949POPC   C4B14226  10.961   9.629   5.957  0.0714 -0.0974 -0.1029
  950POPC   NC314227   6.776  15.013   5.382  0.3060  0.0563  0.1389
  950POPC   PO414228   7.084  15.267   5.496 -0.1866  0.0756  0.4105
  950POPC   GL114229   7.124  14.982   5.905 -0.1563 -0.4354  0.4175
  950POPC   GL214230   6.976  14.679   5.925  0.0472  0.1791  0.1498
  950POPC   C1A14231   7.295  14.942   6.192  0.4184 -0.1694  0.3953
  950POPC   D2A14232   7.307  14.666   6.488  0.2701  0.1718  0.0940
  950POPC   C3A14233   7.092  14.335   6.459  0.0039 -0.1071  0.0509
  950POPC   C4A14234   6.935  13.966   6.584 -0.1578 -0.0440 -0.0687
  950POPC   C1B14235   6.705  14.718   6.264 -0.0648 -0.2644  0.1038
  950POPC   C2B14236   6.807  14.742   6.657  0.2984  0.3655  0.2942
  950POPC   C3B14237   6.941  14.739   7.063  0.0606  0.3234 -0.0044
  950POPC   C4B14238   6.980  14.372   7.414 -0.1725  0.2859 -0.5412
  951POPC   NC314239  16.177   5.312   5.778 -0.3025  0.0880  0.1046
  951POPC   PO414240  15.936   5.669   5.704 -0.0637  0.1382 -0.1715
  951POPC   GL114241  15.849   5.623   6.067  0.2007  0.1401 -0.1491
  951POPC   GL214242  15.937   5.849   6.275 -0.3243  0.0285  0.1045
  951POPC   C1A14243  15.576   5.516   6.415 -0.1280  0.0321 -0.0788
  951POPC   D2A14244  15.272   5.498   6.745 -0.3173 -0.2291 -0.1090
  951POPC   C3A14245  15.286   5.655   7.172  0.2725 -0.3274  0.0673
  951POPC   C4A14246  15.200   5.669   7.597  0.2175  0.0050  0.2135
  951POPC   C1B14247  16.083   6.142   6.573  0.1031 -0.1119 -0.1698
  951POPC   C2B14248  16.077   6.101   6.931 -0.1695 -0.0375  0.0034
  951POPC   C3B14249  16.040   6.316   7.365  0.0888  0.0137  0.2278
  951POPC   C4B14250  15.972   6.354   7.795  0.2162 -0.1017  0.0143
  952POPC   NC314251   5.516  18.023   5.892 -0.1359 -0.1973 -0.1548
  952POPC   PO414252   5.092  18.100   5.785  0.3012  0.0908 -0.3190
  952POPC   GL114253   5.166  18.174   6.261 -0.2998  0.1572 -0.1456
  952POPC   GL214254   4.936  18.440   6.369 -0.0778  0.0113  0.6809
  952POPC   C1A14255   5.299  17.975   6.666 -0.0303 -0.0351  0.0799
  952POPC   D2A14256   5.457  17.876   7.061  0.0039 -0.1506  0.1318
  952POPC   C3A14257   5.213  17.808   7.394  0.0744  0.0576 -0.2114
  952POPC   C4A14258   4.876  17.692   7.640  0.1638  0.0358 -0.1223
  952POPC   C1B14259   5.044  18.414   6.786 -0.1735 -0.1595 -0.0907
  952POPC   C2B14260   5.219  18.302   7.152  0.3858  0.2595 -0.0033
  952POPC   C3B14261   5.244  18.504   7.563 -0.1094 -0.3039 -0.1856
  952POPC   C4B14262   5.475  18.472   7.955 -0.0237 -0.0420 -0.0767
  953POPC   NC314263  15.082   2.487   5.655  0.1124 -0.0458 -0.3328
  953POPC   PO414264  14.825   2.833   5.770  0.3819 -0.1301 -0.3177
  953POPC   GL114265  15.240   2.902   6.036 -0.0289  0.1587  0.1002
  953POPC   GL214266  15.294   2.534   6.110  0.1831  0.0429 -0.2820
  953POPC   C1A14267  15.231   2.849   6.459  0.2243 -0.0386 -0.0169
  953POPC   D2A14268  15.160   2.523   6.881 -0.0276  0.0152  0.3439
  953POPC   C3A14269  14.777   2.324   6.855  0.3147 -0.1782  0.1062
  953POPC   C4A14270  14.696   1.792   6.725  0.0153 -0.2683 -0.2971
  953POPC   C1B14271  15.388   2.103   6.031  0.0146 -0.1312 -0.1186
  953POPC   C2B14272  15.323   1.753   6.431 -0.1203 -0.2197  0.2318
  953POPC   C3B14273  15.165   1.938   6.891 -0.1772  0.1529  0.4572
  953POPC   C4B14274  15.236   2.166   7.227 -0.0009  0.1279  0.2563
  954POPC   NC314275   1.798   9.227   5.793 -0.3624 -0.1337 -0.2644
  954POPC   PO414276   2.227   9.114   5.904 -0.0904  0.3999 -0.1039
  954POPC   GL114277   2.076   9.170   6.262 -0.0766  0.2259 -0.1582
  954POPC   GL214278   1.922   9.466   6.225  0.1336 -0.1214 -0.3203
  954POPC   C1A14279   2.007   9.178   6.677 -0.1460 -0.2674 -0.1636
  954POPC   D2A14280   1.882   9.287   7.052  0.2613  0.0673  0.1785
  954POPC   C3A14281   1.980   9.220   7.324  0.1010 -0.1239  0.1497
  954POPC   C4A14282   2.068   8.931   7.771  0.0844  0.0913 -0.1194
  954POPC   C1B14283   1.635   9.592   6.513 -0.1708  0.2108  0.0265
  954POPC   C2B14284   1.568   9.726   6.959  0.2602  0.1871 -0.1085
  954POPC   C3B14285   1.580   9.535   7.367 -0.0488 -0.2440 -0.1554
  954POPC   C4B14286   1.632   9.257   7.726 -0.3101  0.0941  0.0069
  955POPC   NC314287   3.643   6.248   5.594  0.0477 -0.0313  0.2229
  955POPC   PO414288   3.386   6.597   5.615 -0.2143  0.0485 -0.1048
  955POPC   GL114289   3.478   6.841   5.932  0.2895 -0.3230  0.0118
  955POPC   GL214290   3.160   6.950   6.063 -0.3020 -0.1356 -0.0862
  955POPC   C1A14291   3.593   6.910   6.311 -0.1077  0.1727 -0.0393
  955POPC   D2A14292   3.629   6.924   6.775  0.5361 -0.0607  0.1326
  955POPC   C3A14293   3.723   7.028   7.222  0.3379  0.1417  0.1650
  955POPC   C4A14294   3.654   6.642   7.537 -0.0488 -0.0774 -0.0102
  955POPC   C1B14295   3.297   7.240   6.449 -0.2075 -0.0118  0.1125
  955POPC   C2B14296   3.209   7.177   6.913  0.1463  0.4200  0.1807
  955POPC   C3B14297   3.100   7.224   7.344 -0.0184 -0.0487  0.0979
  955POPC   C4B14298   3.264   7.140   7.690  0.0077 -0.0820  0.0788
  956POPC   NC314299  11.378   3.190   4.823 -0.1203 -0.0120  0.3106
  956POPC   PO414300  11.779   3.264   5.099  0.1186 -0.0184 -0.0755
  956POPC   GL114301  11.368   3.092   5.378  0.0366 -0.0335 -0.1316
  956POPC   GL214302  11.520   2.907   5.566 -0.1333 -0.1364  0.1499
  956POPC   C1A14303  11.227   3.352   5.681 -0.1484  0.3146 -0.3602
  956POPC   D2A14304  11.255   3.273   6.093  0.1616  0.0962  0.2159
  956POPC   C3A14305  11.258   3.218   6.605 -0.1703  0.0055  0.0592
  956POPC   C4A14306  11.172   3.250   7.089  0.2411  0.0697  0.0626
  956POPC   C1B14307  11.492   2.749   5.986 -0.2569  0.2591 -0.0218
  956POPC   C2B14308  11.341   2.802   6.354 -0.0939  0.2289  0.3736
  956POPC   C3B14309  11.533   2.847   6.783  0.1836  0.1016  0.1898
  956POPC   C4B14310  11.847   2.836   7.101 -0.0401  0.1063  0.2886
  957POPC   NC314311  16.551  12.581   5.825 -0.1036  0.0741  0.1993
  957POPC   PO414312  16.695  12.936   5.874  0.1020  0.0645 -0.0909
  957POPC   GL114313  16.694  12.653   6.298  0.0035  0.2130  0.0998
  957POPC   GL214314  16.887  12.369   6.177 -0.0941  0.1831  0.1576
  957POPC   C1A14315  16.877  12.497   6.667  0.2016 -0.2577 -0.0133
  957POPC   D2A14316  17.042  12.272   7.046 -0.0016 -0.0194  0.1562
  957POPC   C3A14317  16.874  12.174   7.444  0.1214 -0.0972  0.1004
  957POPC   C4A14318  16.780  11.976   7.807  0.0434  0.0700 -0.4351
  957POPC   C1B14319  17.269  12.243   6.409 -0.2413 -0.0531 -0.1317
  957POPC   C2B14320  17.434  12.410   6.662  0.0095 -0.1884 -0.1656
  957POPC   C3B14321  17.485  12.507   7.131 -0.1738 -0.2248 -0.3317
  957POPC   C4B14322  17.357  12.351   7.415  0.1446 -0.1830 -0.3498
  958POPC   NC314323  14.483   6.788   5.414 -0.2209 -0.0118 -0.1119
  958POPC   PO414324  14.605   6.943   5.815  0.1574 -0.0188  0.0900
  958POPC   GL114325  14.491   6.975   6.195 -0.0466  0.1655 -0.0028
  958POPC   GL214326  14.142   6.965   6.279  0.2100  0.3497  0.3312
  958POPC   C1A14327  14.699   6.756   6.463 -0.0741  0.2215 -0.0785
  958POPC   D2A14328  14.716   6.840   6.892  0.1968  0.0522  0.2514
  958POPC   C3A14329  14.373   6.795   7.184  0.0437  0.0365  0.1017
  958POPC   C4A14330  14.017   6.659   7.513 -0.2254 -0.0404 -0.2366
  958POPC   C1B14331  14.179   6.864   6.632  0.1590  0.1592 -0.2943
  958POPC   C2B14332  13.938   6.689   6.959 -0.0564  0.0166  0.1542
  958POPC   C3B14333  13.642   6.899   7.212  0.1485 -0.0387 -0.1871
  958POPC   C4B14334  13.557   7.078   7.640 -0.0967 -0.1380 -0.0462
  959POPC   NC314335  16.767   6.356   5.792  0.3138  0.1172  0.1396
  959POPC   PO414336  16.327   6.494   5.724  0.3169  0.5588  0.1351
  959POPC   GL114337  16.530   6.686   6.116 -0.1637 -0.0638  0.2248
  959POPC   GL214338  16.807   6.877   6.130 -0.1823 -0.1501 -0.1650
  959POPC   C1A14339  16.464   7.094   6.310  0.1100  0.2422  0.0834
  959POPC   D2A14340  16.386   7.335   6.721  0.0845  0.4685  0.0695
  959POPC   C3A14341  16.130   7.276   7.147  0.0794  0.1979  0.1593
  959POPC   C4A14342  15.914   7.588   7.383 -0.1236  0.2844  0.1107
  959POPC   C1B14343  17.071   6.897   6.412  0.0628 -0.1773  0.0110
  959POPC   C2B14344  16.987   6.768   6.863  0.3404  0.0581 -0.0557
  959POPC   C3B14345  16.853   6.525   7.248 -0.1621 -0.1521  0.0845
  959POPC   C4B14346  16.570   6.437   7.569 -0.1207 -0.0990 -0.1481
  960POPC   NC314347   7.160   2.734   5.120  0.0372 -0.1148  0.2443
  960POPC   PO414348   7.046   2.482   5.452  0.2077 -0.2742  0.2039
  960POPC   GL114349   7.096   2.395   5.853  0.0009  0.2591  0.0082
  960POPC   GL214350   7.036   2.693   5.988  0.0008  0.0975 -0.3468
  960POPC   C1A14351   7.302   2.320   6.264  0.1966 -0.0631  0.0144
  960POPC   D2A14352   7.534   2.480   6.582  0.1309  0.1438  0.1129
  960POPC   C3A14353   7.694   2.204   6.960 -0.0016  0.2158 -0.1779
  960POPC   C4A14354   7.847   2.325   7.390  0.1084 -0.0942  0.3055
  960POPC   C1B14355   6.955   2.708   6.475  0.2983 -0.0994 -0.2412
  960POPC   C2B14356   6.865   2.550   6.974 -0.2204 -0.2395  0.2414
  960POPC   C3B14357   6.967   2.809   7.320  0.1626 -0.0551 -0.1220
  960POPC   C4B14358   6.765   2.845   7.702 -0.0730 -0.0612  0.1314
  961POPC   NC314359  13.257   2.998   5.207  0.0505  0.0118 -0.2574
  961POPC   PO414360  13.657   2.985   5.363  0.0084  0.0069 -0.0720
  961POPC   GL114361  13.429   3.057   5.813 -0.0795 -0.0911 -0.1687
  961POPC   GL214362  13.309   3.412   5.891  0.0562  0.0196 -0.1324
  961POPC   C1A14363  13.421   3.121   6.290 -0.0139 -0.1775  0.0156
  961POPC   D2A14364  13.667   3.042   6.700  0.1521 -0.2803 -0.0557
  961POPC   C3A14365  13.574   2.640   6.925  0.2450 -0.0904  0.0060
  961POPC   C4A14366  13.443   2.498   7.305 -0.1361  0.1195 -0.0809
  961POPC   C1B14367  13.440   3.601   6.306  0.2550 -0.0993 -0.0956
  961POPC   C2B14368  13.547   3.587   6.621 -0.2155 -0.0141  0.0647
  961POPC   C3B14369  13.362   3.418   7.004  0.2632  0.5752  0.0007
  961POPC   C4B14370  13.392   3.294   7.421  0.0487  0.1690 -0.0257
  962POPC   NC314371  17.998  17.419   5.817  0.0739  0.1078 -0.1905
  962POPC   PO414372  18.275  17.750   5.797 -0.0530 -0.0597 -0.0544
  962POPC   GL114373  18.602  17.897   6.179 -0.1177  0.3073  0.4627
  962POPC   GL214374  18.737  18.261   6.207  0.0372  0.4263 -0.1063
  962POPC   C1A14375  18.621  17.890   6.507 -0.0654  0.0695 -0.1215
  962POPC   D2A14376  18.526  18.290   6.722 -0.0123 -0.0656 -0.0886
  962POPC   C3A14377  18.392  18.084   6.993 -0.0249  0.0561 -0.1059
  962POPC   C4A14378  18.588  17.977   7.418  0.1009 -0.0679 -0.1140
  962POPC   C1B14379  18.993  18.319   6.678  0.0873  0.0705 -0.0759
  962POPC   C2B14380  18.973  18.557   6.987  0.2739  0.1851  0.3534
  962POPC   C3B14381  19.085  18.581   7.397  0.2794  0.2427 -0.3286
  962POPC   C4B14382  19.508  18.507   7.638  0.5612  0.2137 -0.0893
  963POPC   NC314383  13.029   0.802   5.369 -0.1115  0.1513  0.3072
  963POPC   PO414384  13.457   0.984   5.419 -0.2816  0.1958  0.2115
  963POPC   GL114385  13.298   0.914   5.823 -0.2888 -0.1575 -0.1569
  963POPC   GL214386  13.099   1.224   5.911  0.0029  0.0343  0.1724
  963POPC   C1A14387  13.394   0.820   6.264  0.2131  0.0422  0.0535
  963POPC   D2A14388  13.660   0.765   6.597 -0.2374  0.2742  0.1413
  963POPC   C3A14389  13.459   0.620   7.008 -0.2520 -0.3577  0.2744
  963POPC   C4A14390  13.438   0.507   7.457  0.2180  0.0899  0.0152
  963POPC   C1B14391  12.913   1.559   6.160 -0.0042  0.0070  0.2540
  963POPC   C2B14392  12.545   1.713   6.467 -0.1454  0.0001 -0.2578
  963POPC   C3B14393  12.480   2.016   6.802 -0.1770  0.0406 -0.0451
  963POPC   C4B14394  12.280   2.253   7.098  0.1324  0.0564  0.0925
  964POPC   NC314395   6.937   4.650   5.437 -0.0763  0.0273 -0.4813
  964POPC   PO414396   6.919   4.303   5.722 -0.3193  0.0965 -0.0700
  964POPC   GL114397   7.290   4.242   5.941 -0.1587  0.0146 -0.2690
  964POPC   GL214398   7.223   3.910   5.876 -0.0634 -0.1367 -0.4617
  964POPC   C1A14399   7.631   4.315   6.178  0.1046  0.1014  0.0121
  964POPC   D2A14400   7.984   4.606   6.418  0.2270 -0.3281  0.0638
  964POPC   C3A14401   8.214   4.303   6.581  0.1407  0.0140 -0.0374
  964POPC   C4A14402   8.252   3.947   6.894 -0.0282 -0.2164 -0.0872
  964POPC   C1B14403   7.116   3.659   6.240 -0.0834  0.4092 -0.0089
  964POPC   C2B14404   7.233   3.581   6.613  0.0114  0.0511  0.1513
  964POPC   C3B14405   7.492   3.455   6.915  0.1739 -0.0375  0.2248
  964POPC   C4B14406   7.728   3.144   7.071  0.0250  0.0860 -0.1209
  965POPC   NC314407  17.113  12.552   5.741 -0.1182  0.0183 -0.2392
  965POPC   PO414408  17.372  12.840   5.705  0.0678  0.0938  0.1810
  965POPC   GL114409  17.149  13.058   6.005 -0.0008 -0.0775 -0.2950
  965POPC   GL214410  16.999  13.306   5.989  0.0025 -0.0263 -0.2074
  965POPC   C1A14411  17.250  12.884   6.473  0.1666  0.1543  0.2614
  965POPC   D2A14412  17.140  12.808   6.951 -0.1789 -0.0926 -0.0601
  965POPC   C3A14413  16.999  13.127   7.217  0.2713 -0.2965  0.1718
  965POPC   C4A14414  16.881  13.462   7.446  0.0485 -0.4076  0.1482
  965POPC   C1B14415  16.839  13.255   6.451 -0.1592 -0.1379  0.1122
  965POPC   C2B14416  16.663  13.405   6.779  0.1760 -0.0457 -0.2642
  965POPC   C3B14417  16.411  13.336   7.182 -0.2822 -0.0160  0.0381
  965POPC   C4B14418  16.383  13.436   7.600  0.1493 -0.2999  0.1008
  966POPC   NC314419  10.555   6.476   4.927 -0.0453 -0.1137  0.2657
  966POPC   PO414420  10.467   6.717   5.267 -0.1153  0.0281 -0.0691
  966POPC   GL114421  10.599   6.665   5.728  0.0295 -0.3337  0.3542
  966POPC   GL214422  10.971   6.595   5.755 -0.1669  0.1583 -0.3351
  966POPC   C1A14423  10.410   6.698   6.095  0.1563  0.3831  0.1311
  966POPC   D2A14424  10.254   6.612   6.452 -0.0681 -0.0232  0.1151
  966POPC   C3A14425  10.343   6.716   6.869 -0.1030 -0.0656  0.0282
  966POPC   C4A14426  10.056   6.732   7.271  0.1959  0.1189 -0.1109
  966POPC   C1B14427  10.929   6.484   6.220  0.0564 -0.0962  0.0555
  966POPC   C2B14428  10.768   6.612   6.592 -0.0974 -0.1518  0.0463
  966POPC   C3B14429  10.778   6.721   7.114  0.2641 -0.1631  0.1904
  966POPC   C4B14430  10.522   6.762   7.458 -0.2489 -0.0645 -0.0888
  967POPC   NC314431   1.378  14.239   5.684 -0.1770 -0.1638 -0.0491
  967POPC   PO414432   1.405  13.889   6.076 -0.1867 -0.2545  0.0309
  967POPC   GL114433   1.500  13.606   6.373  0.1959 -0.2177  0.1992
  967POPC   GL214434   1.865  13.724   6.342 -0.0865  0.1586  0.2499
  967POPC   C1A14435   1.625  13.500   6.786 -0.1179 -0.0505  0.1874
  967POPC   D2A14436   1.674  13.513   7.287  0.3548  0.1281  0.1184
  967POPC   C3A14437   1.379  13.245   7.594 -0.0151  0.0745 -0.1713
  967POPC   C4A14438   1.351  12.793   7.836  0.1228  0.1391 -0.1468
  967POPC   C1B14439   1.711  13.957   6.626 -0.4712  0.2825  0.0984
  967POPC   C2B14440   1.734  13.938   7.088 -0.0359  0.0334  0.4493
  967POPC   C3B14441   1.783  13.963   7.461  0.0219  0.1865 -0.2583
  967POPC   C4B14442   1.773  13.898   7.900 -0.1189  0.1447  0.0296
  968POPC   NC314443  12.244   5.196   5.084 -0.0368 -0.2938 -0.1107
  968POPC   PO414444  12.498   5.493   5.303 -0.1267  0.2054  0.0834
  968POPC   GL114445  12.342   5.561   5.712 -0.0972 -0.4230  0.0826
  968POPC   GL214446  12.556   5.659   5.890 -0.0241 -0.0684  0.0860
  968POPC   C1A14447  12.086   5.416   6.025  0.1409  0.2590 -0.2218
  968POPC   D2A14448  12.060   5.391   6.400  0.2342  0.2394  0.2822
  968POPC   C3A14449  12.466   5.188   6.638  0.0388 -0.2195 -0.2477
  968POPC   C4A14450  12.531   5.050   7.028 -0.2032 -0.0233  0.1830
  968POPC   C1B14451  12.775   5.835   6.208 -0.1663  0.0279  0.0206
  968POPC   C2B14452  13.072   5.956   6.521  0.4042  0.1074  0.0007
  968POPC   C3B14453  13.135   5.786   7.012  0.2635 -0.1194  0.0873
  968POPC   C4B14454  13.394   5.566   7.250  0.0496  0.0363 -0.1527
  969POPC   NC314455   0.462   5.201   5.693  0.0526 -0.0367  0.1212
  969POPC   PO414456   0.061   5.322   5.764  0.0229  0.0533  0.0531
  969POPC   GL114457   0.156   5.351   6.135 -0.1376  0.0581 -0.0381
  969POPC   GL214458   0.284   5.718   6.151  0.0546  0.2799  0.1506
  969POPC   C1A14459   0.252   5.332   6.601 -0.0070  0.1637  0.1096
  969POPC   D2A14460   0.412   5.291   6.905  0.1305  0.0755 -0.0566
  969POPC   C3A14461   0.271   5.135   7.346 -0.0874  0.2261  0.1176
  969POPC   C4A14462   0.219   5.225   7.886 -0.2452 -0.1358 -0.0085
  969POPC   C1B14463   0.137   5.855   6.545  0.2285 -0.1177  0.0499
  969POPC   C2B14464   0.005   6.007   6.933  0.0656  0.0059  0.1170
  969POPC   C3B14465   0.220   6.293   7.227  0.2564 -0.3305 -0.0306
  969POPC   C4B14466   0.628   6.317   7.212 -0.0924 -0.0547  0.1425
  970POPC   NC314467   2.184   7.572   5.225 -0.0243 -0.1675 -0.1519
  970POPC   PO414468   2.114   7.455   5.662  0.0909 -0.0713  0.0571
  970POPC   GL114469   2.071   7.498   6.212  0.2083 -0.2431  0.1919
  970POPC   GL214470   2.056   7.746   6.399 -0.0887 -0.0713  0.0802
  970POPC   C1A14471   1.787   7.345   6.562  0.0837  0.2180  0.0645
  970POPC   D2A14472   1.491   7.000   6.738 -0.4075 -0.1193 -0.2505
  970POPC   C3A14473   1.267   7.113   7.148  0.1745 -0.0547 -0.3284
  970POPC   C4A14474   1.119   7.245   7.582  0.0883 -0.1761 -0.0549
  970POPC   C1B14475   1.986   7.811   6.793 -0.0723 -0.1630 -0.1862
  970POPC   C2B14476   1.977   8.053   7.213  0.1736  0.0501  0.1045
  970POPC   C3B14477   2.294   8.086   7.641 -0.1173 -0.1354 -0.2116
  970POPC   C4B14478   2.283   8.182   8.006  0.0532  0.1784 -0.1469
  971POPC   NC314479   2.595   0.513   5.446  0.1742  0.1705  0.0895
  971POPC   PO414480   2.129   0.548   5.670 -0.2544 -0.0043  0.1868
  971POPC   GL114481   2.043   0.660   6.129  0.4003 -0.0855  0.2714
  971POPC   GL214482   1.764   0.552   6.115 -0.0823  0.0666 -0.2032
  971POPC   C1A14483   2.051   0.972   6.493  0.4765 -0.2786 -0.1763
  971POPC   D2A14484   2.056   1.124   6.992  0.2137 -0.0588  0.0098
  971POPC   C3A14485   2.445   1.300   7.160 -0.1173 -0.0239  0.0470
  971POPC   C4A14486   2.445   1.648   7.366 -0.0625 -0.3725  0.0126
  971POPC   C1B14487   1.656   0.651   6.456 -0.2379  0.0614 -0.0662
  971POPC   C2B14488   1.750   0.720   6.862  0.1059  0.0131  0.0160
  971POPC   C3B14489   1.688   0.790   7.305 -0.1792 -0.1289  0.0048
  971POPC   C4B14490   1.546   0.879   7.676 -0.2822 -0.0767 -0.0241
  972POPC   NC314491   6.266   1.945   5.411 -0.1841 -0.0588 -0.0728
  972POPC   PO414492   6.097   2.033   5.867  0.1708  0.0133 -0.2624
  972POPC   GL114493   5.899   2.202   6.243  0.2101 -0.2110  0.2059
  972POPC   GL214494   5.758   1.923   6.209 -0.2453 -0.0030  0.1623
  972POPC   C1A14495   5.746   2.199   6.767 -0.1830 -0.2530 -0.3110
  972POPC   D2A14496   5.596   2.316   7.194 -0.3152 -0.0976  0.2593
  972POPC   C3A14497   5.541   1.861   7.447 -0.2375 -0.1563  0.2323
  972POPC   C4A14498   5.573   1.482   7.723  0.1080 -0.1664  0.2167
  972POPC   C1B14499   5.858   1.735   6.592  0.0222  0.3862  0.1083
  972POPC   C2B14500   5.837   1.834   7.059 -0.2318 -0.2953 -0.1501
  972POPC   C3B14501   5.998   1.702   7.422  0.1152 -0.0582 -0.0377
  972POPC   C4B14502   6.076   1.315   7.724 -0.1611 -0.0911  0.1888
  973POPC   NC314503  13.767  10.261   5.366 -0.3389 -0.3024 -0.2867
  973POPC   PO414504  13.853   9.827   5.399 -0.1735 -0.1800 -0.1205
  973POPC   GL114505  13.815   9.778   5.901  0.2854 -0.0195 -0.2001
  973POPC   GL214506  14.096   9.897   6.136 -0.0028  0.2554  0.0939
  973POPC   C1A14507  13.638   9.903   6.231  0.0648 -0.2472 -0.3072
  973POPC   D2A14508  13.580   9.853   6.688 -0.2543  0.0900 -0.3135
  973POPC   C3A14509  13.338   9.503   6.882  0.0056 -0.2911 -0.0248
  973POPC   C4A14510  13.024   9.601   7.191  0.1405 -0.1201 -0.0102
  973POPC   C1B14511  14.082  10.075   6.448  0.2213 -0.3326  0.0652
  973POPC   C2B14512  14.108  10.001   6.809  0.0979 -0.2566  0.1447
  973POPC   C3B14513  13.939  10.061   7.102  0.0314  0.1498 -0.1431
  973POPC   C4B14514  13.484   9.897   7.213 -0.1839 -0.0445  0.1285
  974POPC   NC314515  11.189   5.352   5.158 -0.0540  0.0339 -0.2502
  974POPC   PO414516  11.350   4.932   5.222  0.2602  0.2786 -0.0034
  974POPC   GL114517  11.397   5.188   5.598 -0.2945  0.2031 -0.0648
  974POPC   GL214518  11.211   5.482   5.649 -0.0576  0.2308  0.1443
  974POPC   C1A14519  11.359   4.907   5.901  0.1017  0.0902 -0.1291
  974POPC   D2A14520  11.637   4.838   6.217  0.1123  0.0134 -0.0603
  974POPC   C3A14521  11.887   4.856   6.593 -0.0022 -0.2620 -0.3355
  974POPC   C4A14522  12.233   4.695   6.844  0.0199  0.0758  0.0209
  974POPC   C1B14523  11.050   5.460   6.096  0.1762  0.2794 -0.0849
  974POPC   C2B14524  11.230   5.555   6.433  0.1771  0.3396 -0.1534
  974POPC   C3B14525  11.128   5.742   6.726 -0.1809 -0.0240  0.0312
  974POPC   C4B14526  10.978   5.831   7.137 -0.3895  0.2915  0.1234
  975POPC   NC314527  15.363   1.175   5.768 -0.0855 -0.0562  0.0040
  975POPC   PO414528  15.004   1.129   5.886  0.2819 -0.0798  0.1712
  975POPC   GL114529  15.104   1.246   6.281 -0.0908  0.0029 -0.3385
  975POPC   GL214530  15.466   1.271   6.256  0.0567  0.0739  0.0289
  975POPC   C1A14531  15.070   1.441   6.685 -0.0090 -0.0532  0.1075
  975POPC   D2A14532  15.157   1.409   7.140 -0.0974  0.3805  0.2676
  975POPC   C3A14533  14.995   1.745   7.380  0.0028 -0.2268 -0.1078
  975POPC   C4A14534  14.728   2.080   7.287 -0.1414 -0.3194 -0.1813
  975POPC   C1B14535  15.593   1.318   6.783  0.4563  0.2206 -0.3022
  975POPC   C2B14536  15.563   1.659   7.089  0.0749  0.1695  0.1353
  975POPC   C3B14537  15.642   1.921   7.535  0.0380 -0.2826 -0.0779
  975POPC   C4B14538  15.618   2.224   7.977  0.1017  0.1459 -0.1762
  976POPC   NC314539   9.492   1.661   5.325  0.0888  0.1395  0.0539
  976POPC   PO414540   9.187   1.297   5.466  0.1271  0.0001  0.1754
  976POPC   GL114541   9.387   1.348   5.797 -0.3345  0.1986 -0.0322
  976POPC   GL214542   9.298   1.066   5.913 -0.1287  0.1693 -0.1727
  976POPC   C1A14543   9.607   1.432   6.203 -0.0706  0.2257 -0.0901
  976POPC   D2A14544   9.542   1.449   6.575  0.0137 -0.2011 -0.0070
  976POPC   C3A14545   9.932   1.313   6.717  0.1805 -0.2517 -0.2601
  976POPC   C4A14546  10.156   1.611   7.026 -0.0394  0.0550  0.0623
  976POPC   C1B14547   9.162   1.331   6.258  0.0064  0.2331  0.1383
  976POPC   C2B14548   9.038   1.479   6.749  0.1108 -0.3052 -0.1426
  976POPC   C3B14549   8.789   1.774   6.896 -0.1231 -0.2027 -0.3164
  976POPC   C4B14550   8.557   1.920   7.232  0.0112 -0.1094 -0.1471
  977POPC   NC314551  17.635   4.979   5.251 -0.2051 -0.0651  0.0127
  977POPC   PO414552  17.622   5.268   5.626 -0.1965 -0.1802 -0.2853
  977POPC   GL114553  17.648   5.254   6.132  0.2767  0.0649  0.3831
  977POPC   GL214554  17.450   5.008   6.278  0.2959  0.0150  0.2043
  977POPC   C1A14555  17.937   5.251   6.496  0.3225 -0.1149 -0.0798
  977POPC   D2A14556  17.827   5.252   6.888 -0.0535 -0.1029 -0.2150
  977POPC   C3A14557  17.961   5.464   7.254 -0.1465  0.1426  0.1272
  977POPC   C4A14558  18.101   5.686   7.645 -0.0043 -0.1568 -0.0120
  977POPC   C1B14559  17.489   4.885   6.653 -0.0572  0.0900 -0.1146
  977POPC   C2B14560  17.329   4.631   6.981 -0.1334 -0.0914  0.1970
  977POPC   C3B14561  16.980   4.600   7.299 -0.0716  0.0859  0.0748
  977POPC   C4B14562  16.823   4.677   7.657  0.1455  0.0532  0.1780
  978POPC   NC314563  13.889   2.633   5.686 -0.1006  0.3845  0.0405
  978POPC   PO414564  13.460   2.577   5.737 -0.0024 -0.0994 -0.0270
  978POPC   GL114565  13.624   2.724   6.134 -0.2961  0.1312  0.2360
  978POPC   GL214566  13.881   2.911   6.096  0.2132  0.1032 -0.2425
  978POPC   C1A14567  13.852   2.621   6.474 -0.1246 -0.2116  0.0606
  978POPC   D2A14568  14.099   2.913   6.793 -0.3403 -0.2906 -0.0385
  978POPC   C3A14569  14.114   3.289   6.826  0.1262 -0.1198 -0.0637
  978POPC   C4A14570  13.934   3.698   6.882  0.1352 -0.0890  0.0115
  978POPC   C1B14571  14.224   3.189   6.276 -0.1743 -0.0683 -0.0366
  978POPC   C2B14572  14.553   3.298   6.565 -0.0744 -0.1319  0.0904
  978POPC   C3B14573  14.710   3.402   7.020 -0.0616 -0.2629  0.1360
  978POPC   C4B14574  14.717   3.572   7.456 -0.0526  0.3214 -0.1147
  979POPC   NC314575   5.413  14.662   5.912 -0.1216  0.1284 -0.3529
  979POPC   PO414576   5.843  14.902   5.857  0.0983 -0.3564 -0.0800
  979POPC   GL114577   5.737  14.840   6.287 -0.1242  0.0543 -0.0803
  979POPC   GL214578   5.556  14.637   6.367 -0.2569 -0.1366  0.2551
  979POPC   C1A14579   5.922  14.809   6.715 -0.0266 -0.1602  0.0031
  979POPC   D2A14580   6.078  14.732   7.151 -0.0809  0.1537  0.1920
  979POPC   C3A14581   6.397  14.610   7.311  0.0494  0.3130  0.1463
  979POPC   C4A14582   6.722  14.802   7.480 -0.0006 -0.1523 -0.2643
  979POPC   C1B14583   5.598  14.427   6.738 -0.0985  0.0338  0.2933
  979POPC   C2B14584   5.907  14.338   6.949  0.0108 -0.3638  0.0787
  979POPC   C3B14585   6.267  14.087   6.970  0.0089  0.2025 -0.1364
  979POPC   C4B14586   6.402  13.715   6.887  0.3671 -0.3192 -0.0016
  980POPC   NC314587  12.016   4.471   4.948  0.3556 -0.0567 -0.1651
  980POPC   PO414588  12.352   4.692   5.111 -0.1300 -0.3459  0.0527
  980POPC   GL114589  12.268   4.578   5.575 -0.2226  0.0074  0.0299
  980POPC   GL214590  12.485   4.644   5.891 -0.0772  0.1634  0.0777
  980POPC   C1A14591  12.078   4.379   5.972 -0.3120  0.2582 -0.0743
  980POPC   D2A14592  11.999   4.427   6.379 -0.0062  0.0523 -0.2066
  980POPC   C3A14593  12.047   4.228   6.792 -0.0174  0.1572  0.2390
  980POPC   C4A14594  12.105   4.141   7.267  0.1219 -0.2319  0.0773
  980POPC   C1B14595  12.550   4.632   6.327  0.0498  0.0211 -0.1699
  980POPC   C2B14596  12.702   4.728   6.663  0.0929 -0.0329 -0.1927
  980POPC   C3B14597  12.956   4.865   7.058 -0.0259  0.1022  0.0563
  980POPC   C4B14598  13.138   5.175   7.023  0.2398  0.0143 -0.0776
  981POPC   NC314599  18.183   3.366   5.784 -0.0784  0.1021  0.0273
  981POPC   PO414600  18.525   3.655   5.891  0.1838  0.3697  0.1099
  981POPC   GL114601  18.406   3.435   6.248  0.2785 -0.1714  0.0018
  981POPC   GL214602  18.197   3.608   6.272  0.2345 -0.0231  0.1529
  981POPC   C1A14603  18.344   3.138   6.498  0.0789  0.3601 -0.2120
  981POPC   D2A14604  18.413   3.186   6.885  0.0554  0.1635  0.1882
  981POPC   C3A14605  18.246   3.021   7.237 -0.1122 -0.1958 -0.3287
  981POPC   C4A14606  18.088   2.727   7.461 -0.4440  0.3022  0.1471
  981POPC   C1B14607  18.326   3.650   6.665 -0.0397  0.4219 -0.3987
  981POPC   C2B14608  18.427   3.682   7.093 -0.2091  0.0194  0.1698
  981POPC   C3B14609  18.352   3.525   7.475 -0.2609  0.4591 -0.5697
  981POPC   C4B14610  18.331   3.171   7.677  0.3450  0.0551  0.1655
  982POPC   NC314611  16.968   0.133   5.457 -0.1463 -0.3364  0.0750
  982POPC   PO414612  17.504  -0.031   5.460 -0.1034  0.0697 -0.4445
  982POPC   GL114613  17.454  -0.182   5.954  0.2093  0.0226 -0.0327
  982POPC   GL214614  17.248  -0.366   6.138  0.0163  0.3317  0.2618
  982POPC   C1A14615  17.826  -0.256   6.266  0.0782  0.0441 -0.1188
  982POPC   D2A14616  18.074  -0.431   6.326  0.0986  0.0926  0.1190
  982POPC   C3A14617  18.121  -0.823   6.494 -0.0778 -0.0116  0.1452
  982POPC   C4A14618  18.131  -0.907   6.971 -0.1012 -0.1359  0.2043
  982POPC   C1B14619  17.115  -0.268   6.557 -0.1547  0.1130 -0.2875
  982POPC   C2B14620  17.244  -0.242   6.896 -0.1761 -0.0975 -0.2881
  982POPC   C3B14621  17.217  -0.299   7.287  0.0444 -0.3061  0.6405
  982POPC   C4B14622  17.467  -0.529   7.396  0.2421 -0.1622 -0.1023
  983POPC   NC314623  16.221   9.008   5.338 -0.2909 -0.2677  0.0280
  983POPC   PO414624  16.179   9.254   5.699 -0.0127  0.0007  0.0803
  983POPC   GL114625  16.188   9.505   6.082  0.1255  0.2322  0.3798
  983POPC   GL214626  16.303   9.381   6.227 -0.0084  0.0158  0.0983
  983POPC   C1A14627  16.398   9.854   6.306 -0.0201  0.0455  0.0686
  983POPC   D2A14628  16.454   9.960   6.791  0.1085 -0.1020  0.3677
  983POPC   C3A14629  16.683  10.212   6.996 -0.1291  0.1512 -0.0874
  983POPC   C4A14630  16.548  10.343   7.415  0.0062  0.0065 -0.0925
  983POPC   C1B14631  16.387   9.453   6.630  0.0664 -0.2319  0.0567
  983POPC   C2B14632  16.414   9.444   7.090  0.2217  0.2155 -0.0101
  983POPC   C3B14633  16.337   8.980   7.244  0.0658 -0.1239  0.0165
  983POPC   C4B14634  16.472   8.937   7.683 -0.2879  0.2542  0.0947
  984YOPC   NC314635   0.974  14.862   5.178  0.0268 -0.1976 -0.2268
  984YOPC   PO414636   1.103  14.641   5.574  0.4595 -0.1612 -0.1404
  984YOPC   GL114637   0.894  14.874   5.984  0.2204  0.0518 -0.1443
  984YOPC   GL214638   0.810  15.122   6.140  0.2371  0.0687 -0.0304
  984YOPC   C1A14639   0.737  14.742   6.418  0.1487 -0.3383 -0.0636
  984YOPC   D2A14640   0.754  14.642   6.740 -0.0908 -0.2240 -0.2546
  984YOPC   C3A14641   0.714  14.483   7.167  0.0485  0.1526  0.1770
  984YOPC   C4A14642   0.904  14.319   7.422 -0.0986 -0.2552  0.2121
  984YOPC   C1B14643   0.909  15.290   6.523 -0.0695 -0.1770  0.1663
  984YOPC   C2B14644   0.878  15.348   6.912  0.0744 -0.0309 -0.0905
  984YOPC   D3B14645   1.245  15.475   7.091  0.1597 -0.0656 -0.2506
  984YOPC   C4B14646   1.398  15.221   7.420  0.2755  0.1462 -0.0839
  985YOPC   NC314647  11.762   1.923   4.699  0.1019  0.0489  0.0060
  985YOPC   PO414648  11.382   2.187   4.752  0.1202 -0.0105 -0.2776
  985YOPC   GL114649  11.201   2.216   5.210 -0.0036 -0.2317  0.1129
  985YOPC   GL214650  11.188   2.472   5.365  0.0867  0.1901  0.0788
  985YOPC   C1A14651  11.216   1.950   5.618  0.1760 -0.0350 -0.1114
  985YOPC   D2A14652  11.396   1.894   5.987 -0.3012 -0.0985  0.0859
  985YOPC   C3A14653  11.030   1.659   6.042  0.0117  0.1071  0.1999
  985YOPC   C4A14654  10.719   1.514   5.837  0.2422 -0.1458 -0.1955
  985YOPC   C1B14655  11.609   2.394   5.651  0.2465 -0.0022 -0.0130
  985YOPC   C2B14656  11.701   2.298   5.977 -0.2644 -0.0391  0.1331
  985YOPC   D3B14657  11.796   2.118   6.349 -0.1093 -0.1473 -0.0739
  985YOPC   C4B14658  11.974   1.983   6.798  0.0313  0.0108 -0.0259
  986YOPC   NC314659  11.266   6.325   4.626  0.1195  0.0327 -0.0268
  986YOPC   PO414660  11.223   6.134   5.123  0.1336 -0.3453 -0.1381
  986YOPC   GL114661  11.212   6.051   5.531 -0.4542  0.1802 -0.1440
  986YOPC   GL214662  10.940   6.091   5.764 -0.1019  0.1197 -0.2272
  986YOPC   C1A14663  11.392   5.835   5.949  0.1378 -0.2976  0.0049
  986YOPC   D2A14664  11.756   5.797   6.335  0.1547  0.0115 -0.3300
  986YOPC   C3A14665  11.676   5.716   6.704  0.0003  0.0081 -0.1118
  986YOPC   C4A14666  11.555   5.569   7.073  0.3007 -0.1097  0.1135
  986YOPC   C1B14667  10.972   5.961   6.203  0.0473 -0.0797  0.0268
  986YOPC   C2B14668  10.732   5.664   6.391 -0.3809  0.1622 -0.2611
  986YOPC   D3B14669  10.811   5.378   6.672  0.1228  0.1007  0.0585
  986YOPC   C4B14670  11.084   5.318   7.103 -0.1137 -0.1800 -0.0809
  987YOPC   NC314671   8.085   3.043   5.243 -0.1669 -0.0073  0.1396
  987YOPC   PO414672   7.874   3.444   5.144 -0.1126 -0.0538  0.1015
  987YOPC   GL114673   7.787   3.587   5.604 -0.0534  0.2735  0.2401
  987YOPC   GL214674   7.766   3.235   5.707  0.1405 -0.2177  0.0965
  987YOPC   C1A14675   7.667   3.791   5.904 -0.0096  0.0715  0.0582
  987YOPC   D2A14676   7.526   3.889   6.369 -0.1998  0.0746 -0.0466
  987YOPC   C3A14677   7.846   3.904   6.616 -0.0132  0.2540 -0.0417
  987YOPC   C4A14678   7.901   4.224   6.971  0.2990  0.1802  0.1371
  987YOPC   C1B14679   7.894   2.893   6.075 -0.0871  0.3201 -0.0156
  987YOPC   C2B14680   7.795   2.880   6.537  0.1069  0.0880 -0.2131
  987YOPC   D3B14681   7.986   2.572   6.820 -0.1137  0.1464  0.1590
  987YOPC   C4B14682   8.346   2.444   7.095 -0.0363 -0.0255 -0.1311
  988YOPC   NC314683  13.143  11.119   5.179 -0.0529 -0.0149  0.2790
  988YOPC   PO414684  13.205  11.552   5.264  0.3699  0.1351  0.3877
  988YOPC   GL114685  13.042  11.435   5.658 -0.1371  0.2708 -0.0696
  988YOPC   GL214686  12.942  11.687   5.951  0.1641  0.1935  0.2802
  988YOPC   C1A14687  13.087  11.074   5.978  0.1239  0.1530 -0.0813
  988YOPC   D2A14688  12.890  10.647   6.081 -0.0399  0.2454 -0.1933
  988YOPC   C3A14689  13.012  10.529   6.490 -0.1189  0.0345  0.0442
  988YOPC   C4A14690  13.337  10.357   6.665  0.2333  0.3382 -0.0247
  988YOPC   C1B14691  13.011  11.591   6.343 -0.0192  0.0538  0.2689
  988YOPC   C2B14692  12.896  11.742   6.827  0.5246 -0.4422 -0.1646
  988YOPC   D3B14693  12.753  11.605   7.189  0.1845  0.2554 -0.0055
  988YOPC   C4B14694  12.598  11.784   7.498  0.2420  0.1191 -0.3366
  989YOPC   NC314695   6.380   2.921   5.504 -0.0311  0.0612  0.0879
  989YOPC   PO414696   6.265   3.051   5.866 -0.1760 -0.2120  0.0656
  989YOPC   GL114697   6.273   3.330   6.275 -0.0063 -0.1261  0.1556
  989YOPC   GL214698   6.545   3.501   6.154 -0.3074  0.0811  0.0617
  989YOPC   C1A14699   6.309   3.495   6.698  0.0382  0.1595  0.1202
  989YOPC   D2A14700   6.379   3.693   7.051  0.0974 -0.0537 -0.2218
  989YOPC   C3A14701   6.799   3.717   7.358  0.0775 -0.0043 -0.1123
  989YOPC   C4A14702   6.784   3.521   7.800  0.1230  0.2691 -0.1994
  989YOPC   C1B14703   6.705   3.700   6.524  0.1603  0.1402  0.1171
  989YOPC   C2B14704   6.898   3.981   6.844  0.1383  0.3116  0.1589
  989YOPC   D3B14705   6.794   4.132   7.159  0.0616 -0.0336  0.0671
  989YOPC   C4B14706   6.486   4.120   7.424  0.0776  0.5028  0.0311
  990YOPC   NC314707   4.773  10.419   5.560  0.2538  0.1059 -0.0993
  990YOPC   PO414708   4.697  10.773   5.691 -0.0454  0.0843  0.2760
  990YOPC   GL114709   4.603  10.821   6.104 -0.3841 -0.0969  0.0056
  990YOPC   GL214710   4.404  11.132   6.188  0.0981 -0.0241  0.0019
  990YOPC   C1A14711   4.610  10.771   6.515 -0.1791 -0.0403  0.0289
  990YOPC   D2A14712   4.529  10.995   6.798 -0.0709 -0.2454 -0.1252
  990YOPC   C3A14713   4.637  11.447   6.757 -0.1190  0.0620  0.0955
  990YOPC   C4A14714   4.471  11.635   6.428 -0.2430 -0.3739 -0.1998
  990YOPC   C1B14715   4.162  11.243   6.563  0.1045 -0.0867 -0.2194
  990YOPC   C2B14716   4.257  11.293   6.987 -0.0310 -0.0811  0.0235
  990YOPC   D3B14717   4.497  11.010   7.275 -0.1098 -0.3131 -0.1067
  990YOPC   C4B14718   4.613  10.789   7.525  0.1056  0.0458 -0.0251
  991YOPC   NC314719   4.308  12.138   5.790 -0.0764 -0.2631  0.0485
  991YOPC   PO414720   3.982  12.474   5.899  0.0448 -0.3749  0.1603
  991YOPC   GL114721   3.607  12.253   6.071  0.2341 -0.2053 -0.0588
  991YOPC   GL214722   3.343  12.486   6.128  0.3457 -0.0118 -0.2010
  991YOPC   C1A14723   3.556  12.199   6.534  0.0545 -0.0395 -0.3113
  991YOPC   D2A14724   3.487  12.346   6.945  0.0111  0.3514  0.0287
  991YOPC   C3A14725   3.646  12.384   7.330 -0.1531 -0.2686  0.1541
  991YOPC   C4A14726   3.493  12.320   7.755 -0.0163 -0.0989 -0.0232
  991YOPC   C1B14727   3.376  12.623   6.543  0.5308 -0.0991  0.0393
  991YOPC   C2B14728   3.297  12.913   6.856 -0.6749  0.1579  0.1428
  991YOPC   D3B14729   3.316  12.758   7.180 -0.1922 -0.0594  0.0270
  991YOPC   C4B14730   3.330  12.734   7.631  0.0299  0.1741 -0.0105
  992YOPC   NC314731   0.421  15.419   5.835 -0.1630 -0.0864  0.1930
  992YOPC   PO414732   0.901  15.490   5.816 -0.0614  0.1064  0.1296
  992YOPC   GL114733   0.735  15.639   6.215  0.0792 -0.0508 -0.1907
  992YOPC   GL214734   0.680  15.930   6.302 -0.4161 -0.0033  0.2132
  992YOPC   C1A14735   0.454  15.620   6.598 -0.0937  0.1143 -0.1297
  992YOPC   D2A14736   0.428  15.586   6.988 -0.0268  0.2759  0.1330
  992YOPC   C3A14737   0.507  15.938   7.316 -0.5743  0.3631  0.2216
  992YOPC   C4A14738   0.260  16.148   7.575  0.0706  0.2058 -0.1441
  992YOPC   C1B14739   0.576  16.093   6.761  0.1497  0.2946  0.0869
  992YOPC   C2B14740   0.324  16.321   7.080 -0.1626 -0.0403  0.2645
  992YOPC   D3B14741  -0.096  16.189   7.239 -0.1868  0.0323 -0.3517
  992YOPC   C4B14742  -0.319  16.010   7.432  0.2545  0.0376  0.0204
  993YOPC   NC314743  14.577  15.191   5.635  0.0799  0.1793 -0.0293
  993YOPC   PO414744  14.565  15.604   5.902 -0.1406  0.3670  0.4445
  993YOPC   GL114745  14.510  15.803   6.233 -0.2231 -0.0640 -0.1864
  993YOPC   GL214746  14.611  15.642   6.433 -0.2997 -0.1539 -0.0689
  993YOPC   C1A14747  14.551  16.032   6.661  0.1813 -0.2261 -0.0680
  993YOPC   D2A14748  14.830  15.983   7.080 -0.1054 -0.0999 -0.2223
  993YOPC   C3A14749  14.676  16.073   7.423  0.0315 -0.4170  0.0836
  993YOPC   C4A14750  14.703  16.167   7.936 -0.3268  0.2380 -0.1297
  993YOPC   C1B14751  14.700  15.534   6.907 -0.2001 -0.1213  0.0624
  993YOPC   C2B14752  14.973  15.444   7.180  0.0654 -0.1056  0.0634
  993YOPC   D3B14753  15.000  15.095   7.481  0.2087 -0.1768  0.0626
  993YOPC   C4B14754  15.263  14.939   7.818  0.1340  0.1228 -0.0275
  994YOPC   NC314755   5.856  10.660   5.680 -0.2885 -0.0325  0.0641
  994YOPC   PO414756   5.586  11.064   5.772  0.1781  0.2663 -0.2892
  994YOPC   GL114757   5.793  10.782   6.221  0.1502 -0.0137 -0.2169
  994YOPC   GL214758   5.932  10.547   6.150 -0.2098  0.2148 -0.0369
  994YOPC   C1A14759   5.882  10.786   6.643  0.0253 -0.0943 -0.1126
  994YOPC   D2A14760   5.989  10.591   6.975 -0.0101  0.0930 -0.4314
  994YOPC   C3A14761   5.950  10.803   7.379 -0.0632 -0.0252  0.1444
  994YOPC   C4A14762   5.963  11.002   7.803 -0.1065  0.2580 -0.0399
  994YOPC   C1B14763   6.087  10.332   6.501 -0.2417  0.1138 -0.2642
  994YOPC   C2B14764   6.402  10.297   6.691 -0.0715  0.3007  0.1278
  994YOPC   D3B14765   6.673  10.043   6.486 -0.3501  0.1132 -0.1234
  994YOPC   C4B14766   6.976   9.789   6.675  0.1912  0.0622 -0.3312
  995YOPC   NC314767   4.405  15.448   5.796 -0.3335  0.2034 -0.3457
  995YOPC   PO414768   4.077  15.358   5.602 -0.1170  0.0717 -0.0056
  995YOPC   GL114769   3.955  15.373   6.000 -0.1258  0.1467 -0.1311
  995YOPC   GL214770   3.761  15.182   6.213  0.0005  0.2521 -0.0218
  995YOPC   C1A14771   4.002  15.645   6.411 -0.0696 -0.1461 -0.0556
  995YOPC   D2A14772   3.742  15.869   6.633 -0.2088 -0.0831  0.3347
  995YOPC   C3A14773   3.729  16.057   6.961 -0.0472 -0.0850  0.1137
  995YOPC   C4A14774   3.523  16.043   7.303  0.1042  0.0692 -0.1792
  995YOPC   C1B14775   3.731  15.261   6.671 -0.0706 -0.0511 -0.0576
  995YOPC   C2B14776   3.699  15.464   7.044 -0.0072  0.3320  0.1362
  995YOPC   D3B14777   3.707  15.087   7.392  0.1615 -0.1960 -0.1223
  995YOPC   C4B14778   3.920  14.856   7.806  0.1018  0.0017  0.1463
  996YOPC   NC314779   8.165  17.074   5.485 -0.1551 -0.0169  0.0204
  996YOPC   PO414780   7.705  17.077   5.662  0.1815 -0.0313 -0.0140
  996YOPC   GL114781   7.970  17.249   6.057 -0.0263  0.0370  0.3141
  996YOPC   GL214782   8.011  16.947   6.283 -0.0811 -0.3536 -0.1402
  996YOPC   C1A14783   8.346  17.348   6.231  0.3977  0.3987  0.0491
  996YOPC   D2A14784   8.751  17.141   6.346 -0.1511  0.0708  0.0990
  996YOPC   C3A14785   8.938  17.180   6.754 -0.1503 -0.0191  0.0344
  996YOPC   C4A14786   9.062  17.164   7.166 -0.2924  0.1754 -0.0471
  996YOPC   C1B14787   7.832  16.934   6.717 -0.1430 -0.0629 -0.0298
  996YOPC   C2B14788   7.875  16.998   7.174 -0.2608  0.0018 -0.0212
  996YOPC   D3B14789   8.192  17.079   7.445 -0.0430 -0.0393 -0.0695
  996YOPC   C4B14790   8.576  17.182   7.236 -0.0756 -0.5352 -0.0267
  997YOPC   NC314791  10.585  18.460   5.531  0.0062  0.0799  0.0719
  997YOPC   PO414792  10.784  18.019   5.510 -0.0485 -0.2779 -0.0818
  997YOPC   GL114793  10.558  17.990   5.846  0.2612  0.0546  0.2223
  997YOPC   GL214794  10.423  17.766   6.197 -0.0096  0.2319  0.0349
  997YOPC   C1A14795  10.364  18.208   6.170  0.1265 -0.0391  0.0335
  997YOPC   D2A14796  10.021  18.555   6.370 -0.1220  0.2225  0.0539
  997YOPC   C3A14797   9.802  18.622   6.752  0.1579 -0.1752 -0.2339
  997YOPC   C4A14798   9.524  18.534   7.161  0.1048 -0.1988  0.2113
  997YOPC   C1B14799  10.482  17.629   6.659  0.3297  0.3821  0.0712
  997YOPC   C2B14800  10.450  17.584   7.067 -0.4186  0.0580  0.2061
  997YOPC   D3B14801  10.187  17.779   7.456  0.3347 -0.0423 -0.2526
  997YOPC   C4B14802  10.232  17.924   7.872 -0.0961 -0.0358  0.0734
  998YOPC   NC314803   2.585   5.206   5.509  0.0118  0.0036 -0.1706
  998YOPC   PO414804   2.917   5.431   5.585  0.0609  0.0827 -0.0453
  998YOPC   GL114805   2.858   5.193   5.987  0.1786  0.1791  0.0705
  998YOPC   GL214806   2.502   5.065   6.024 -0.1915 -0.2224 -0.2926
  998YOPC   C1A14807   2.971   4.760   6.143 -0.3560  0.1670  0.0591
  998YOPC   D2A14808   3.084   4.455   6.262 -0.0724  0.1368 -0.3139
  998YOPC   C3A14809   3.234   4.240   6.653 -0.1477 -0.0708  0.1880
  998YOPC   C4A14810   3.192   4.218   7.065 -0.2576  0.0869  0.2207
  998YOPC   C1B14811   2.346   4.991   6.417  0.1437 -0.1078 -0.0045
  998YOPC   C2B14812   2.486   4.912   6.781  0.1185 -0.0269  0.1984
  998YOPC   D3B14813   2.274   4.733   7.173 -0.1305  0.1099 -0.4641
  998YOPC   C4B14814   1.948   5.033   7.355 -0.0385 -0.2342  0.3786
  999YOPC   NC314815   6.063  14.526   5.549 -0.3092  0.1249  0.0952
  999YOPC   PO414816   6.528  14.576   5.524  0.0352 -0.0786  0.1454
  999YOPC   GL114817   6.302  14.437   5.948  0.1107 -0.0173  0.0012
  999YOPC   GL214818   6.270  14.118   5.932  0.2147  0.1722  0.1954
  999YOPC   C1A14819   6.140  14.494   6.401 -0.1734 -0.0931 -0.1002
  999YOPC   D2A14820   6.338  14.522   6.819  0.0935 -0.1285 -0.2805
  999YOPC   C3A14821   6.768  14.317   6.874 -0.1672  0.0432  0.1400
  999YOPC   C4A14822   7.261  14.232   6.934 -0.0611  0.0936  0.0637
  999YOPC   C1B14823   6.262  13.946   6.274 -0.1625 -0.0286 -0.0492
  999YOPC   C2B14824   6.124  13.546   6.415 -0.1228 -0.0084 -0.0839
  999YOPC   D3B14825   6.078  13.313   6.774 -0.1545  0.1294 -0.2583
  999YOPC   C4B14826   6.142  13.322   7.197 -0.0373  0.0964  0.1691
 1000YOPC   NC314827   5.546   2.157   5.808  0.0284  0.0286 -0.0093
 1000YOPC   PO414828   5.220   1.952   6.018 -0.0684 -0.0040  0.2729
 1000YOPC   GL114829   4.930   1.880   6.276 -0.2000  0.0880 -0.0145
 1000YOPC   GL214830   4.739   1.617   6.210  0.2613 -0.2049 -0.0883
 1000YOPC   C1A14831   4.512   1.903   6.487 -0.0611  0.0714 -0.4521
 1000YOPC   D2A14832   4.490   1.792   6.853  0.1590  0.0249 -0.0704
 1000YOPC   C3A14833   4.362   2.031   7.119 -0.0242  0.0780 -0.0288
 1000YOPC   C4A14834   4.554   1.993   7.480  0.2111  0.1242 -0.0786
 1000YOPC   C1B14835   4.866   1.463   6.600 -0.1925  0.0529 -0.0026
 1000YOPC   C2B14836   4.987   1.373   6.928  0.1745  0.0112 -0.0371
 1000YOPC   D3B14837   4.747   1.323   7.154 -0.1913 -0.0906 -0.0234
 1000YOPC   C4B14838   4.746   1.363   7.487 -0.0577 -0.2264  0.0157
 1001YOPC   NC314839  18.230  13.747   5.536 -0.0955 -0.0622 -0.0088
 1001YOPC   PO414840  18.015  13.357   5.635 -0.4250  0.1844 -0.0372
 1001YOPC   GL114841  18.063  13.509   6.025 -0.0639  0.0128 -0.1457
 1001YOPC   GL214842  18.368  13.682   6.076  0.5862  0.2432  0.1061
 1001YOPC   C1A14843  17.839  13.474   6.468 -0.4590  0.1279  0.0372
 1001YOPC   D2A14844  17.704  13.472   6.831  0.0245 -0.0767 -0.1363
 1001YOPC   C3A14845  17.790  13.732   7.267  0.1445  0.0920 -0.1566
 1001YOPC   C4A14846  17.851  13.971   7.729  0.0747 -0.0326 -0.1264
 1001YOPC   C1B14847  18.587  13.466   6.456 -0.2536 -0.1101  0.0344
 1001YOPC   C2B14848  18.866  13.245   6.695  0.1098 -0.0659  0.2074
 1001YOPC   D3B14849  18.682  13.214   7.092  0.0224 -0.0672  0.3723
 1001YOPC   C4B14850  18.512  13.158   7.532  0.0781  0.0849  0.0259
 1002YOPC   NC314851   3.988   4.012   5.775  0.2079 -0.2293  0.2386
 1002YOPC   PO414852   4.117   4.414   5.869  0.2357 -0.1037  0.0874
 1002YOPC   GL114853   4.063   4.393   6.291 -0.0149  0.1355  0.0204
 1002YOPC   GL214854   4.142   4.684   6.432 -0.2502  0.1256 -0.0052
 1002YOPC   C1A14855   4.370   4.213   6.480  0.1379 -0.1760 -0.1686
 1002YOPC   D2A14856   4.243   4.253   6.924 -0.1485 -0.1094 -0.1384
 1002YOPC   C3A14857   4.555   4.222   7.184  0.3623  0.2836  0.0963
 1002YOPC   C4A14858   4.734   4.231   7.548 -0.2625  0.4097  0.2296
 1002YOPC   C1B14859   3.962   4.682   6.883  0.1030 -0.3137 -0.3531
 1002YOPC   C2B14860   3.945   4.540   7.243 -0.0497  0.1004 -0.1831
 1002YOPC   D3B14861   3.550   4.512   7.418 -0.0856  0.0741 -0.0673
 1002YOPC   C4B14862   3.550   4.530   7.868 -0.1475 -0.3537  0.2908
 1003YOPC   NC314863   8.359   4.814   5.117 -0.1171  0.1187  0.0399
 1003YOPC   PO414864   8.250   4.388   5.446 -0.1614  0.1147 -0.1789
 1003YOPC   GL114865   8.345   4.219   5.849 -0.1126 -0.0108  0.2766
 1003YOPC   GL214866   8.140   3.949   5.750  0.0917  0.1406 -0.0799
 1003YOPC   C1A14867   8.543   4.176   6.208 -0.3053 -0.0568 -0.2205
 1003YOPC   D2A14868   8.880   4.098   6.483  0.1631 -0.2281  0.0210
 1003YOPC   C3A14869   8.703   4.197   6.818 -0.1059 -0.0552 -0.1107
 1003YOPC   C4A14870   8.715   4.129   7.310  0.1400  0.0893  0.3966
 1003YOPC   C1B14871   8.059   3.969   6.196 -0.1666  0.3166  0.2198
 1003YOPC   C2B14872   8.256   3.656   6.450 -0.1320  0.0529  0.1494
 1003YOPC   D3B14873   8.367   3.488   6.929  0.0188 -0.1839 -0.1334
 1003YOPC   C4B14874   8.210   3.295   7.265  0.0285  0.0181  0.0615
 1004YOPC   NC314875   8.661   7.143   5.519  0.2820 -0.1884  0.0047
 1004YOPC   PO414876   8.313   6.948   5.387  0.2190  0.1520  0.2135
 1004YOPC   GL114877   8.387   6.941   5.904 -0.1278 -0.0801  0.0035
 1004YOPC   GL214878   8.097   6.897   6.101 -0.0121  0.0381  0.1125
 1004YOPC   C1A14879   8.571   7.074   6.273  0.0994 -0.0507 -0.1651
 1004YOPC   D2A14880   8.237   7.204   6.583 -0.0937  0.3305 -0.0915
 1004YOPC   C3A14881   8.278   7.054   6.868  0.1382 -0.3023  0.1440
 1004YOPC   C4A14882   8.217   7.180   7.260 -0.4703 -0.0179  0.0648
 1004YOPC   C1B14883   8.318   6.688   6.398  0.0402  0.2812 -0.0782
 1004YOPC   C2B14884   8.368   6.588   6.872 -0.0167 -0.2112  0.0651
 1004YOPC   D3B14885   8.563   6.705   7.218  0.1515 -0.0555  0.0832
 1004YOPC   C4B14886   8.777   6.478   7.658  0.0256 -0.0532  0.0746
 1005YOPC   NC314887   2.567   9.353   5.642  0.2603  0.0324  0.0802
 1005YOPC   PO414888   2.710   9.021   5.785  0.0887 -0.0893 -0.1641
 1005YOPC   GL114889   2.687   8.909   6.225  0.0672 -0.2647 -0.0128
 1005YOPC   GL214890   2.927   8.990   6.357 -0.2837  0.2929  0.0848
 1005YOPC   C1A14891   2.529   9.007   6.605  0.0169  0.4738 -0.0381
 1005YOPC   D2A14892   2.593   8.860   7.102 -0.1394  0.1696 -0.0799
 1005YOPC   C3A14893   2.482   9.024   7.465  0.1966  0.4274  0.1117
 1005YOPC   C4A14894   2.384   9.388   7.694 -0.4038  0.0048 -0.1945
 1005YOPC   C1B14895   3.003   8.991   6.701  0.0596 -0.0752  0.0218
 1005YOPC   C2B14896   3.067   9.072   7.140 -0.1338 -0.0528 -0.0183
 1005YOPC   D3B14897   3.031   8.769   7.516  0.2200 -0.1973  0.0359
 1005YOPC   C4B14898   3.128   8.295   7.598  0.0408 -0.0567 -0.0996
 1006YOPC   NC314899  11.783   1.154   5.241  0.3501  0.2632 -0.4483
 1006YOPC   PO414900  12.066   0.865   5.212 -0.2544  0.0263 -0.0134
 1006YOPC   GL114901  11.726   0.808   5.575 -0.0443 -0.0282 -0.0580
 1006YOPC   GL214902  11.510   0.577   5.619  0.0414 -0.1334  0.0718
 1006YOPC   C1A14903  11.540   0.999   5.951 -0.0878 -0.0924  0.0436
 1006YOPC   D2A14904  11.834   1.156   6.365  0.4361 -0.1356 -0.2959
 1006YOPC   C3A14905  11.823   0.981   6.876  0.2811 -0.1213 -0.0279
 1006YOPC   C4A14906  12.084   0.730   7.131 -0.2312 -0.1124  0.1596
 1006YOPC   C1B14907  11.767   0.550   5.979  0.1641 -0.0077  0.0911
 1006YOPC   C2B14908  11.865   0.663   6.457 -0.0086  0.1962  0.1334
 1006YOPC   D3B14909  11.792   0.506   6.762  0.0766 -0.1516 -0.0108
 1006YOPC   C4B14910  11.858   0.290   7.228  0.3123 -0.1361 -0.1621
 1007YOPC   NC314911  16.797   3.322   5.112  0.1333  0.0445  0.0777
 1007YOPC   PO414912  16.954   3.319   5.505 -0.0535 -0.1452  0.3124
 1007YOPC   GL114913  16.929   3.261   6.012 -0.2568  0.1005  0.2797
 1007YOPC   GL214914  16.803   3.459   6.203 -0.0855 -0.1034 -0.0501
 1007YOPC   C1A14915  16.921   3.057   6.456  0.1222 -0.1637  0.3016
 1007YOPC   D2A14916  16.966   3.065   6.967 -0.2831  0.0112  0.0514
 1007YOPC   C3A14917  17.024   3.512   7.139 -0.0659 -0.1603 -0.3891
 1007YOPC   C4A14918  17.173   3.914   7.272 -0.1827  0.0878 -0.1025
 1007YOPC   C1B14919  17.052   3.546   6.445  0.1785 -0.3222  0.0785
 1007YOPC   C2B14920  16.924   3.836   6.777 -0.0647 -0.0497 -0.0789
 1007YOPC   D3B14921  16.479   3.757   7.052 -0.1353  0.1970 -0.2621
 1007YOPC   C4B14922  16.153   3.404   7.110 -0.1747  0.0590 -0.1335
 1008YOPC   NC314923   1.608  14.809   5.449  0.1416 -0.2886  0.0075
 1008YOPC   PO414924   1.806  14.466   5.448 -0.1116 -0.1163  0.1465
 1008YOPC   GL114925   1.808  14.512   5.906  0.0072 -0.0509  0.2880
 1008YOPC   GL214926   1.638  14.317   6.185 -0.3186 -0.1838  0.0117
 1008YOPC   C1A14927   1.921  14.885   6.206  0.0950 -0.1865 -0.3188
 1008YOPC   D2A14928   1.699  15.066   6.491 -0.0821 -0.0928 -0.0352
 1008YOPC   C3A14929   1.764  15.448   6.813 -0.0888 -0.0540 -0.1213
 1008YOPC   C4A14930   1.727  15.546   7.255  0.4656 -0.0386  0.0520
 1008YOPC   C1B14931   1.665  14.594   6.510 -0.1107  0.0913 -0.0340
 1008YOPC   C2B14932   1.780  14.610   6.868 -0.0160 -0.0877 -0.0617
 1008YOPC   D3B14933   1.689  14.933   7.073 -0.0096  0.1491 -0.0008
 1008YOPC   C4B14934   1.855  15.100   7.422 -0.4576  0.0514  0.0849
 1009YOPC   NC314935   8.269  15.028   5.344  0.1430  0.1653 -0.0160
 1009YOPC   PO414936   8.454  15.290   5.600 -0.2304 -0.1592 -0.0707
 1009YOPC   GL114937   8.304  15.435   5.988  0.0071 -0.1512 -0.0079
 1009YOPC   GL214938   8.010  15.365   6.162 -0.0458  0.0681  0.1612
 1009YOPC   C1A14939   8.383  15.622   6.373 -0.1007  0.2279  0.1856
 1009YOPC   D2A14940   8.412  15.469   6.855  0.1394 -0.1997 -0.2703
 1009YOPC   C3A14941   8.403  15.297   7.252 -0.2307 -0.0508 -0.0738
 1009YOPC   C4A14942   8.777  15.194   7.511 -0.1628 -0.1710  0.2473
 1009YOPC   C1B14943   7.975  15.530   6.610  0.0062  0.0286 -0.1682
 1009YOPC   C2B14944   7.965  15.541   7.098  0.1654  0.0412  0.0395
 1009YOPC   D3B14945   8.128  15.740   7.420 -0.0782 -0.0992 -0.0785
 1009YOPC   C4B14946   8.482  15.783   7.458  0.1344  0.2802  0.1360
 1010YOPC   NC314947   8.200  12.542   5.983 -0.0690 -0.0156 -0.1238
 1010YOPC   PO414948   8.365  12.099   6.011  0.1726 -0.0625  0.0937
 1010YOPC   GL114949   8.554  12.154   6.287 -0.0491  0.3781  0.2741
 1010YOPC   GL214950   8.810  12.006   6.301  0.0537 -0.0801 -0.0052
 1010YOPC   C1A14951   8.443  12.291   6.790 -0.0229  0.2719 -0.0711
 1010YOPC   D2A14952   8.410  12.236   7.251  0.3595  0.0691 -0.0165
 1010YOPC   C3A14953   8.827  12.199   7.392  0.0674  0.1918  0.0702
 1010YOPC   C4A14954   9.101  12.373   7.636  0.0985 -0.4006 -0.1292
 1010YOPC   C1B14955   9.221  11.938   6.420  0.2395 -0.0854  0.2421
 1010YOPC   C2B14956   9.520  11.944   6.656 -0.0372  0.2032 -0.2532
 1010YOPC   D3B14957   9.543  12.358   6.794 -0.0960  0.0934  0.2804
 1010YOPC   C4B14958   9.276  12.599   6.678 -0.1756 -0.0294 -0.0003
 1011YOPC   NC314959   4.131  17.740   5.773  0.1952 -0.1208  0.0729
 1011YOPC   PO414960   3.740  17.664   5.873 -0.1373 -0.0525  0.1236
 1011YOPC   GL114961   3.857  17.704   6.292  0.0408 -0.2058 -0.0240
 1011YOPC   GL214962   3.772  17.430   6.453  0.1757 -0.0134 -0.0239
 1011YOPC   C1A14963   3.928  18.059   6.545  0.1403 -0.3620 -0.2041
 1011YOPC   D2A14964   3.901  18.461   6.772 -0.0882  0.2360  0.0457
 1011YOPC   C3A14965   3.683  18.555   7.133 -0.1593 -0.2280  0.1031
 1011YOPC   C4A14966   3.427  18.676   7.474  0.0297 -0.0346 -0.0579
 1011YOPC   C1B14967   3.787  17.620   6.809 -0.0424  0.0220  0.2507
 1011YOPC   C2B14968   3.742  17.606   7.142  0.2155  0.1076 -0.0550
 1011YOPC   D3B14969   3.769  17.333   7.463  0.1778  0.2763 -0.5769
 1011YOPC   C4B14970   3.632  16.939   7.660  0.2788  0.0594  0.4644
 1012YOPC   NC314971   3.412   1.642   5.665  0.0457  0.3081 -0.0917
 1012YOPC   PO414972   3.711   1.357   5.506 -0.3997  0.2528  0.1726
 1012YOPC   GL114973   3.763   1.215   5.899  0.1891  0.1426 -0.0176
 1012YOPC   GL214974   3.555   0.970   6.054  0.1572 -0.1578  0.1792
 1012YOPC   C1A14975   4.006   1.223   6.206 -0.1161 -0.3010  0.0343
 1012YOPC   D2A14976   4.356   1.425   6.453  0.4017 -0.0294  0.0575
 1012YOPC   C3A14977   4.348   1.314   6.849  0.0694  0.0729 -0.2365
 1012YOPC   C4A14978   4.303   1.573   7.288  0.2716  0.2125  0.0288
 1012YOPC   C1B14979   3.606   1.031   6.443  0.2901 -0.3901  0.0227
 1012YOPC   C2B14980   3.817   1.200   6.739 -0.0805  0.0142 -0.1632
 1012YOPC   D3B14981   3.610   1.114   7.057  0.2059  0.0130 -0.3169
 1012YOPC   C4B14982   3.680   0.931   7.404 -0.1871  0.0831 -0.1026
 1013YOPC   NC314983   3.899   2.486   5.694  0.1350  0.0422 -0.2156
 1013YOPC   PO414984   4.317   2.505   5.746  0.0848  0.4173  0.2234
 1013YOPC   GL114985   4.433   2.600   6.110  0.3574 -0.2089 -0.2864
 1013YOPC   GL214986   4.406   2.849   6.309  0.1847  0.1182 -0.0654
 1013YOPC   C1A14987   4.507   2.412   6.494  0.0232  0.1643 -0.3064
 1013YOPC   D2A14988   4.786   2.229   6.695 -0.2487  0.0330 -0.0814
 1013YOPC   C3A14989   4.818   2.358   7.148  0.0822  0.2269  0.0717
 1013YOPC   C4A14990   4.854   2.446   7.503 -0.1405 -0.0503  0.0961
 1013YOPC   C1B14991   4.338   2.788   6.712 -0.0198 -0.0520 -0.0779
 1013YOPC   C2B14992   4.390   2.527   6.976 -0.2734  0.1978 -0.1498
 1013YOPC   D3B14993   4.296   2.472   7.472  0.1822  0.0281  0.0853
 1013YOPC   C4B14994   4.243   2.581   7.850  0.5132  0.0718 -0.0919
 1014YOPC   NC314995   4.980  17.161   5.353  0.0458 -0.2065  0.2205
 1014YOPC   PO414996   5.315  16.920   5.618  0.1262 -0.0366 -0.2585
 1014YOPC   GL114997   5.418  16.664   5.949 -0.0206  0.0361 -0.0360
 1014YOPC   GL214998   5.711  16.713   6.124 -0.0402  0.3176 -0.4141
 1014YOPC   C1A14999   5.162  16.679   6.229  0.1445 -0.2033  0.0895
 1014YOPC   D2A15000   4.951  16.915   6.463 -0.0229 -0.1571  0.1179
 1014YOPC   C3A15001   5.066  16.849   6.826 -0.1173  0.0865 -0.0562
 1014YOPC   C4A15002   4.942  16.940   7.294 -0.2120 -0.2914 -0.0686
 1014YOPC   C1B15003   5.552  16.825   6.577 -0.0709  0.0426  0.1266
 1014YOPC   C2B15004   5.547  16.877   7.070  0.2176  0.0192 -0.0813
 1014YOPC   D3B15005   5.773  16.649   7.411  0.1766 -0.1116  0.3188
 1014YOPC   C4B15006   6.162  16.727   7.716 -0.0971  0.2520 -0.1581
 1015YOPC   NC315007  10.450   5.858   5.351 -0.1773  0.0930  0.1989
 1015YOPC   PO415008  10.236   5.759   5.785 -0.4551  0.2483 -0.1605
 1015YOPC   GL115009  10.315   5.684   6.156 -0.2717 -0.2003  0.0608
 1015YOPC   GL215010  10.027   5.671   6.255 -0.3438  0.0006 -0.2886
 1015YOPC   C1A15011  10.302   5.621   6.640 -0.0899 -0.3655 -0.0302
 1015YOPC   D2A15012  10.517   5.646   7.020 -0.1163 -0.3404  0.0344
 1015YOPC   C3A15013  10.369   5.850   7.350  0.2463 -0.2831 -0.0636
 1015YOPC   C4A15014   9.994   6.199   7.440 -0.1226  0.1460 -0.0178
 1015YOPC   C1B15015  10.033   6.058   6.500  0.2835 -0.0784  0.0589
 1015YOPC   C2B15016  10.026   6.366   6.781  0.3676 -0.3827  0.1398
 1015YOPC   D3B15017   9.882   6.797   6.718 -0.1858  0.1495 -0.2032
 1015YOPC   C4B15018   9.754   7.082   7.054  0.2214 -0.0821 -0.2374
 1016YOPC   NC315019   7.415   3.583   5.275  0.0280  0.1021 -0.0173
 1016YOPC   PO415020   7.087   3.311   5.318 -0.4435 -0.0771 -0.1136
 1016YOPC   GL115021   7.237   3.424   5.691 -0.1127 -0.1496 -0.0917
 1016YOPC   GL215022   6.946   3.414   5.872 -0.0593 -0.0381  0.3337
 1016YOPC   C1A15023   7.430   3.359   6.005  0.3419 -0.1242 -0.1179
 1016YOPC   D2A15024   7.771   3.355   6.205  0.0130 -0.1857  0.1626
 1016YOPC   C3A15025   8.130   3.445   5.952 -0.1732 -0.0421 -0.0631
 1016YOPC   C4A15026   8.471   3.700   5.988 -0.2428 -0.0668 -0.0653
 1016YOPC   C1B15027   6.963   3.158   6.225 -0.2552  0.1233 -0.1423
 1016YOPC   C2B15028   6.701   3.184   6.514 -0.0918 -0.1860  0.0353
 1016YOPC   D3B15029   6.794   3.399   6.885  0.0588 -0.1002 -0.1515
 1016YOPC   C4B15030   7.095   3.378   7.203  0.0359  0.0787  0.1272
 1017YOPC   NC315031   5.899   1.135   5.810 -0.2517  0.2762 -0.0959
 1017YOPC   PO415032   5.880   0.632   5.959 -0.2416  0.0014  0.2762
 1017YOPC   GL115033   5.794   0.396   6.284  0.3568 -0.4040 -0.0639
 1017YOPC   GL215034   6.008   0.332   6.527  0.2014  0.1949 -0.0441
 1017YOPC   C1A15035   5.656  -0.014   6.415 -0.1365 -0.1585 -0.3167
 1017YOPC   D2A15036   5.581  -0.189   6.725  0.0217  0.0614  0.1166
 1017YOPC   C3A15037   5.718  -0.208   7.243 -0.0891 -0.2743 -0.0508
 1017YOPC   C4A15038   5.622  -0.392   7.511  0.0806  0.2269 -0.0006
 1017YOPC   C1B15039   5.841   0.246   6.882  0.2997 -0.2193  0.2387
 1017YOPC   C2B15040   5.938   0.263   7.330  0.1078  0.0052  0.1514
 1017YOPC   D3B15041   6.278   0.579   7.409  0.3376  0.1192 -0.1109
 1017YOPC   C4B15042   6.259   0.946   7.384  0.1302 -0.0650  0.0074
 1018YOPC   NC315043   3.567   4.256   5.799  0.1350 -0.0864  0.1543
 1018YOPC   PO415044   3.272   4.012   5.944  0.0155 -0.0366 -0.2403
 1018YOPC   GL115045   2.889   3.893   5.981 -0.1056 -0.2462 -0.2358
 1018YOPC   GL215046   2.697   4.081   5.997 -0.2266 -0.2106  0.1371
 1018YOPC   C1A15047   2.516   3.593   6.269 -0.3417 -0.0447 -0.2322
 1018YOPC   D2A15048   2.394   3.315   6.547  0.1165 -0.2025  0.1793
 1018YOPC   C3A15049   2.331   3.389   6.958 -0.0189  0.1553 -0.0462
 1018YOPC   C4A15050   2.181   3.439   7.357  0.0310  0.0976  0.2419
 1018YOPC   C1B15051   2.814   4.058   6.479 -0.0852  0.1512 -0.0102
 1018YOPC   C2B15052   2.769   4.049   6.861  0.3768  0.1577  0.0816
 1018YOPC   D3B15053   2.641   4.351   7.157 -0.1528 -0.0085 -0.2993
 1018YOPC   C4B15054   2.284   4.348   7.462 -0.0822  0.0533 -0.0779
 1019YOPC   NC315055   7.167   1.814   5.179  0.1236  0.3398 -0.2315
 1019YOPC   PO415056   7.299   2.045   5.496 -0.1454 -0.0698 -0.1606
 1019YOPC   GL115057   7.317   1.945   5.892  0.0792  0.0054  0.0792
 1019YOPC   GL215058   7.598   1.839   5.829  0.3545 -0.1201 -0.1156
 1019YOPC   C1A15059   7.475   1.843   6.326  0.0013  0.0154  0.0372
 1019YOPC   D2A15060   7.303   1.998   6.711 -0.0747  0.2244 -0.0927
 1019YOPC   C3A15061   7.187   1.723   6.950  0.2427 -0.0918  0.0966
 1019YOPC   C4A15062   6.857   1.690   7.302 -0.2598 -0.0915  0.2297
 1019YOPC   C1B15063   7.533   1.402   6.124  0.3911  0.0473 -0.2280
 1019YOPC   C2B15064   7.362   1.395   6.636  0.0762 -0.2293  0.0437
 1019YOPC   D3B15065   7.343   1.246   7.077  0.1325 -0.1921  0.0821
 1019YOPC   C4B15066   7.021   1.206   7.319  0.0546  0.0263  0.0167
 1020YOPC   NC315067  13.081  16.056   5.515 -0.2114 -0.1774 -0.2233
 1020YOPC   PO415068  13.199  15.722   5.757  0.1450  0.3005 -0.0164
 1020YOPC   GL115069  12.900  15.968   5.960 -0.0133 -0.2136 -0.0279
 1020YOPC   GL215070  13.015  16.305   5.942  0.2548  0.0885 -0.0193
 1020YOPC   C1A15071  12.935  16.106   6.505  0.0458 -0.0045 -0.0901
 1020YOPC   D2A15072  13.198  16.274   6.852 -0.0234 -0.1566  0.1265
 1020YOPC   C3A15073  13.334  16.058   7.217  0.3294  0.1068  0.2577
 1020YOPC   C4A15074  13.366  15.820   7.595 -0.1069 -0.0458  0.0332
 1020YOPC   C1B15075  13.296  16.382   6.304  0.0180  0.2971  0.0628
 1020YOPC   C2B15076  13.184  16.723   6.626  0.4108 -0.0542  0.0025
 1020YOPC   D3B15077  12.912  17.031   6.608 -0.0960 -0.2105  0.0001
 1020YOPC   C4B15078  12.696  17.443   6.485  0.0693 -0.0535  0.2511
 1021YOPC   NC315079   7.711   9.019   5.865 -0.3342  0.2305 -0.0147
 1021YOPC   PO415080   7.356   8.715   5.913 -0.0603 -0.0231 -0.0370
 1021YOPC   GL115081   7.630   8.619   6.295 -0.0419 -0.1740  0.0622
 1021YOPC   GL215082   7.921   8.761   6.373  0.2470 -0.0352 -0.0180
 1021YOPC   C1A15083   7.615   8.582   6.770  0.0803  0.0191 -0.2586
 1021YOPC   D2A15084   7.472   8.411   7.077  0.1988 -0.3786 -0.1462
 1021YOPC   C3A15085   7.369   8.661   7.426 -0.0029 -0.0780  0.2437
 1021YOPC   C4A15086   7.370   8.953   7.637 -0.0341  0.2036  0.0290
 1021YOPC   C1B15087   8.090   8.811   6.825 -0.1805 -0.2014  0.0603
 1021YOPC   C2B15088   8.369   8.614   7.031  0.0926  0.0852 -0.1079
 1021YOPC   D3B15089   8.495   8.270   7.269 -0.2743  0.3487 -0.1362
 1021YOPC   C4B15090   8.823   8.186   7.479 -0.0746  0.0537  0.0837
 1022YOPC   NC315091  13.310   4.713   5.287 -0.0625  0.1800 -0.0918
 1022YOPC   PO415092  13.611   4.931   5.478  0.1510 -0.1459  0.0078
 1022YOPC   GL115093  13.554   4.818   5.811  0.2047  0.1548  0.0751
 1022YOPC   GL215094  13.185   4.919   5.736  0.3004 -0.1438 -0.0143
 1022YOPC   C1A15095  13.537   4.815   6.326 -0.0825  0.2596  0.4408
 1022YOPC   D2A15096  13.739   5.201   6.503  0.1994  0.0654  0.0664
 1022YOPC   C3A15097  13.377   5.483   6.644  0.3337 -0.0773  0.0019
 1022YOPC   C4A15098  12.907   5.480   6.698 -0.0286 -0.0413 -0.4481
 1022YOPC   C1B15099  12.974   4.955   6.084  0.0666  0.1449 -0.0547
 1022YOPC   C2B15100  13.083   5.018   6.510 -0.2824  0.1257 -0.0266
 1022YOPC   D3B15101  13.447   4.837   6.836 -0.1243 -0.2108 -0.1476
 1022YOPC   C4B15102  13.526   4.500   7.072 -0.0605 -0.0230 -0.0795
 1023YOPC   NC315103  11.745  14.181   5.758  0.0799  0.4898 -0.0419
 1023YOPC   PO415104  12.179  14.273   5.931  0.0819  0.2066 -0.0433
 1023YOPC   GL115105  12.145  14.423   6.287  0.2249 -0.0273  0.1595
 1023YOPC   GL215106  12.316  14.707   6.410 -0.0024 -0.2534  0.0873
 1023YOPC   C1A15107  11.993  14.525   6.676 -0.2681 -0.1547 -0.3636
 1023YOPC   D2A15108  11.756  14.417   6.972  0.2551 -0.0194  0.1496
 1023YOPC   C3A15109  11.706  14.513   7.398  0.1362  0.1269 -0.1397
 1023YOPC   C4A15110  11.358  14.486   7.685  0.0651  0.1279 -0.0025
 1023YOPC   C1B15111  12.168  15.080   6.700 -0.1223  0.0575  0.1457
 1023YOPC   C2B15112  12.186  15.268   7.000  0.0444 -0.1763 -0.1309
 1023YOPC   D3B15113  12.231  15.092   7.350  0.0034 -0.2191 -0.1120
 1023YOPC   C4B15114  12.151  14.708   7.642  0.0455 -0.1369  0.0290
 1024YOPC   NC315115  14.318   1.845   5.654 -0.1792  0.1787 -0.1329
 1024YOPC   PO415116  14.159   2.238   5.860  0.1570  0.2539 -0.0317
 1024YOPC   GL115117  13.928   2.148   6.193 -0.0642 -0.0477  0.0882
 1024YOPC   GL215118  13.660   2.214   6.068 -0.1573  0.0120  0.1693
 1024YOPC   C1A15119  13.867   2.140   6.590 -0.0243  0.2738 -0.1370
 1024YOPC   D2A15120  13.807   2.203   7.016 -0.1383  0.0778  0.4818
 1024YOPC   C3A15121  14.075   2.094   7.249 -0.0255 -0.3536 -0.0745
 1024YOPC   C4A15122  14.347   2.260   7.657  0.1541 -0.3093 -0.0188
 1024YOPC   C1B15123  13.423   2.312   6.415 -0.2086 -0.0875  0.0798
 1024YOPC   C2B15124  13.272   2.285   6.783 -0.1544 -0.4164  0.0657
 1024YOPC   D3B15125  13.372   2.029   7.142 -0.1509 -0.1686 -0.0944
 1024YOPC   C4B15126  13.235   1.915   7.515 -0.0797 -0.0635 -0.1617
 1025YOPC   NC315127  15.830  14.806   5.721 -0.0878  0.1375 -0.0198
 1025YOPC   PO415128  16.265  14.762   5.778  0.0569 -0.0542  0.2298
 1025YOPC   GL115129  16.311  14.719   6.140  0.1015  0.1286 -0.1958
 1025YOPC   GL215130  16.371  14.936   6.384 -0.1888  0.2291 -0.0159
 1025YOPC   C1A15131  16.288  14.398   6.487  0.3832 -0.2658  0.3319
 1025YOPC   D2A15132  16.250  14.552   6.834  0.3354 -0.1115  0.1657
 1025YOPC   C3A15133  16.584  14.627   7.050  0.0282 -0.1919  0.1567
 1025YOPC   C4A15134  16.684  14.607   7.492  0.1349  0.0450  0.0894
 1025YOPC   C1B15135  16.527  15.041   6.735 -0.0501  0.0830  0.0987
 1025YOPC   C2B15136  16.452  15.234   7.155 -0.3820 -0.3007 -0.2175
 1025YOPC   D3B15137  16.589  15.061   7.610 -0.1394  0.1736  0.0255
 1025YOPC   C4B15138  16.796  15.175   8.037  0.0027  0.0371 -0.0974
 1026YOPC   NC315139   1.790   2.961   5.753  0.0538 -0.1016 -0.0406
 1026YOPC   PO415140   2.032   2.502   5.674 -0.0455 -0.1614  0.1854
 1026YOPC   GL115141   2.242   2.409   6.053  0.0471 -0.0658 -0.1561
 1026YOPC   GL215142   2.044   2.077   6.183 -0.0510 -0.1772 -0.3063
 1026YOPC   C1A15143   2.289   2.485   6.426 -0.3329  0.1079 -0.1168
 1026YOPC   D2A15144   2.322   2.799   6.771 -0.0112  0.3878 -0.2692
 1026YOPC   C3A15145   2.315   2.552   7.261  0.4064  0.1508 -0.0425
 1026YOPC   C4A15146   2.003   2.590   7.573  0.2729  0.1608 -0.1560
 1026YOPC   C1B15147   1.882   2.086   6.537  0.0555 -0.1453  0.2243
 1026YOPC   C2B15148   1.726   2.094   6.878  0.0142  0.0175  0.0787
 1026YOPC   D3B15149   1.884   2.264   7.233 -0.0222 -0.1334  0.1803
 1026YOPC   C4B15150   2.202   2.089   7.482  0.0060  0.2550 -0.1597
 1027YOPC   NC315151   3.033   4.472   5.225 -0.0881  0.1625 -0.1368
 1027YOPC   PO415152   3.409   4.549   5.443  0.0589 -0.1317 -0.0152
 1027YOPC   GL115153   3.419   4.712   5.897  0.2239  0.0820 -0.0244
 1027YOPC   GL215154   3.693   4.702   6.071  0.0472 -0.0895  0.1037
 1027YOPC   C1A15155   3.356   5.099   6.152  0.1605  0.2786 -0.2140
 1027YOPC   D2A15156   3.444   5.333   6.439 -0.0091  0.0429  0.0167
 1027YOPC   C3A15157   3.087   5.512   6.626  0.2112  0.1648  0.1380
 1027YOPC   C4A15158   2.685   5.882   6.648 -0.0863  0.1424  0.1064
 1027YOPC   C1B15159   3.539   4.630   6.519 -0.0043 -0.2876 -0.0783
 1027YOPC   C2B15160   3.501   4.622   6.948  0.0528  0.2450 -0.3192
 1027YOPC   D3B15161   3.496   4.943   7.230  0.1354 -0.0968  0.2791
 1027YOPC   C4B15162   3.153   5.215   7.497 -0.2953 -0.0140  0.0972
 1028YOPC   NC315163  16.739  10.646   5.134 -0.0533  0.2735  0.2902
 1028YOPC   PO415164  17.116  10.915   5.429 -0.1165  0.2226 -0.0708
 1028YOPC   GL115165  17.240  10.761   5.722 -0.1920 -0.0955 -0.0076
 1028YOPC   GL215166  17.413  10.891   5.842  0.0496 -0.1682 -0.1094
 1028YOPC   C1A15167  17.032  10.732   6.233  0.2223  0.1489  0.0967
 1028YOPC   D2A15168  17.130  10.942   6.571 -0.0216 -0.0812  0.1415
 1028YOPC   C3A15169  17.239  10.619   6.851  0.0426 -0.1310  0.0003
 1028YOPC   C4A15170  17.270  10.261   7.034 -0.1358 -0.1985 -0.2498
 1028YOPC   C1B15171  17.486  10.488   6.164  0.0523 -0.0443  0.1430
 1028YOPC   C2B15172  17.627  10.032   6.079  0.0037 -0.0733 -0.0207
 1028YOPC   D3B15173  17.646   9.762   6.431  0.0208  0.1123  0.0320
 1028YOPC   C4B15174  17.541   9.835   6.870 -0.4439 -0.2519 -0.1565
 1029YOPC   NC315175   2.518  18.133   5.177 -0.5584  0.0654  0.1822
 1029YOPC   PO415176   2.925  17.887   5.433  0.1513 -0.1100 -0.1131
 1029YOPC   GL115177   2.909  17.923   5.849 -0.0814  0.2439  0.2292
 1029YOPC   GL215178   3.024  18.156   5.983  0.0426  0.1354  0.2132
 1029YOPC   C1A15179   2.875  17.705   6.372  0.4764 -0.0696 -0.2182
 1029YOPC   D2A15180   2.909  17.689   6.823  0.0169 -0.1000  0.0362
 1029YOPC   C3A15181   2.778  17.927   7.178  0.2002  0.0802 -0.2511
 1029YOPC   C4A15182   3.080  18.287   7.400 -0.0148 -0.2233  0.0123
 1029YOPC   C1B15183   2.971  18.368   6.382 -0.1411 -0.0669  0.1283
 1029YOPC   C2B15184   2.713  18.652   6.396  0.0219 -0.0714  0.2537
 1029YOPC   D3B15185   2.766  18.904   6.767  0.0983  0.1223  0.0141
 1029YOPC   C4B15186   2.875  19.237   6.838 -0.1176 -0.2047 -0.1238
 1030YOPC   NC315187  12.864  12.614   6.024 -0.1463 -0.1870 -0.0915
 1030YOPC   PO415188  12.826  12.189   5.868  0.0628 -0.2481 -0.0339
 1030YOPC   GL115189  12.492  12.211   6.080 -0.1912 -0.0610  0.1657
 1030YOPC   GL215190  12.470  12.476   6.365 -0.2863 -0.3691  0.2477
 1030YOPC   C1A15191  12.538  11.975   6.502  0.1360  0.2210  0.2769
 1030YOPC   D2A15192  12.377  11.937   6.961  0.0285  0.2935 -0.0598
 1030YOPC   C3A15193  12.199  12.084   7.366 -0.0583  0.1569 -0.2170
 1030YOPC   C4A15194  11.715  12.180   7.494 -0.1565 -0.3199 -0.0576
 1030YOPC   C1B15195  12.325  12.505   6.780 -0.0198  0.3113  0.2130
 1030YOPC   C2B15196  12.435  12.529   7.176  0.1480  0.0580  0.2172
 1030YOPC   D3B15197  12.811  12.749   7.316 -0.1049 -0.0382 -0.2348
 1030YOPC   C4B15198  13.257  12.768   7.243  0.0039  0.1203 -0.0316
 1031YOPC   NC315199  11.910   7.934   5.929 -0.1304 -0.4055 -0.2291
 1031YOPC   PO415200  12.031   8.356   5.780 -0.1686 -0.0672  0.1235
 1031YOPC   GL115201  12.295   8.335   6.056 -0.0628 -0.2739 -0.0856
 1031YOPC   GL215202  12.416   8.601   6.129 -0.0512  0.0320 -0.1178
 1031YOPC   C1A15203  12.321   8.273   6.453  0.2476  0.1849 -0.0619
 1031YOPC   D2A15204  12.045   8.237   6.775  0.0157 -0.0119  0.0944
 1031YOPC   C3A15205  12.086   8.452   7.083  0.0459  0.2205  0.1040
 1031YOPC   C4A15206  12.169   8.684   7.446  0.2533  0.1038 -0.0383
 1031YOPC   C1B15207  12.394   8.722   6.550  0.0367  0.2900 -0.1146
 1031YOPC   C2B15208  12.357   8.845   7.018 -0.1778 -0.2693 -0.0778
 1031YOPC   D3B15209  12.604   8.912   7.363 -0.0422 -0.3258  0.2244
 1031YOPC   C4B15210  12.810   8.580   7.661  0.1096  0.0916  0.0665
 1032YOPC   NC315211  18.452   6.845   5.690  0.1249  0.3335  0.0081
 1032YOPC   PO415212  18.313   6.435   5.574  0.2411 -0.0390  0.3802
 1032YOPC   GL115213  18.248   6.311   5.889  0.1073  0.0319 -0.1685
 1032YOPC   GL215214  18.410   6.506   6.052  0.2520  0.0421 -0.0358
 1032YOPC   C1A15215  18.259   5.902   6.076 -0.0625  0.1176 -0.2105
 1032YOPC   D2A15216  18.281   5.581   6.379 -0.0185 -0.1925  0.2191
 1032YOPC   C3A15217  18.241   5.569   6.852 -0.2131 -0.1531  0.1134
 1032YOPC   C4A15218  18.436   5.492   7.276 -0.2900 -0.0261 -0.2486
 1032YOPC   C1B15219  18.069   6.563   6.403  0.0009  0.1752  0.2560
 1032YOPC   C2B15220  17.993   6.650   6.841 -0.1626  0.0208 -0.1005
 1032YOPC   D3B15221  18.123   6.312   7.076 -0.2331 -0.1604  0.1063
 1032YOPC   C4B15222  18.123   5.923   7.176  0.1789  0.1914 -0.6522
 1033YOPC   NC315223   9.652  17.616   5.349 -0.1067 -0.0390 -0.2766
 1033YOPC   PO415224   9.770  17.992   5.634 -0.0127  0.0276 -0.1459
 1033YOPC   GL115225   9.477  18.014   5.974 -0.1213 -0.0200  0.0775
 1033YOPC   GL215226   9.484  18.327   6.250  0.0911 -0.0726 -0.0839
 1033YOPC   C1A15227   9.261  17.860   6.241  0.1133 -0.2647 -0.1671
 1033YOPC   D2A15228   9.158  17.633   6.445  0.1097 -0.2385 -0.0138
 1033YOPC   C3A15229   9.209  17.609   6.853  0.1586 -0.0289  0.1555
 1033YOPC   C4A15230   9.222  17.593   7.377 -0.1729 -0.0273  0.1658
 1033YOPC   C1B15231   9.437  18.199   6.601 -0.3632 -0.1910 -0.1916
 1033YOPC   C2B15232   9.410  18.029   7.020 -0.0524 -0.3108 -0.0453
 1033YOPC   D3B15233   9.435  18.167   7.474  0.0073  0.2660 -0.0384
 1033YOPC   C4B15234   9.414  18.584   7.690  0.0694 -0.3131 -0.3139
 1034YOPC   NC315235   3.662   5.568   5.558 -0.1539 -0.1805  0.0012
 1034YOPC   PO415236   3.918   5.230   5.486  0.0851  0.1914  0.0204
 1034YOPC   GL115237   3.786   5.190   5.917 -0.0221 -0.0269  0.0944
 1034YOPC   GL215238   3.890   5.516   6.066 -0.0088 -0.0441 -0.0906
 1034YOPC   C1A15239   3.844   5.051   6.353  0.0020  0.1951 -0.0788
 1034YOPC   D2A15240   3.687   5.025   6.753 -0.1466  0.3012  0.0301
 1034YOPC   C3A15241   3.224   4.985   6.739 -0.0845  0.0405  0.1268
 1034YOPC   C4A15242   2.861   5.079   6.488 -0.1534 -0.0514  0.3417
 1034YOPC   C1B15243   3.936   5.454   6.554  0.1898  0.0911 -0.1664
 1034YOPC   C2B15244   3.769   5.475   6.957  0.0754 -0.0439  0.0894
 1034YOPC   D3B15245   3.312   5.450   7.039  0.1287  0.0225 -0.3594
 1034YOPC   C4B15246   2.894   5.159   7.073 -0.1527  0.4752 -0.2148
 1035YOPC   NC315247  16.642   9.166   5.816 -0.1689  0.1231 -0.0129
 1035YOPC   PO415248  16.536   8.760   5.649  0.1827 -0.1136 -0.0058
 1035YOPC   GL115249  16.487   8.797   6.139 -0.3032 -0.0690 -0.1684
 1035YOPC   GL215250  16.130   8.931   6.133  0.2842 -0.1399  0.2561
 1035YOPC   C1A15251  16.455   8.942   6.539 -0.0205 -0.2142 -0.1918
 1035YOPC   D2A15252  16.099   8.810   6.814 -0.2065 -0.2425 -0.1855
 1035YOPC   C3A15253  16.198   8.527   7.121 -0.1323  0.0519 -0.0117
 1035YOPC   C4A15254  16.546   8.515   7.380 -0.1534  0.1122  0.0909
 1035YOPC   C1B15255  15.926   9.105   6.471 -0.1386 -0.2880 -0.0803
 1035YOPC   C2B15256  15.995   9.304   6.839  0.1516  0.0858  0.2359
 1035YOPC   D3B15257  16.012   9.686   6.900  0.1407 -0.2593 -0.1240
 1035YOPC   C4B15258  15.925  10.067   6.663  0.1187 -0.0210  0.3261
 1036YOPC   NC315259   7.075   5.823   5.550 -0.0166 -0.1238  0.0347
 1036YOPC   PO415260   6.851   5.537   5.761  0.2523 -0.0985 -0.0491
 1036YOPC   GL115261   6.701   5.926   5.980  0.0345  0.0292 -0.0454
 1036YOPC   GL215262   6.436   5.805   5.859  0.0013  0.4523 -0.0033
 1036YOPC   C1A15263   6.753   6.224   6.204  0.1063 -0.1436 -0.2748
 1036YOPC   D2A15264   6.659   6.244   6.662 -0.0190  0.1283  0.0911
 1036YOPC   C3A15265   6.520   5.880   6.935  0.0540 -0.3018 -0.2486
 1036YOPC   C4A15266   6.440   5.458   6.859 -0.0251  0.0455  0.2257
 1036YOPC   C1B15267   6.341   6.239   5.874  0.0791  0.2055  0.1085
 1036YOPC   C2B15268   6.521   6.642   5.960 -0.2391  0.1364 -0.2651
 1036YOPC   D3B15269   6.364   6.537   6.358 -0.0552 -0.1471  0.1476
 1036YOPC   C4B15270   6.152   6.330   6.722  0.0318 -0.3076 -0.1503
 1037YOPC   NC315271  10.366   7.132   5.527  0.0345 -0.3281  0.2267
 1037YOPC   PO415272  10.754   7.383   5.543  0.3773  0.3223 -0.0280
 1037YOPC   GL115273  10.654   7.183   6.014 -0.1555  0.4275  0.2280
 1037YOPC   GL215274  10.890   7.426   6.061 -0.0958 -0.1966  0.0959
 1037YOPC   C1A15275  10.480   7.163   6.366  0.1556  0.1600  0.0009
 1037YOPC   D2A15276  10.267   7.155   6.642 -0.0434  0.1580  0.0017
 1037YOPC   C3A15277  10.466   7.132   7.168 -0.0712 -0.1824 -0.0796
 1037YOPC   C4A15278  10.526   7.245   7.662  0.0934  0.0775  0.0122
 1037YOPC   C1B15279  11.193   7.452   6.504 -0.2068  0.3487 -0.0552
 1037YOPC   C2B15280  11.136   7.506   6.950  0.1945  0.1663  0.1846
 1037YOPC   D3B15281  10.977   7.233   7.363 -0.2762 -0.1860  0.0892
 1037YOPC   C4B15282  11.064   6.818   7.561 -0.1342  0.1224 -0.1617
 1038YOPC   NC315283   8.964   7.562   5.525  0.0903 -0.2222 -0.1413
 1038YOPC   PO415284   9.176   7.234   5.381 -0.1297  0.3851 -0.1817
 1038YOPC   GL115285   9.141   7.197   5.787  0.1541  0.2375 -0.1331
 1038YOPC   GL215286   8.931   6.932   6.014 -0.0823 -0.1254  0.0338
 1038YOPC   C1A15287   9.237   7.329   6.162 -0.3063  0.2644  0.2430
 1038YOPC   D2A15288   9.259   7.463   6.507 -0.2662  0.4323  0.2443
 1038YOPC   C3A15289   9.302   7.331   6.938 -0.1786  0.1189  0.0377
 1038YOPC   C4A15290   9.529   7.456   7.294  0.0938  0.0104 -0.0176
 1038YOPC   C1B15291   8.908   6.766   6.440  0.2497 -0.0428 -0.2280
 1038YOPC   C2B15292   8.932   6.887   6.898  0.3064 -0.2970 -0.0523
 1038YOPC   D3B15293   9.042   6.674   7.260 -0.3037 -0.0995  0.2324
 1038YOPC   C4B15294   9.287   6.622   7.653  0.1744 -0.2722 -0.0147
 1039YOPC   NC315295  10.491   4.842   5.427 -0.1524  0.0428  0.0562
 1039YOPC   PO415296  10.149   4.644   5.507  0.0827 -0.2299  0.2333
 1039YOPC   GL115297  10.202   4.912   5.857 -0.1500 -0.3331  0.0204
 1039YOPC   GL215298  10.364   5.186   5.841  0.3332 -0.1413 -0.1610
 1039YOPC   C1A15299  10.129   4.870   6.236  0.0928  0.2545 -0.1323
 1039YOPC   D2A15300  10.118   4.515   6.431  0.1046  0.1425  0.2211
 1039YOPC   C3A15301  10.273   4.572   6.742 -0.1854  0.0107 -0.2298
 1039YOPC   C4A15302  10.584   4.550   7.062  0.3574  0.0361  0.0403
 1039YOPC   C1B15303  10.496   5.252   6.257  0.0665  0.1248 -0.3156
 1039YOPC   C2B15304  10.358   5.091   6.667  0.2481  0.1107 -0.1112
 1039YOPC   D3B15305  10.623   5.108   7.053  0.1607  0.1350 -0.1271
 1039YOPC   C4B15306  10.598   5.165   7.513  0.0854  0.0599  0.3204
 1040YOPC   NC315307  12.225  11.264   5.207 -0.2023 -0.0537 -0.1371
 1040YOPC   PO415308  12.676  11.430   5.188  0.0905 -0.0380  0.2051
 1040YOPC   GL115309  12.513  11.478   5.646 -0.0547  0.2319 -0.0537
 1040YOPC   GL215310  12.391  11.736   5.821 -0.0451  0.1821  0.1708
 1040YOPC   C1A15311  12.609  11.306   6.031 -0.2331  0.1555  0.0239
 1040YOPC   D2A15312  12.823  11.086   6.369 -0.3256 -0.3586  0.3016
 1040YOPC   C3A15313  12.956  11.263   6.807 -0.0952 -0.2264  0.2572
 1040YOPC   C4A15314  13.076  11.116   7.273 -0.0951  0.2166  0.3177
 1040YOPC   C1B15315  12.322  11.652   6.205 -0.1416 -0.0885  0.1080
 1040YOPC   C2B15316  12.521  11.444   6.579 -0.0570  0.0125  0.0171
 1040YOPC   D3B15317  12.310  11.457   6.936 -0.1157 -0.2932  0.3545
 1040YOPC   C4B15318  12.282  11.428   7.343 -0.2710 -0.3062 -0.1353
 1041YOPC   NC315319  15.901   6.511   5.400  0.0035  0.0507  0.2183
 1041YOPC   PO415320  15.484   6.231   5.449 -0.2342  0.0873  0.0158
 1041YOPC   GL115321  15.534   5.947   5.814 -0.1985 -0.0495 -0.1558
 1041YOPC   GL215322  15.420   5.888   6.120  0.2240  0.2876  0.1436
 1041YOPC   C1A15323  15.683   6.290   6.253  0.1163  0.2506  0.1033
 1041YOPC   D2A15324  15.734   6.557   6.632  0.0250  0.3653  0.1280
 1041YOPC   C3A15325  16.032   6.635   6.943  0.0099  0.1376 -0.3856
 1041YOPC   C4A15326  16.411   6.490   7.083 -0.0910 -0.0013  0.1159
 1041YOPC   C1B15327  15.510   5.955   6.593 -0.0364  0.0256 -0.4267
 1041YOPC   C2B15328  15.529   6.180   6.976 -0.0885  0.0363 -0.1528
 1041YOPC   D3B15329  15.443   6.266   7.339  0.1203  0.0307 -0.3292
 1041YOPC   C4B15330  15.125   6.170   7.614 -0.1484  0.3007 -0.0298
 1042YOPC   NC315331   9.802  13.771   5.888 -0.2361  0.3707 -0.0816
 1042YOPC   PO415332  10.063  13.412   5.920 -0.0318 -0.1200  0.2815
 1042YOPC   GL115333  10.259  13.510   6.214  0.0567  0.0378 -0.2300
 1042YOPC   GL215334  10.560  13.672   6.308 -0.0108  0.0906  0.1602
 1042YOPC   C1A15335  10.155  13.406   6.595  0.0735 -0.1036  0.0708
 1042YOPC   D2A15336   9.947  13.226   7.022  0.1458  0.0579  0.0435
 1042YOPC   C3A15337  10.028  13.432   7.352  0.0061  0.0620  0.0750
 1042YOPC   C4A15338  10.263  13.389   7.617 -0.1546 -0.2111 -0.0696
 1042YOPC   C1B15339  10.549  13.919   6.615 -0.3007  0.0550 -0.0534
 1042YOPC   C2B15340  10.342  13.797   6.913 -0.1237 -0.1305  0.0989
 1042YOPC   D3B15341  10.485  13.464   7.099  0.3323 -0.0791 -0.0494
 1042YOPC   C4B15342  10.288  13.009   7.261 -0.0928  0.0776 -0.0380
 1043YOPC   NC315343   8.152   6.499   5.752 -0.0304 -0.0299 -0.0078
 1043YOPC   PO415344   7.986   6.131   5.768 -0.1478  0.3110 -0.4697
 1043YOPC   GL115345   7.628   6.050   6.066 -0.0982  0.2086  0.0487
 1043YOPC   GL215346   7.296   6.134   5.928 -0.4788 -0.0096 -0.1391
 1043YOPC   C1A15347   7.583   5.941   6.469  0.0671 -0.1739  0.3007
 1043YOPC   D2A15348   7.642   6.093   6.758  0.1862  0.2769  0.0729
 1043YOPC   C3A15349   7.286   6.390   6.962  0.1592  0.1042 -0.2750
 1043YOPC   C4A15350   7.061   6.400   7.438  0.1644 -0.0746 -0.0973
 1043YOPC   C1B15351   7.147   5.881   6.241 -0.0282  0.4500 -0.0674
 1043YOPC   C2B15352   7.032   5.450   6.210  0.1364  0.2246 -0.3218
 1043YOPC   D3B15353   7.076   5.212   6.525 -0.4516  0.1805 -0.1387
 1043YOPC   C4B15354   7.117   4.879   6.749  0.0529 -0.1337  0.1442
 1044YOPC   NC315355   6.814   2.012   5.698  0.0914 -0.1279 -0.2055
 1044YOPC   PO415356   6.535   1.830   5.865 -0.0376 -0.2684  0.0792
 1044YOPC   GL115357   6.402   1.940   6.285 -0.1994 -0.0170  0.1533
 1044YOPC   GL215358   6.479   2.233   6.219 -0.1318  0.2655  0.0872
 1044YOPC   C1A15359   6.296   1.948   6.750 -0.0640 -0.3212  0.0168
 1044YOPC   D2A15360   6.352   1.722   7.020 -0.5029 -0.1601 -0.0764
 1044YOPC   C3A15361   6.412   1.431   7.306 -0.3017  0.2038 -0.2637
 1044YOPC   C4A15362   6.602   1.251   7.680  0.0701  0.0045 -0.0827
 1044YOPC   C1B15363   6.826   2.259   6.496  0.0827 -0.1015 -0.0832
 1044YOPC   C2B15364   6.783   2.057   6.933 -0.0495  0.1943 -0.0477
 1044YOPC   D3B15365   7.155   2.105   7.228  0.1344  0.1489  0.0151
 1044YOPC   C4B15366   7.411   1.900   7.349  0.1736 -0.1706 -0.2127
 1045YOPC   NC315367  10.763   2.486   4.966  0.1064  0.0702  0.1914
 1045YOPC   PO415368  10.975   2.929   4.865 -0.1772  0.1602  0.0813
 1045YOPC   GL115369  10.937   2.913   5.272 -0.4958  0.3504 -0.0219
 1045YOPC   GL215370  10.636   2.763   5.313  0.1806 -0.1041 -0.1270
 1045YOPC   C1A15371  11.016   2.885   5.664  0.2253  0.0670 -0.2036
 1045YOPC   D2A15372  10.993   2.734   5.949  0.0698  0.2518  0.1581
 1045YOPC   C3A15373  11.175   2.394   5.925 -0.1169  0.0898 -0.1724
 1045YOPC   C4A15374  11.326   2.218   6.365 -0.1198  0.3052 -0.1751
 1045YOPC   C1B15375  10.427   3.030   5.617  0.1220  0.1047 -0.1114
 1045YOPC   C2B15376  10.248   3.077   6.120 -0.3452  0.1606  0.1952
 1045YOPC   D3B15377  10.133   2.796   6.338 -0.1067 -0.0587  0.0348
 1045YOPC   C4B15378  10.117   2.510   6.705  0.1744  0.1173  0.1279
 1046YOPC   NC315379  17.386  14.158   5.572  0.1699 -0.3465 -0.0709
 1046YOPC   PO415380  17.895  14.193   5.566 -0.0844 -0.0132 -0.1588
 1046YOPC   GL115381  17.827  14.036   5.882 -0.0384  0.0167 -0.2506
 1046YOPC   GL215382  17.632  13.816   6.083 -0.0367  0.1866 -0.0502
 1046YOPC   C1A15383  18.015  14.051   6.362 -0.1225  0.1162 -0.2101
 1046YOPC   D2A15384  18.011  13.883   6.741 -0.0371 -0.0266  0.3214
 1046YOPC   C3A15385  18.182  13.499   6.909 -0.0060 -0.0078  0.0014
 1046YOPC   C4A15386  18.207  13.168   7.169 -0.2170  0.1028  0.2177
 1046YOPC   C1B15387  17.556  13.863   6.514  0.0250  0.2364  0.1476
 1046YOPC   C2B15388  17.393  13.901   6.964 -0.2172 -0.0291  0.0769
 1046YOPC   D3B15389  17.413  14.091   7.298  0.0841 -0.0666  0.1533
 1046YOPC   C4B15390  17.306  13.822   7.694  0.0252  0.2070 -0.1020
 1047YOPC   NC315391   3.832  18.132   5.519 -0.3840  0.1647 -0.1150
 1047YOPC   PO415392   4.293  18.305   5.656  0.4115 -0.1108 -0.0261
 1047YOPC   GL115393   4.523  18.028   5.992 -0.1031  0.0473 -0.0162
 1047YOPC   GL215394   4.778  17.899   6.127  0.2767  0.0097 -0.0310
 1047YOPC   C1A15395   4.401  17.800   6.371 -0.0783  0.3526 -0.1514
 1047YOPC   D2A15396   4.397  17.779   6.793  0.0821  0.0934 -0.2723
 1047YOPC   C3A15397   4.117  17.960   6.961  0.0029 -0.1591 -0.1668
 1047YOPC   C4A15398   4.066  18.286   7.299 -0.0300  0.0308 -0.2014
 1047YOPC   C1B15399   4.800  18.005   6.588 -0.1072 -0.0798 -0.1617
 1047YOPC   C2B15400   4.854  17.888   7.049 -0.0821 -0.2389  0.1545
 1047YOPC   D3B15401   4.427  17.925   7.361  0.2246  0.1248  0.0371
 1047YOPC   C4B15402   3.969  17.864   7.565 -0.4137 -0.0374  0.0837
 1048YOPC   NC315403  10.626   9.179   5.544 -0.1351 -0.0213 -0.2152
 1048YOPC   PO415404  10.354   8.910   5.403 -0.1167  0.0876  0.1030
 1048YOPC   GL115405  10.236   8.899   5.853  0.0516  0.1531 -0.1346
 1048YOPC   GL215406  10.152   8.521   5.839 -0.1608  0.0928 -0.1751
 1048YOPC   C1A15407  10.294   8.990   6.271 -0.0709 -0.2473  0.1442
 1048YOPC   D2A15408  10.066   9.022   6.704 -0.0431  0.2437  0.1409
 1048YOPC   C3A15409  10.224   9.118   7.062 -0.1871 -0.1453 -0.2006
 1048YOPC   C4A15410  10.566   9.322   7.242 -0.3531 -0.0542  0.0992
 1048YOPC   C1B15411  10.027   8.247   6.113 -0.0913 -0.1102  0.0336
 1048YOPC   C2B15412   9.771   7.839   6.057  0.2438  0.4114  0.0486
 1048YOPC   D3B15413   9.639   7.709   6.366 -0.3102 -0.1005 -0.1750
 1048YOPC   C4B15414   9.800   7.341   6.620 -0.2757  0.0817  0.0283
 1049YOPC   NC315415   3.255   8.772   5.586  0.1899 -0.2205 -0.1949
 1049YOPC   PO415416   3.225   8.918   5.908 -0.4448  0.3691  0.0133
 1049YOPC   GL115417   3.484   8.967   6.272 -0.4515  0.0104 -0.1203
 1049YOPC   GL215418   3.629   8.688   6.374  0.0268  0.2995  0.4427
 1049YOPC   C1A15419   3.881   9.120   6.624  0.1082  0.0821  0.0929
 1049YOPC   D2A15420   4.229   9.083   6.936 -0.0229  0.0056  0.0925
 1049YOPC   C3A15421   4.282   8.927   7.379 -0.1471  0.1745 -0.1626
 1049YOPC   C4A15422   4.078   8.569   7.702 -0.2023  0.0226 -0.1914
 1049YOPC   C1B15423   3.427   8.804   6.716  0.0775 -0.1169 -0.1631
 1049YOPC   C2B15424   3.214   8.543   6.975 -0.1299  0.0628 -0.1930
 1049YOPC   D3B15425   3.419   8.499   7.262  0.0250 -0.2280 -0.2150
 1049YOPC   C4B15426   3.631   8.663   7.623 -0.2347  0.4160 -0.0170
 1050YOPC   NC315427  15.970   1.991   5.740  0.2304 -0.2336  0.1668
 1050YOPC   PO415428  16.275   2.263   5.622 -0.0830 -0.0578 -0.4745
 1050YOPC   GL115429  16.436   2.165   5.944 -0.0117 -0.1318 -0.2124
 1050YOPC   GL215430  16.443   1.831   6.033 -0.0872  0.0086 -0.2501
 1050YOPC   C1A15431  16.518   2.290   6.398  0.0400  0.0587 -0.1872
 1050YOPC   D2A15432  16.725   2.557   6.649  0.1860  0.0271 -0.1073
 1050YOPC   C3A15433  16.560   2.886   6.773  0.0298  0.1792 -0.0640
 1050YOPC   C4A15434  16.470   2.899   7.147  0.3762 -0.2276  0.0437
 1050YOPC   C1B15435  16.329   1.854   6.351 -0.0202  0.1846 -0.0656
 1050YOPC   C2B15436  16.219   1.998   6.712 -0.1154 -0.0712 -0.0955
 1050YOPC   D3B15437  16.409   2.253   6.975  0.0769 -0.2983  0.1296
 1050YOPC   C4B15438  16.323   2.518   7.396  0.2183 -0.1051 -0.1533
 1051YOPC   NC315439   6.017  17.885   5.742 -0.0065  0.1850 -0.0486
 1051YOPC   PO415440   5.819  18.336   5.689  0.1723  0.0735 -0.1414
 1051YOPC   GL115441   5.938  18.246   6.157  0.2940  0.3113  0.1081
 1051YOPC   GL215442   5.808  17.973   6.295  0.0235 -0.1255 -0.1338
 1051YOPC   C1A15443   6.057  18.381   6.640  0.2223  0.1849  0.0457
 1051YOPC   D2A15444   6.262  18.185   6.969 -0.0668  0.1494  0.0015
 1051YOPC   C3A15445   6.289  18.354   7.392 -0.1885  0.1071 -0.1705
 1051YOPC   C4A15446   6.125  18.398   7.744  0.3132 -0.0716  0.3835
 1051YOPC   C1B15447   5.784  17.816   6.678 -0.0099 -0.3889  0.1124
 1051YOPC   C2B15448   5.928  17.718   7.045  0.0907  0.0329 -0.0689
 1051YOPC   D3B15449   6.084  17.903   7.439  0.3205  0.0305 -0.1971
 1051YOPC   C4B15450   6.455  18.050   7.783 -0.1579  0.1515 -0.0265
 1052YOPC   NC315451  18.081  15.914   5.723 -0.0339 -0.1723 -0.2946
 1052YOPC   PO415452  18.394  15.933   5.445 -0.3950  0.1248  0.0948
 1052YOPC   GL115453  18.526  15.769   5.914 -0.0310 -0.1941  0.2352
 1052YOPC   GL215454  18.835  15.849   5.983  0.1654 -0.1401  0.0053
 1052YOPC   C1A15455  18.421  15.578   6.457  0.2106 -0.1170  0.1387
 1052YOPC   D2A15456  18.489  15.416   6.868 -0.0710 -0.1197  0.2215
 1052YOPC   C3A15457  18.548  15.656   7.261 -0.1752  0.2386  0.0570
 1052YOPC   C4A15458  18.569  15.746   7.746 -0.2814 -0.1747 -0.0407
 1052YOPC   C1B15459  18.753  16.102   6.302 -0.3463 -0.2043 -0.0369
 1052YOPC   C2B15460  18.762  16.401   6.590 -0.1196  0.1339  0.0736
 1052YOPC   D3B15461  18.417  16.495   6.841 -0.1665 -0.0954 -0.2202
 1052YOPC   C4B15462  18.147  16.802   6.796  0.0877  0.0614 -0.0618
 1053YOPC   NC315463  14.338  10.620   5.501  0.0498  0.2575 -0.1147
 1053YOPC   PO415464  13.868  10.688   5.581 -0.2349 -0.0450  0.3097
 1053YOPC   GL115465  13.912  10.537   5.922 -0.1242  0.1687 -0.1914
 1053YOPC   GL215466  13.789  10.298   5.962 -0.0429  0.0614 -0.0084
 1053YOPC   C1A15467  14.228  10.520   6.223 -0.1208 -0.0788  0.3178
 1053YOPC   D2A15468  14.250  10.461   6.643  0.0204 -0.0528 -0.3423
 1053YOPC   C3A15469  14.236  10.481   7.047 -0.0533 -0.0494  0.0680
 1053YOPC   C4A15470  13.891  10.549   7.354 -0.0610  0.1333  0.3731
 1053YOPC   C1B15471  13.731  10.400   6.393 -0.1991 -0.2048 -0.1398
 1053YOPC   C2B15472  13.796  10.400   6.786 -0.0877  0.4192  0.1960
 1053YOPC   D3B15473  13.445  10.387   7.127 -0.2490 -0.0665  0.0246
 1053YOPC   C4B15474  13.206  10.582   7.424  0.1381  0.0440  0.0698
 1054YOPC   NC315475  14.476  11.575   5.623  0.1144  0.0505 -0.2316
 1054YOPC   PO415476  14.042  11.371   5.573 -0.3380 -0.0137 -0.2346
 1054YOPC   GL115477  13.901  11.309   5.908  0.1899  0.1138  0.4274
 1054YOPC   GL215478  13.710  11.086   5.842  0.1663 -0.0976 -0.0355
 1054YOPC   C1A15479  14.001  11.512   6.265  0.2269 -0.2151  0.1603
 1054YOPC   D2A15480  13.913  11.550   6.667 -0.1882 -0.2502  0.2934
 1054YOPC   C3A15481  14.104  11.385   7.046 -0.0827  0.0296 -0.0296
 1054YOPC   C4A15482  14.377  11.452   7.307  0.3533 -0.3432  0.1646
 1054YOPC   C1B15483  13.515  10.774   6.117  0.0210 -0.0268 -0.0749
 1054YOPC   C2B15484  13.290  10.965   6.450  0.0988  0.0389 -0.1584
 1054YOPC   D3B15485  13.295  10.816   6.866  0.0774  0.2063  0.1807
 1054YOPC   C4B15486  12.921  10.635   7.010 -0.2159  0.1396  0.0104
 1055YOPC   NC315487  11.775  17.966   5.581 -0.3027 -0.2074 -0.0969
 1055YOPC   PO415488  11.376  17.800   5.676 -0.2699  0.1767  0.2090
 1055YOPC   GL115489  11.146  17.883   6.071 -0.0871 -0.4147 -0.0911
 1055YOPC   GL215490  11.342  17.720   6.277 -0.0219  0.0188 -0.1458
 1055YOPC   C1A15491  10.863  18.020   6.365  0.1388  0.0164  0.0529
 1055YOPC   D2A15492  10.536  18.106   6.649 -0.0306 -0.0845 -0.0613
 1055YOPC   C3A15493  10.386  18.569   6.716 -0.0493 -0.2836  0.0794
 1055YOPC   C4A15494  10.313  18.993   6.761 -0.1130  0.0077  0.3416
 1055YOPC   C1B15495  11.093  17.679   6.628  0.0403 -0.0775 -0.1344
 1055YOPC   C2B15496  10.866  17.815   6.932 -0.1428 -0.1881 -0.0342
 1055YOPC   D3B15497  10.819  17.660   7.391 -0.0035 -0.0714  0.2835
 1055YOPC   C4B15498  10.760  17.548   7.894  0.1994 -0.0604 -0.1948
 1056YOPC   NC315499   2.802   0.871   5.824 -0.2762 -0.3145  0.2250
 1056YOPC   PO415500   2.801   1.337   5.716 -0.2258  0.0536 -0.1347
 1056YOPC   GL115501   3.067   1.569   6.072 -0.1482  0.2608 -0.1309
 1056YOPC   GL215502   3.481   1.545   6.184  0.3128  0.1453 -0.0069
 1056YOPC   C1A15503   2.959   1.789   6.423  0.0244 -0.1021 -0.3023
 1056YOPC   D2A15504   2.660   1.663   6.859  0.1075  0.1671 -0.1142
 1056YOPC   C3A15505   2.519   2.016   7.034  0.1471 -0.1983  0.2635
 1056YOPC   C4A15506   2.232   2.323   6.880  0.1138 -0.1105 -0.2302
 1056YOPC   C1B15507   3.393   1.515   6.612 -0.2439  0.2117 -0.0324
 1056YOPC   C2B15508   3.397   1.579   7.117  0.0713 -0.0419  0.0487
 1056YOPC   D3B15509   3.320   1.674   7.477 -0.0844 -0.2148  0.2883
 1056YOPC   C4B15510   3.142   1.852   7.878 -0.2321 -0.3225 -0.0040
 1057YOPC   NC315511   1.659   2.160   5.813  0.0997  0.2994  0.2309
 1057YOPC   PO415512   1.872   1.759   5.851  0.1725 -0.1593 -0.2088
 1057YOPC   GL115513   1.579   1.764   6.212 -0.1963 -0.2282 -0.1732
 1057YOPC   GL215514   1.384   2.127   6.254 -0.1333 -0.0063  0.0351
 1057YOPC   C1A15515   1.457   1.599   6.668  0.1148 -0.1741  0.1199
 1057YOPC   D2A15516   1.317   1.733   7.025 -0.2966  0.1744  0.1586
 1057YOPC   C3A15517   1.263   1.504   7.407 -0.0501 -0.1124 -0.0135
 1057YOPC   C4A15518   1.390   1.376   7.756 -0.0453 -0.0511 -0.2026
 1057YOPC   C1B15519   1.324   2.218   6.604 -0.2020 -0.0440 -0.2471
 1057YOPC   C2B15520   1.096   2.183   7.054 -0.3918 -0.2127  0.2429
 1057YOPC   D3B15521   1.376   2.240   7.398 -0.2127 -0.1977 -0.1330
 1057YOPC   C4B15522   1.638   2.292   7.800  0.0499 -0.1110  0.0397
 1058YOPC   NC315523   0.342   1.168   5.945 -0.1366  0.0331  0.1509
 1058YOPC   PO415524   0.054   1.543   5.958  0.1642 -0.0644  0.1402
 1058YOPC   GL115525  -0.200   1.717   6.215 -0.0026 -0.0684 -0.0268
 1058YOPC   GL215526  -0.348   2.029   6.043 -0.0023  0.5184 -0.0600
 1058YOPC   C1A15527  -0.407   1.664   6.666 -0.2838 -0.1928  0.0748
 1058YOPC   D2A15528  -0.336   1.812   6.995 -0.0784  0.0176 -0.2587
 1058YOPC   C3A15529  -0.389   1.670   7.451  0.0626  0.0314  0.2114
 1058YOPC   C4A15530  -0.384   2.001   7.755 -0.0990  0.4224  0.0642
 1058YOPC   C1B15531  -0.606   1.955   6.339 -0.1783  0.0083  0.0199
 1058YOPC   C2B15532  -0.607   2.116   6.752  0.0934  0.2393  0.2326
 1058YOPC   D3B15533  -0.349   2.482   6.927 -0.0316 -0.0910  0.2841
 1058YOPC   C4B15534  -0.185   2.732   6.770  0.1681  0.3947  0.0060
 1059YOPC   NC315535  14.404  12.407   5.312 -0.0529 -0.1794  0.0497
 1059YOPC   PO415536  14.453  12.064   5.490 -0.0567  0.0423 -0.2624
 1059YOPC   GL115537  14.609  11.979   5.897 -0.0017  0.0853  0.0195
 1059YOPC   GL215538  14.641  12.209   6.166  0.1129  0.0119 -0.0409
 1059YOPC   C1A15539  14.341  11.887   6.304 -0.0446 -0.4030  0.1483
 1059YOPC   D2A15540  14.400  11.704   6.736 -0.0064  0.3038 -0.2145
 1059YOPC   C3A15541  14.320  11.974   7.025 -0.1334  0.0264  0.0767
 1059YOPC   C4A15542  14.431  12.172   7.445 -0.1004  0.0978 -0.3414
 1059YOPC   C1B15543  14.851  12.223   6.615  0.1076  0.1248 -0.0532
 1059YOPC   C2B15544  14.702  12.457   6.931  0.0604 -0.0583 -0.1772
 1059YOPC   D3B15545  14.796  12.481   7.291  0.2175 -0.0733 -0.0694
 1059YOPC   C4B15546  14.842  12.656   7.727  0.1098  0.2083 -0.0674
 1060YOPC   NC315547  17.383   3.188   5.660 -0.1661 -0.4422  0.1400
 1060YOPC   PO415548  17.044   2.831   5.797  0.0654  0.1792 -0.0384
 1060YOPC   GL115549  17.293   2.801   6.090 -0.1297 -0.2701 -0.1405
 1060YOPC   GL215550  17.613   2.687   6.201 -0.1366 -0.1552 -0.0642
 1060YOPC   C1A15551  17.191   2.613   6.479 -0.1459  0.1711 -0.2009
 1060YOPC   D2A15552  17.269   2.625   6.895  0.0263  0.1518  0.0198
 1060YOPC   C3A15553  16.927   2.548   7.122  0.1986 -0.1440  0.0455
 1060YOPC   C4A15554  16.877   2.816   7.516 -0.2028  0.0100 -0.1711
 1060YOPC   C1B15555  17.740   2.622   6.620 -0.1438 -0.2146  0.0031
 1060YOPC   C2B15556  17.770   2.817   7.049 -0.0527  0.2099 -0.1811
 1060YOPC   D3B15557  17.617   2.586   7.364 -0.1223 -0.3186 -0.2289
 1060YOPC   C4B15558  17.606   2.197   7.655  0.4573 -0.0957 -0.1441
 1061YOPC   NC315559  12.176  13.861   5.610  0.0755  0.1835  0.1798
 1061YOPC   PO415560  12.278  13.565   5.814  0.2506 -0.0104  0.0319
 1061YOPC   GL115561  12.341  13.492   6.221 -0.1127  0.0851  0.2463
 1061YOPC   GL215562  12.110  13.506   6.379  0.0236  0.1506 -0.3104
 1061YOPC   C1A15563  12.493  13.496   6.749  0.1252 -0.2099  0.4460
 1061YOPC   D2A15564  12.361  13.464   7.171  0.1144  0.1985 -0.0625
 1061YOPC   C3A15565  12.061  13.327   7.408  0.2774 -0.0673 -0.1846
 1061YOPC   C4A15566  11.818  13.114   7.647  0.1056  0.0699  0.0315
 1061YOPC   C1B15567  11.845  13.658   6.559  0.2810 -0.1488  0.1353
 1061YOPC   C2B15568  11.774  13.599   6.936 -0.1232  0.0327  0.0868
 1061YOPC   D3B15569  11.362  13.464   6.908 -0.0160  0.2708 -0.2631
 1061YOPC   C4B15570  11.103  13.107   6.770 -0.1221 -0.1751  0.1033
 1062YOPC   NC315571  17.472   3.920   5.458  0.3175  0.1194  0.1483
 1062YOPC   PO415572  17.070   4.133   5.600  0.0503 -0.0053  0.0183
 1062YOPC   GL115573  16.975   4.033   6.076  0.0024 -0.0662  0.4768
 1062YOPC   GL215574  16.678   4.065   6.172 -0.1878  0.0274  0.0906
 1062YOPC   C1A15575  17.134   4.139   6.456  0.1234  0.4438 -0.1361
 1062YOPC   D2A15576  17.300   4.178   6.811  0.0364 -0.0145  0.0384
 1062YOPC   C3A15577  17.556   4.230   7.108 -0.0276 -0.1143  0.1945
 1062YOPC   C4A15578  17.952   4.381   7.288 -0.0024 -0.1860 -0.3621
 1062YOPC   C1B15579  16.537   4.187   6.652 -0.2005  0.4054 -0.1106
 1062YOPC   C2B15580  16.208   4.245   7.016  0.1440 -0.0546  0.0978
 1062YOPC   D3B15581  16.195   4.013   7.345 -0.1975  0.1847 -0.0087
 1062YOPC   C4B15582  16.245   3.633   7.557  0.1029  0.2074 -0.0659
 1063YOPC   NC315583  17.676  16.799   5.934  0.1989 -0.2913  0.1753
 1063YOPC   PO415584  17.639  17.234   6.033 -0.1000 -0.3866 -0.1235
 1063YOPC   GL115585  17.757  17.344   6.385 -0.0484 -0.1351  0.0314
 1063YOPC   GL215586  17.461  17.474   6.678  0.3087  0.2030  0.2151
 1063YOPC   C1A15587  17.762  17.136   6.766  0.0477 -0.3529 -0.0387
 1063YOPC   D2A15588  17.795  16.891   7.120 -0.1190  0.1391 -0.3109
 1063YOPC   C3A15589  18.125  16.701   7.347 -0.0926  0.0907 -0.0620
 1063YOPC   C4A15590  18.496  16.666   7.565 -0.0889  0.0871  0.1597
 1063YOPC   C1B15591  17.606  17.566   7.095 -0.1130 -0.0757 -0.0563
 1063YOPC   C2B15592  17.821  17.244   7.517  0.0590  0.1085 -0.0668
 1063YOPC   D3B15593  17.669  17.049   7.845 -0.0140 -0.1656 -0.1464
 1063YOPC   C4B15594  17.681  16.729   7.596 -0.2063 -0.1203 -0.0817
 1064YOPC   NC315595   0.977   8.249   5.868 -0.2536 -0.0751 -0.0052
 1064YOPC   PO415596   1.501   8.125   5.801 -0.0080 -0.0528  0.0226
 1064YOPC   GL115597   1.567   8.216   6.155  0.0339 -0.2908  0.0317
 1064YOPC   GL215598   1.933   8.285   6.192 -0.0150  0.0080  0.0186
 1064YOPC   C1A15599   1.554   7.905   6.495  0.4772  0.0873  0.5217
 1064YOPC   D2A15600   1.540   7.667   6.973 -0.3606 -0.2577 -0.0674
 1064YOPC   C3A15601   1.275   7.686   7.184 -0.1466  0.3748 -0.2412
 1064YOPC   C4A15602   1.078   7.832   7.538  0.0144 -0.2175 -0.3061
 1064YOPC   C1B15603   1.833   8.312   6.624  0.0170 -0.2261 -0.0405
 1064YOPC   C2B15604   1.607   8.349   7.030  0.2637  0.1468  0.1013
 1064YOPC   D3B15605   1.524   8.146   7.389  0.1021 -0.4068 -0.0163
 1064YOPC   C4B15606   1.626   7.825   7.620  0.0890  0.1534 -0.0141
 1065YOPC   NC315607  15.903   7.192   5.393 -0.0038 -0.0667  0.1897
 1065YOPC   PO415608  16.303   7.360   5.453 -0.0067 -0.4148  0.2846
 1065YOPC   GL115609  16.415   7.386   5.914  0.2698 -0.2344  0.0837
 1065YOPC   GL215610  16.783   7.417   5.991  0.4142  0.2509 -0.2247
 1065YOPC   C1A15611  16.370   7.585   6.213  0.0193 -0.3070 -0.1860
 1065YOPC   D2A15612  16.354   8.104   6.296  0.0073 -0.0003  0.3022
 1065YOPC   C3A15613  16.566   8.431   6.572 -0.0329 -0.2058  0.1578
 1065YOPC   C4A15614  16.634   8.634   6.917  0.1010 -0.2338  0.0658
 1065YOPC   C1B15615  16.874   7.436   6.345 -0.0208 -0.0578 -0.1330
 1065YOPC   C2B15616  16.918   7.297   6.723 -0.1816  0.2927  0.0048
 1065YOPC   D3B15617  16.686   7.524   7.108  0.1414  0.1857  0.0542
 1065YOPC   C4B15618  16.647   7.699   7.496 -0.1210 -0.0824 -0.0347
 1066YOPC   NC315619  14.540   6.273   5.174 -0.4996  0.2504 -0.2359
 1066YOPC   PO415620  14.631   6.390   5.604  0.1769  0.2048  0.0844
 1066YOPC   GL115621  14.738   6.481   6.020  0.0882 -0.1856 -0.0026
 1066YOPC   GL215622  14.674   6.223   6.126 -0.3955  0.0258 -0.1462
 1066YOPC   C1A15623  15.083   6.771   6.162  0.0220  0.0381 -0.1575
 1066YOPC   D2A15624  15.484   6.914   6.402  0.1311 -0.0461 -0.0233
 1066YOPC   C3A15625  15.440   7.187   6.613 -0.1385  0.4315 -0.3905
 1066YOPC   C4A15626  15.491   7.521   6.827 -0.2441  0.3651 -0.0176
 1066YOPC   C1B15627  14.653   6.191   6.528  0.0020 -0.1859  0.0380
 1066YOPC   C2B15628  14.508   6.432   6.848  0.2334  0.0696 -0.2680
 1066YOPC   D3B15629  14.236   6.309   7.157  0.2042  0.1356 -0.0221
 1066YOPC   C4B15630  14.174   6.050   7.540  0.0414 -0.1736 -0.1734
 1067YOPC   NC315631   9.245  18.403   5.693  0.7030 -0.2784 -0.1904
 1067YOPC   PO415632   9.013  18.836   5.821  0.0352 -0.4870 -0.1893
 1067YOPC   GL115633   9.048  19.123   6.158  0.2636 -0.1002 -0.0287
 1067YOPC   GL215634   8.755  19.042   6.320 -0.2782  0.1223 -0.0697
 1067YOPC   C1A15635   9.019  19.498   6.517  0.0799  0.0219  0.3798
 1067YOPC   D2A15636   8.994  19.573   6.986 -0.1480 -0.3966  0.0152
 1067YOPC   C3A15637   8.952  19.422   7.355 -0.0367 -0.1984 -0.0285
 1067YOPC   C4A15638   8.825  19.506   7.709 -0.1189  0.0886  0.2467
 1067YOPC   C1B15639   8.814  19.075   6.764  0.2020 -0.0116 -0.1330
 1067YOPC   C2B15640   8.696  19.062   7.196 -0.2612  0.0455 -0.0873
 1067YOPC   D3B15641   8.585  18.765   7.517  0.0319 -0.2036  0.1148
 1067YOPC   C4B15642   8.526  18.450   7.852 -0.1338  0.3287  0.0665
 1068YOPC   NC315643   8.085   9.259   5.418 -0.1729 -0.1251  0.0426
 1068YOPC   PO415644   7.787   9.544   5.626 -0.0617  0.1493 -0.2417
 1068YOPC   GL115645   7.814   9.551   6.087  0.4921  0.1951  0.2334
 1068YOPC   GL215646   7.748   9.276   6.296  0.3523  0.2453 -0.2348
 1068YOPC   C1A15647   7.936   9.754   6.540 -0.1914  0.0785  0.1962
 1068YOPC   D2A15648   7.962   9.844   7.037 -0.0487 -0.2781 -0.2022
 1068YOPC   C3A15649   7.843   9.661   7.481  0.0865  0.0736  0.2659
 1068YOPC   C4A15650   7.909   9.220   7.620 -0.0211  0.2143 -0.0047
 1068YOPC   C1B15651   7.933   9.291   6.788 -0.1643 -0.0828 -0.0605
 1068YOPC   C2B15652   8.149   9.345   7.121  0.3421 -0.0362 -0.0726
 1068YOPC   D3B15653   8.316   9.003   7.307 -0.1748 -0.1008  0.3038
 1068YOPC   C4B15654   8.302   8.856   7.740 -0.1641  0.2159  0.1365
 1069YOPC   NC315655   9.914   7.725   5.032  0.1076 -0.1263 -0.1454
 1069YOPC   PO415656   9.618   7.888   5.064  0.1298 -0.2158 -0.2241
 1069YOPC   GL115657   9.503   7.703   5.435 -0.1392 -0.0700 -0.1357
 1069YOPC   GL215658   9.344   7.932   5.704  0.1771  0.2292 -0.2128
 1069YOPC   C1A15659   9.552   7.482   5.845  0.0104 -0.1988 -0.0656
 1069YOPC   D2A15660   9.882   7.304   6.151 -0.2200  0.4017  0.0289
 1069YOPC   C3A15661   9.936   6.908   6.253  0.1599  0.1538  0.3412
 1069YOPC   C4A15662   9.676   6.494   6.355  0.1003  0.1387  0.1928
 1069YOPC   C1B15663   9.178   7.936   6.064  0.1253  0.2671 -0.0914
 1069YOPC   C2B15664   9.089   7.940   6.510  0.4819  0.0857 -0.0432
 1069YOPC   D3B15665   9.361   7.854   6.760 -0.2939 -0.1996  0.0356
 1069YOPC   C4B15666   9.445   8.020   7.174 -0.0828 -0.0503  0.0239
 1070YOPC   NC315667  15.277  17.622   5.683 -0.0496  0.0688  0.0054
 1070YOPC   PO415668  15.536  17.819   5.880  0.0729 -0.0532 -0.1731
 1070YOPC   GL115669  15.662  17.973   6.252  0.0416 -0.1852 -0.3411
 1070YOPC   GL215670  15.993  18.079   6.316  0.1327  0.1842  0.0883
 1070YOPC   C1A15671  15.544  18.084   6.662  0.0529 -0.1293  0.0350
 1070YOPC   D2A15672  15.429  18.103   7.000  0.1468 -0.1104 -0.0419
 1070YOPC   C3A15673  15.195  18.298   7.177 -0.1040  0.1726  0.1715
 1070YOPC   C4A15674  14.816  18.548   7.258  0.0872  0.0838  0.0156
 1070YOPC   C1B15675  16.304  18.086   6.630  0.0658 -0.0554  0.0171
 1070YOPC   C2B15676  16.695  18.109   6.733 -0.1661  0.1818  0.1567
 1070YOPC   D3B15677  16.775  18.246   7.088  0.0531 -0.1164  0.1195
 1070YOPC   C4B15678  16.746  18.430   7.450 -0.0224  0.5960 -0.2686
 1071YOPC   NC315679  18.208   4.000   5.857 -0.2226  0.3777  0.1728
 1071YOPC   PO415680  17.845   3.759   5.673 -0.3909 -0.0236 -0.2290
 1071YOPC   GL115681  17.692   3.411   5.993 -0.0599  0.0289  0.0386
 1071YOPC   GL215682  17.922   3.208   6.214 -0.2098  0.0037  0.2288
 1071YOPC   C1A15683  17.407   3.265   6.260  0.4355  0.0644 -0.1254
 1071YOPC   D2A15684  17.416   3.050   6.570  0.0627 -0.0726 -0.0350
 1071YOPC   C3A15685  17.414   3.226   6.973 -0.3117 -0.0945  0.1343
 1071YOPC   C4A15686  17.298   3.017   7.286  0.2490 -0.1935  0.2071
 1071YOPC   C1B15687  17.874   3.168   6.580  0.1840  0.0351 -0.2188
 1071YOPC   C2B15688  17.915   3.321   6.998  0.0784  0.2204  0.1028
 1071YOPC   D3B15689  17.802   3.232   7.403  0.0929 -0.1677  0.0425
 1071YOPC   C4B15690  17.894   3.509   7.761  0.2299 -0.0038 -0.0606
 1072YOPC   NC315691   7.596  11.219   5.575  0.1315  0.0236 -0.0078
 1072YOPC   PO415692   7.576  10.922   5.890 -0.0887  0.0886 -0.3373
 1072YOPC   GL115693   7.144  11.075   6.274 -0.1072  0.2743 -0.0940
 1072YOPC   GL215694   6.815  10.972   6.268 -0.0603  0.0717  0.0504
 1072YOPC   C1A15695   7.115  11.094   6.687 -0.0918  0.1920 -0.0928
 1072YOPC   D2A15696   6.755  11.144   6.998 -0.0701 -0.0382 -0.0592
 1072YOPC   C3A15697   6.635  11.175   7.407 -0.0948 -0.0605  0.1709
 1072YOPC   C4A15698   6.666  11.517   7.635 -0.0811 -0.1413 -0.0149
 1072YOPC   C1B15699   6.516  11.308   6.392 -0.3286 -0.0479  0.0093
 1072YOPC   C2B15700   6.305  11.760   6.485  0.0700 -0.2471  0.0193
 1072YOPC   D3B15701   5.990  11.692   6.854 -0.1040  0.1923  0.0193
 1072YOPC   C4B15702   5.722  11.727   7.204 -0.0092  0.0889  0.3657
 1073YOPC   NC315703  11.268  13.865   5.273  0.1512  0.1783  0.1995
 1073YOPC   PO415704  11.625  13.743   5.582 -0.0102 -0.0074  0.2212
 1073YOPC   GL115705  11.467  13.685   6.064  0.1041  0.2578 -0.0865
 1073YOPC   GL215706  11.359  13.908   6.133 -0.2256 -0.0755  0.0003
 1073YOPC   C1A15707  11.440  13.359   6.372 -0.2130  0.1648 -0.0157
 1073YOPC   D2A15708  11.653  13.156   6.628  0.2046 -0.0057 -0.2530
 1073YOPC   C3A15709  12.005  13.206   6.757 -0.0583  0.1805 -0.1589
 1073YOPC   C4A15710  12.288  12.980   7.015  0.0906 -0.1479 -0.3070
 1073YOPC   C1B15711  11.221  13.797   6.543 -0.0332 -0.2055  0.1883
 1073YOPC   C2B15712  10.876  13.560   6.762 -0.0742 -0.2065 -0.0581
 1073YOPC   D3B15713  11.015  13.494   7.260 -0.1604  0.0320  0.1811
 1073YOPC   C4B15714  10.760  13.159   7.449 -0.1584  0.1796 -0.0827
 1074YOPC   NC315715  10.511  15.570   5.509  0.0762  0.1337 -0.2194
 1074YOPC   PO415716  10.426  15.798   5.942  0.2476  0.0758  0.2124
 1074YOPC   GL115717  10.318  15.803   6.301 -0.3832 -0.1654  0.1000
 1074YOPC   GL215718  10.132  15.488   6.256  0.0395 -0.2572  0.1612
 1074YOPC   C1A15719  10.380  15.777   6.630  0.1750  0.0365  0.1722
 1074YOPC   D2A15720  10.567  16.065   6.884  0.1024 -0.3672  0.1452
 1074YOPC   C3A15721  10.327  16.216   7.167  0.1305  0.2551  0.1238
 1074YOPC   C4A15722   9.836  16.260   7.246  0.0180 -0.4371  0.0529
 1074YOPC   C1B15723   9.890  15.485   6.668  0.3505  0.1280  0.0086
 1074YOPC   C2B15724   9.527  15.350   6.935 -0.2253 -0.0959 -0.1449
 1074YOPC   D3B15725   9.539  15.395   7.396  0.1472 -0.1759  0.0840
 1074YOPC   C4B15726   9.428  15.429   7.846  0.0150 -0.1814  0.1262
 1075YOPC   NC315727  11.176   7.320   4.883 -0.1774 -0.0602 -0.3781
 1075YOPC   PO415728  11.345   6.999   5.187 -0.0636  0.1356  0.1065
 1075YOPC   GL115729  11.462   6.964   5.607 -0.0196 -0.2597  0.0112
 1075YOPC   GL215730  11.187   7.043   5.866 -0.3322  0.0799  0.0097
 1075YOPC   C1A15731  11.666   7.057   6.030  0.0783 -0.0726 -0.1133
 1075YOPC   D2A15732  11.778   6.750   6.390  0.2177 -0.0499 -0.0772
 1075YOPC   C3A15733  11.878   6.717   6.662 -0.1612 -0.1760 -0.0337
 1075YOPC   C4A15734  11.906   6.880   7.116 -0.0899  0.0541  0.2841
 1075YOPC   C1B15735  11.088   7.000   6.308  0.2491  0.1389  0.0345
 1075YOPC   C2B15736  10.907   7.098   6.710  0.3053 -0.0249  0.1106
 1075YOPC   D3B15737  11.174   6.915   6.984 -0.1288  0.0054 -0.0562
 1075YOPC   C4B15738  11.507   6.651   7.007  0.1604 -0.1223 -0.1571
 1076YOPC   NC315739  10.697   0.401   5.068 -0.2862  0.2214  0.2207
 1076YOPC   PO415740  10.510   0.494   5.422  0.1465 -0.0099 -0.1312
 1076YOPC   GL115741  10.538   0.390   5.848 -0.1318 -0.2352 -0.1293
 1076YOPC   GL215742  10.327   0.162   5.930 -0.0552 -0.2227 -0.1568
 1076YOPC   C1A15743  10.534   0.644   6.217 -0.0148 -0.1079 -0.2983
 1076YOPC   D2A15744  10.829   0.899   6.661  0.1944 -0.2456 -0.1980
 1076YOPC   C3A15745  10.944   1.006   7.048 -0.0833 -0.0175  0.1419
 1076YOPC   C4A15746  11.037   1.321   7.313 -0.3893 -0.3092 -0.1054
 1076YOPC   C1B15747  10.521   0.142   6.236  0.1474 -0.1484 -0.3325
 1076YOPC   C2B15748  10.869  -0.039   6.491  0.0769  0.2361  0.0316
 1076YOPC   D3B15749  10.759  -0.197   6.982  0.0984 -0.2882 -0.0546
 1076YOPC   C4B15750  10.527  -0.425   7.287  0.0551  0.0069 -0.0084
 1077YOPC   NC315751  14.685   7.376   5.578  0.1206  0.0318  0.1125
 1077YOPC   PO415752  14.293   7.284   5.532  0.1663  0.1006 -0.1974
 1077YOPC   GL115753  14.154   7.356   5.968  0.1746 -0.2815 -0.3156
 1077YOPC   GL215754  14.281   7.747   5.879 -0.0046  0.1210 -0.0632
 1077YOPC   C1A15755  13.886   7.398   6.126 -0.1883 -0.1492  0.0278
 1077YOPC   D2A15756  13.994   7.396   6.542 -0.0679  0.2076  0.3130
 1077YOPC   C3A15757  13.985   7.203   6.971 -0.1194  0.1608  0.1632
 1077YOPC   C4A15758  14.021   7.208   7.460  0.0343  0.0874 -0.1204
 1077YOPC   C1B15759  14.138   7.809   6.237  0.2452  0.0823  0.0693
 1077YOPC   C2B15760  13.773   7.830   6.528 -0.1591  0.0279  0.3877
 1077YOPC   D3B15761  13.721   8.213   6.779  0.0474  0.1231 -0.1981
 1077YOPC   C4B15762  13.751   8.561   6.634 -0.0282 -0.0719  0.1614
 1078YOPC   NC315763  13.267  14.724   5.192 -0.3572 -0.1878 -0.1210
 1078YOPC   PO415764  13.242  14.817   5.681 -0.0133 -0.1668  0.3376
 1078YOPC   GL115765  13.551  14.813   6.162 -0.1373 -0.2716  0.0053
 1078YOPC   GL215766  13.852  14.914   6.197 -0.1064  0.2040 -0.2863
 1078YOPC   C1A15767  13.525  14.704   6.623  0.0060 -0.2016  0.0299
 1078YOPC   D2A15768  13.545  14.477   7.014 -0.1530 -0.1647  0.0407
 1078YOPC   C3A15769  13.652  14.788   7.420  0.0985 -0.1108  0.2870
 1078YOPC   C4A15770  13.371  14.882   7.787  0.1427  0.0237  0.1973
 1078YOPC   C1B15771  13.998  14.794   6.542 -0.0915 -0.1220 -0.1637
 1078YOPC   C2B15772  14.300  14.928   6.788  0.1628  0.3609  0.2487
 1078YOPC   D3B15773  14.638  15.058   6.587  0.0073  0.1604 -0.0465
 1078YOPC   C4B15774  15.131  15.193   6.448 -0.0941 -0.0616 -0.1630
 1079YOPC   NC315775  10.939  14.905   5.892 -0.2003  0.3383 -0.2211
 1079YOPC   PO415776  10.555  14.805   5.793  0.1868  0.2484 -0.0516
 1079YOPC   GL115777  10.706  14.702   6.283  0.0485 -0.0878 -0.0324
 1079YOPC   GL215778  10.771  15.048   6.373  0.2441 -0.0156 -0.0885
 1079YOPC   C1A15779  10.736  14.609   6.632 -0.0663 -0.3192  0.0815
 1079YOPC   D2A15780  10.737  14.605   7.071 -0.2979 -0.2169 -0.2720
 1079YOPC   C3A15781  11.030  14.954   7.440  0.0038 -0.0485  0.2218
 1079YOPC   C4A15782  11.095  15.260   7.860  0.1674 -0.1210 -0.0218
 1079YOPC   C1B15783  10.526  15.253   6.531 -0.0325  0.1801  0.0926
 1079YOPC   C2B15784  10.401  15.371   6.904  0.1108 -0.0806  0.1263
 1079YOPC   D3B15785  10.425  15.639   7.169  0.2409  0.0406  0.1325
 1079YOPC   C4B15786  10.618  15.939   7.391  0.0626 -0.1310 -0.3479
 1080YOPC   NC315787   3.328  12.231   5.618 -0.0289  0.0626  0.1130
 1080YOPC   PO415788   2.904  12.472   5.721 -0.0985 -0.2012  0.2075
 1080YOPC   GL115789   2.843  12.259   6.107  0.0200  0.1901  0.4406
 1080YOPC   GL215790   2.569  12.229   6.337  0.0741  0.3030 -0.2948
 1080YOPC   C1A15791   3.023  12.054   6.462 -0.2590 -0.0856 -0.1606
 1080YOPC   D2A15792   3.151  11.961   6.823  0.3165  0.0680  0.0222
 1080YOPC   C3A15793   3.154  11.601   7.118  0.0653 -0.1382  0.2218
 1080YOPC   C4A15794   3.179  11.620   7.545 -0.2759  0.0756 -0.1906
 1080YOPC   C1B15795   2.527  12.242   6.789  0.2683 -0.3150  0.1536
 1080YOPC   C2B15796   2.355  12.224   7.260  0.0674 -0.2233 -0.1481
 1080YOPC   D3B15797   2.626  12.187   7.593  0.1992 -0.0795  0.0955
 1080YOPC   C4B15798   2.866  11.990   7.769 -0.1250  0.1237  0.0651
 1081YOPC   NC315799  17.876   0.308   5.379  0.4356  0.3250 -0.0579
 1081YOPC   PO415800  18.341   0.293   5.658  0.1197 -0.3037 -0.0483
 1081YOPC   GL115801  18.435   0.197   6.119  0.1781  0.0928  0.0292
 1081YOPC   GL215802  18.279   0.516   6.188 -0.2460  0.0774  0.4168
 1081YOPC   C1A15803  18.210   0.029   6.405  0.0526 -0.3890  0.0692
 1081YOPC   D2A15804  18.029   0.004   6.846 -0.0091  0.1345 -0.0010
 1081YOPC   C3A15805  17.658  -0.054   7.228  0.0514  0.0607 -0.1689
 1081YOPC   C4A15806  17.694  -0.145   7.667  0.2376  0.1144  0.0728
 1081YOPC   C1B15807  18.115   0.444   6.600  0.3028  0.0079 -0.1651
 1081YOPC   C2B15808  17.764   0.470   6.745 -0.1707 -0.1589  0.0452
 1081YOPC   D3B15809  17.452   0.861   6.559  0.0263  0.0445  0.0278
 1081YOPC   C4B15810  17.295   0.817   6.065 -0.3264  0.0188  0.0897
 1082YOPC   NC315811  15.786  13.655   5.834  0.0283 -0.1224 -0.2195
 1082YOPC   PO415812  15.502  13.581   6.106 -0.0558 -0.0831  0.0482
 1082YOPC   GL115813  15.283  13.675   6.441  0.0620  0.0891  0.2629
 1082YOPC   GL215814  15.566  13.577   6.688  0.0170 -0.0435  0.0639
 1082YOPC   C1A15815  15.337  14.034   6.795 -0.1460 -0.2629 -0.1953
 1082YOPC   D2A15816  15.372  14.270   7.178 -0.0611 -0.0156 -0.0083
 1082YOPC   C3A15817  15.434  13.927   7.644 -0.0112  0.0758 -0.2575
 1082YOPC   C4A15818  15.664  13.721   7.986  0.1585  0.1649  0.0672
 1082YOPC   C1B15819  15.454  13.261   7.039 -0.0946  0.1027  0.1336
 1082YOPC   C2B15820  15.258  13.259   7.459 -0.0802  0.0433  0.2589
 1082YOPC   D3B15821  14.948  13.568   7.520  0.0262 -0.0663 -0.0104
 1082YOPC   C4B15822  14.701  13.618   7.874 -0.2180  0.0278  0.4531
 1083YOPC   NC315823  14.984   3.340   5.877  0.1009  0.1739 -0.1466
 1083YOPC   PO415824  14.755   3.702   5.665 -0.0620  0.1423  0.0328
 1083YOPC   GL115825  14.644   3.738   6.120 -0.1679  0.3670 -0.1980
 1083YOPC   GL215826  14.875   3.640   6.347  0.0890 -0.2055  0.1707
 1083YOPC   C1A15827  14.511   3.761   6.607  0.3722 -0.2675 -0.2564
 1083YOPC   D2A15828  14.489   3.830   7.098 -0.1255  0.2735 -0.0233
 1083YOPC   C3A15829  14.235   3.506   7.243  0.0469  0.1273  0.2041
 1083YOPC   C4A15830  13.862   3.431   7.493 -0.4488  0.1370 -0.1750
 1083YOPC   C1B15831  15.138   3.790   6.842  0.1749  0.0094 -0.0661
 1083YOPC   C2B15832  15.249   3.939   7.301  0.3961 -0.3086  0.0836
 1083YOPC   D3B15833  15.106   3.737   7.786  0.1912 -0.3117 -0.0987
 1083YOPC   C4B15834  14.902   3.402   8.018  0.1364 -0.0426  0.1563
 1084YOPC   NC315835  17.272  16.840   5.220  0.1022  0.1272 -0.0206
 1084YOPC   PO415836  17.243  16.881   5.718 -0.1188 -0.1314  0.1633
 1084YOPC   GL115837  17.195  16.860   6.189  0.1273 -0.0261 -0.0587
 1084YOPC   GL215838  17.180  17.218   6.331  0.2257 -0.0884  0.0461
 1084YOPC   C1A15839  17.371  16.857   6.643 -0.1921  0.0252  0.0880
 1084YOPC   D2A15840  17.376  17.134   7.062 -0.0858  0.0730 -0.0198
 1084YOPC   C3A15841  17.305  17.068   7.476  0.1385 -0.0264 -0.0660
 1084YOPC   C4A15842  17.136  16.968   7.844  0.0675 -0.0630 -0.2315
 1084YOPC   C1B15843  16.974  17.288   6.678 -0.0035  0.1551 -0.2613
 1084YOPC   C2B15844  16.952  17.394   7.118  0.0760 -0.2295 -0.3045
 1084YOPC   D3B15845  17.228  17.549   7.488 -0.1451  0.0645 -0.2908
 1084YOPC   C4B15846  17.166  18.006   7.737 -0.1113  0.0906  0.3346
 1085YOPC   NC315847  14.082   5.158   5.319 -0.0134  0.0379  0.1118
 1085YOPC   PO415848  14.248   5.541   5.593 -0.1342  0.2193 -0.2228
 1085YOPC   GL115849  14.192   5.619   6.044 -0.2685 -0.0981  0.0529
 1085YOPC   GL215850  14.331   5.838   6.187 -0.1398 -0.1639 -0.0292
 1085YOPC   C1A15851  14.420   5.351   6.306 -0.0033 -0.0264 -0.1399
 1085YOPC   D2A15852  14.452   4.899   6.486 -0.0824  0.0846 -0.2286
 1085YOPC   C3A15853  14.409   4.719   6.923  0.1105  0.0877  0.0215
 1085YOPC   C4A15854  14.406   4.580   7.388  0.1229 -0.1450 -0.0397
 1085YOPC   C1B15855  14.496   5.741   6.601  0.0165 -0.1676  0.1051
 1085YOPC   C2B15856  14.368   5.824   7.042  0.1260  0.2554 -0.0770
 1085YOPC   D3B15857  14.321   5.497   7.232 -0.1493  0.0899 -0.1819
 1085YOPC   C4B15858  14.305   5.138   7.508 -0.2455  0.3322 -0.0488
 1086YOPC   NC315859  16.397  17.299   5.285  0.2684 -0.0879 -0.1789
 1086YOPC   PO415860  16.340  17.269   5.795  0.1328 -0.0118  0.0171
 1086YOPC   GL115861  16.335  17.187   6.240 -0.0437 -0.0792  0.0567
 1086YOPC   GL215862  16.277  16.886   6.248 -0.2266 -0.4031 -0.1048
 1086YOPC   C1A15863  16.445  17.196   6.680 -0.3889 -0.3565  0.0387
 1086YOPC   D2A15864  16.275  17.141   6.986  0.0351 -0.2622 -0.1414
 1086YOPC   C3A15865  16.328  17.390   7.312 -0.0243 -0.0564  0.3381
 1086YOPC   C4A15866  16.288  17.668   7.615  0.3423  0.0429 -0.1680
 1086YOPC   C1B15867  16.235  16.719   6.706  0.3697 -0.0874 -0.2333
 1086YOPC   C2B15868  16.180  16.623   7.183 -0.2813  0.1847  0.2109
 1086YOPC   D3B15869  16.234  16.803   7.485 -0.0253 -0.2169  0.0814
 1086YOPC   C4B15870  16.273  17.174   7.746  0.0028  0.0396 -0.0189
 1087YOPC   NC315871   7.807   2.222   5.422 -0.0635  0.3125  0.1624
 1087YOPC   PO415872   7.538   2.523   5.443  0.1170  0.0325 -0.0240
 1087YOPC   GL115873   7.555   2.541   5.915  0.0196  0.1302  0.0531
 1087YOPC   GL215874   7.772   2.317   5.975  0.2396  0.1056 -0.2308
 1087YOPC   C1A15875   7.409   2.799   6.230  0.0737 -0.2660  0.1990
 1087YOPC   D2A15876   7.323   3.023   6.545 -0.1069 -0.0085 -0.0989
 1087YOPC   C3A15877   7.260   2.841   6.882 -0.0593  0.3052  0.1142
 1087YOPC   C4A15878   7.395   2.549   7.153 -0.4222  0.0447 -0.1031
 1087YOPC   C1B15879   7.993   2.463   6.336 -0.1179  0.0481 -0.1883
 1087YOPC   C2B15880   8.330   2.558   6.479 -0.2817  0.1527 -0.1768
 1087YOPC   D3B15881   8.410   2.213   6.649 -0.0679 -0.0495 -0.3806
 1087YOPC   C4B15882   8.402   1.770   6.557  0.2920  0.0686 -0.4149
 1088YOPC   NC315883   5.458  10.117   5.968  0.1383 -0.0161  0.0313
 1088YOPC   PO415884   5.331   9.638   6.005  0.2665 -0.1311  0.1936
 1088YOPC   GL115885   5.259   9.843   6.396 -0.2562  0.1616  0.2156
 1088YOPC   GL215886   5.005  10.013   6.390 -0.2739  0.0615 -0.0817
 1088YOPC   C1A15887   5.116   9.784   6.798  0.3851 -0.2689  0.1142
 1088YOPC   D2A15888   5.109   9.799   7.262 -0.0264  0.0956 -0.1239
 1088YOPC   C3A15889   5.476   9.649   7.447 -0.0446 -0.0893  0.4373
 1088YOPC   C4A15890   5.761   9.705   7.860 -0.3059 -0.1022  0.0051
 1088YOPC   C1B15891   4.653   9.923   6.672 -0.0482  0.2492  0.1575
 1088YOPC   C2B15892   4.605   9.882   7.164  0.2520  0.0329  0.0670
 1088YOPC   D3B15893   4.625  10.249   7.456  0.1161  0.1124  0.1707
 1088YOPC   C4B15894   4.677  10.434   7.868  0.0865  0.1795 -0.0969
 1089YOPC   NC315895  11.966  10.225   5.151 -0.3279  0.0193  0.2811
 1089YOPC   PO415896  11.880   9.720   5.114  0.4784  0.0386 -0.2179
 1089YOPC   GL115897  12.168   9.897   5.531  0.2168  0.1131 -0.0223
 1089YOPC   GL215898  12.105   9.714   5.810  0.1395  0.0358 -0.0033
 1089YOPC   C1A15899  12.484  10.015   5.723 -0.1976 -0.1761  0.0907
 1089YOPC   D2A15900  12.463  10.256   6.069  0.0810  0.5242 -0.0664
 1089YOPC   C3A15901  12.863  10.134   6.165 -0.0706  0.1254 -0.0471
 1089YOPC   C4A15902  13.301  10.291   6.082 -0.0019 -0.2812 -0.1221
 1089YOPC   C1B15903  12.033  10.032   6.001  0.0291  0.0018 -0.2239
 1089YOPC   C2B15904  12.056  10.350   6.335 -0.2184  0.1555  0.0467
 1089YOPC   D3B15905  11.536  10.394   6.582  0.4957 -0.3397  0.1900
 1089YOPC   C4B15906  11.205  10.464   6.925  0.0439  0.3736  0.4780
 1090YOPC   NC315907   5.161   5.000   5.581  0.3665  0.3678 -0.3427
 1090YOPC   PO415908   4.988   5.339   5.273 -0.0010 -0.0375  0.5716
 1090YOPC   GL115909   5.083   5.637   5.541 -0.1059 -0.0676 -0.0623
 1090YOPC   GL215910   5.040   5.502   5.767  0.1326  0.2589 -0.2464
 1090YOPC   C1A15911   5.421   5.887   5.880  0.0354  0.2987  0.1811
 1090YOPC   D2A15912   5.315   6.103   6.243 -0.1727  0.0990 -0.0267
 1090YOPC   C3A15913   5.205   6.129   6.668  0.0518  0.0692  0.1086
 1090YOPC   C4A15914   5.030   6.348   6.865  0.1553  0.0814  0.1028
 1090YOPC   C1B15915   4.786   5.274   6.059  0.2596 -0.0138  0.0624
 1090YOPC   C2B15916   4.767   5.114   6.461 -0.2712  0.0619 -0.0706
 1090YOPC   D3B15917   4.672   5.240   6.883  0.0881 -0.0991  0.0404
 1090YOPC   C4B15918   4.690   5.314   7.276  0.1658 -0.2612 -0.1611
 1091YOPC   NC315919   0.326   1.422   5.493 -0.1244 -0.1567  0.1351
 1091YOPC   PO415920  -0.169   1.225   5.651  0.4304  0.1977  0.1182
 1091YOPC   GL115921  -0.334   1.147   6.061 -0.1658 -0.1540 -0.2665
 1091YOPC   GL215922  -0.085   1.066   6.230 -0.0218  0.2863  0.0054
 1091YOPC   C1A15923  -0.611   0.947   6.336  0.1094  0.0774 -0.2488
 1091YOPC   D2A15924  -0.824   0.598   6.235 -0.2271  0.4636 -0.2219
 1091YOPC   C3A15925  -0.923   0.211   6.299 -0.1218  0.1066 -0.2422
 1091YOPC   C4A15926  -0.925   0.020   6.669  0.0345  0.0155  0.2309
 1091YOPC   C1B15927  -0.267   1.154   6.675  0.1633 -0.0365 -0.0391
 1091YOPC   C2B15928  -0.638   0.918   6.985 -0.1581 -0.4072 -0.1934
 1091YOPC   D3B15929  -0.558   0.938   7.417  0.0368  0.3266  0.2366
 1091YOPC   C4B15930  -0.718   0.792   7.826 -0.2770  0.1619 -0.0413
 1092YOPC   NC315931  15.812  13.252   5.514  0.0376 -0.1926 -0.2981
 1092YOPC   PO415932  15.863  13.175   6.044 -0.0678 -0.3159  0.0716
 1092YOPC   GL115933  15.629  13.111   6.419  0.0862  0.1239  0.0743
 1092YOPC   GL215934  15.876  13.093   6.538 -0.0911 -0.0177  0.1736
 1092YOPC   C1A15935  15.534  12.855   6.767  0.2885  0.1546  0.1156
 1092YOPC   D2A15936  15.657  12.850   7.152 -0.1219  0.1639  0.0710
 1092YOPC   C3A15937  15.862  13.275   7.380  0.2009 -0.2670  0.1788
 1092YOPC   C4A15938  15.934  13.683   7.539 -0.0854 -0.1265  0.1698
 1092YOPC   C1B15939  16.077  13.068   6.967  0.0250 -0.0330 -0.0288
 1092YOPC   C2B15940  16.251  12.839   7.373  0.0307 -0.1525 -0.1260
 1092YOPC   D3B15941  16.130  12.991   7.726 -0.0924 -0.1202 -0.1736
 1092YOPC   C4B15942  15.701  13.046   7.829 -0.1775 -0.2164 -0.1977
 1093YOPC   NC315943   2.474   7.775   6.050 -0.2987 -0.2201 -0.3207
 1093YOPC   PO415944   2.435   8.167   5.999  0.2375  0.0037 -0.0381
 1093YOPC   GL115945   2.410   8.322   6.437 -0.1814 -0.1538  0.0430
 1093YOPC   GL215946   2.626   8.474   6.374 -0.1346 -0.2641  0.0779
 1093YOPC   C1A15947   2.383   8.184   6.804  0.0301 -0.2106 -0.0170
 1093YOPC   D2A15948   2.477   7.961   7.198 -0.0720  0.2007  0.1715
 1093YOPC   C3A15949   2.762   7.886   7.489  0.1453  0.1951  0.1206
 1093YOPC   C4A15950   3.129   7.676   7.564  0.0077 -0.0275 -0.0761
 1093YOPC   C1B15951   2.790   8.535   6.759 -0.2801  0.1128  0.1096
 1093YOPC   C2B15952   2.693   8.415   7.169 -0.2019 -0.2557 -0.2093
 1093YOPC   D3B15953   2.616   8.494   7.516 -0.3848 -0.1137  0.1354
 1093YOPC   C4B15954   2.393   8.610   7.840  0.0490 -0.1832 -0.1151
 1094YOPC   NC315955   8.147   0.680   5.092 -0.1558 -0.1082  0.0569
 1094YOPC   PO415956   7.976   0.525   5.447  0.0345 -0.0226 -0.0139
 1094YOPC   GL115957   8.066   0.716   5.821 -0.1601  0.3027 -0.1863
 1094YOPC   GL215958   8.240   0.545   6.097  0.2486  0.0392  0.1702
 1094YOPC   C1A15959   7.919   0.948   6.110 -0.3549 -0.2111  0.2205
 1094YOPC   D2A15960   8.174   1.312   6.369 -0.0404 -0.1869 -0.0818
 1094YOPC   C3A15961   7.858   1.510   6.536  0.2970  0.1148  0.0695
 1094YOPC   C4A15962   7.713   1.607   6.960  0.1603 -0.1919 -0.1683
 1094YOPC   C1B15963   8.019   0.569   6.466 -0.2728  0.0650  0.1413
 1094YOPC   C2B15964   7.908   0.538   6.943  0.0551  0.0000  0.0479
 1094YOPC   D3B15965   8.149   0.664   7.272 -0.2662  0.1183  0.1016
 1094YOPC   C4B15966   8.360   0.800   7.701  0.1460 -0.1729 -0.1475
 1095YOPC   NC315967   0.660   4.073   5.520 -0.3132 -0.1288 -0.3109
 1095YOPC   PO415968   0.727   3.761   5.732  0.2333  0.0125 -0.0362
 1095YOPC   GL115969   0.569   4.010   6.029 -0.3304  0.0143  0.0851
 1095YOPC   GL215970   0.848   4.154   6.132 -0.0078  0.1639  0.1196
 1095YOPC   C1A15971   0.386   4.120   6.350 -0.1731 -0.0611 -0.2235
 1095YOPC   D2A15972   0.488   4.355   6.705  0.0667  0.2012 -0.0880
 1095YOPC   C3A15973   0.684   4.456   7.092 -0.0577  0.3554  0.0647
 1095YOPC   C4A15974   0.830   4.283   7.407 -0.0898  0.1401  0.1754
 1095YOPC   C1B15975   1.123   4.190   6.537  0.1898 -0.1359  0.3768
 1095YOPC   C2B15976   1.194   4.119   6.924 -0.0686 -0.0112 -0.1575
 1095YOPC   D3B15977   1.549   4.052   7.012 -0.1007  0.1301 -0.4517
 1095YOPC   C4B15978   1.895   3.964   7.303  0.0456 -0.1547 -0.0909
 1096YOPC   NC315979  13.087   7.388   5.507 -0.1033  0.1606  0.0164
 1096YOPC   PO415980  13.219   7.015   5.535  0.0550 -0.1606 -0.0039
 1096YOPC   GL115981  13.346   6.971   5.955 -0.3158  0.0866 -0.2535
 1096YOPC   GL215982  13.671   6.977   6.034  0.2092 -0.0661 -0.0672
 1096YOPC   C1A15983  13.113   6.894   6.382 -0.0148  0.2220  0.2074
 1096YOPC   D2A15984  12.999   6.521   6.663 -0.0950  0.0873  0.0835
 1096YOPC   C3A15985  12.889   6.581   7.015  0.1602 -0.0211 -0.2159
 1096YOPC   C4A15986  12.778   6.513   7.408 -0.4247  0.0276 -0.1137
 1096YOPC   C1B15987  13.684   6.776   6.387  0.0657  0.1797 -0.1365
 1096YOPC   C2B15988  13.535   6.608   6.693  0.1063  0.2249  0.0008
 1096YOPC   D3B15989  13.263   6.900   6.905 -0.0902  0.2046 -0.0205
 1096YOPC   C4B15990  12.975   7.149   6.815  0.2256 -0.0387 -0.1938
 1097YOPC   NC315991   6.443  11.919   5.657  0.0663  0.0338  0.0615
 1097YOPC   PO415992   6.117  11.919   5.950  0.1803 -0.0406  0.0796
 1097YOPC   GL115993   5.767  11.838   6.210  0.2518 -0.1058 -0.1543
 1097YOPC   GL215994   5.880  12.091   6.418 -0.0621  0.0793  0.3506
 1097YOPC   C1A15995   5.554  11.735   6.625 -0.1037  0.3768 -0.5284
 1097YOPC   D2A15996   5.381  12.016   6.908  0.0316 -0.0119 -0.0553
 1097YOPC   C3A15997   5.293  11.913   7.359  0.1062 -0.1818  0.0106
 1097YOPC   C4A15998   4.971  11.826   7.619 -0.1401 -0.1357 -0.0026
 1097YOPC   C1B15999   5.842  12.141   6.840  0.1497  0.1908  0.1871
 1097YOPC   C2B16000   6.096  12.089   7.241  0.3289  0.0783 -0.3965
 1097YOPC   D3B16001   6.028  12.242   7.702 -0.1351  0.2582  0.0836
 1097YOPC   C4B16002   6.104  12.480   8.040  0.0176  0.1539 -0.1053
 1098YOPC   NC316003   1.736   6.677   5.664  0.0228  0.0806 -0.0047
 1098YOPC   PO416004   1.382   7.031   5.441  0.3034  0.1946  0.0939
 1098YOPC   GL116005   1.230   7.010   5.860 -0.1075  0.4048 -0.1137
 1098YOPC   GL216006   1.121   7.342   5.824 -0.3545 -0.0473 -0.2526
 1098YOPC   C1A16007   1.367   6.841   6.221  0.0257  0.2032  0.0544
 1098YOPC   D2A16008   1.190   6.554   6.573 -0.2635  0.0195 -0.0903
 1098YOPC   C3A16009   1.153   6.525   6.958  0.0294 -0.1183  0.1126
 1098YOPC   C4A16010   1.072   6.711   7.276 -0.1419 -0.0505 -0.3627
 1098YOPC   C1B16011   0.986   7.211   6.253  0.0920 -0.0715 -0.0287
 1098YOPC   C2B16012   1.025   7.006   6.642  0.1481  0.1519  0.0824
 1098YOPC   D3B16013   0.721   6.930   6.960 -0.2734 -0.0219 -0.2140
 1098YOPC   C4B16014   0.323   6.961   7.216  0.1957  0.2692 -0.2533
 1099YOPC   NC316015   8.424   6.373   5.346  0.0004 -0.1231  0.4003
 1099YOPC   PO416016   8.675   6.593   5.757 -0.0134 -0.2049  0.1471
 1099YOPC   GL116017   8.554   6.388   6.120  0.0653  0.0610 -0.1358
 1099YOPC   GL216018   8.293   6.218   6.117  0.1897 -0.2220  0.2524
 1099YOPC   C1A16019   8.634   6.267   6.594  0.0292  0.1141 -0.0155
 1099YOPC   D2A16020   8.589   6.248   7.191  0.0758 -0.0456  0.1448
 1099YOPC   C3A16021   8.333   6.279   7.512 -0.2864 -0.0445  0.2595
 1099YOPC   C4A16022   7.951   6.289   7.756 -0.0831  0.2555  0.2817
 1099YOPC   C1B16023   8.090   6.239   6.448 -0.2659  0.3097 -0.1290
 1099YOPC   C2B16024   8.280   6.070   6.850 -0.1489  0.1020  0.0051
 1099YOPC   D3B16025   8.009   6.300   7.149 -0.0223  0.1809  0.0184
 1099YOPC   C4B16026   7.630   6.255   7.335  0.3440 -0.2059 -0.0350
 1100YOPC   NC316027   6.739  12.541   5.192 -0.1578 -0.1762  0.2199
 1100YOPC   PO416028   6.842  12.891   5.367 -0.1542 -0.3312  0.0263
 1100YOPC   GL116029   6.880  12.847   5.772 -0.0816  0.0325 -0.0142
 1100YOPC   GL216030   7.169  12.594   5.914  0.1633  0.2821  0.0620
 1100YOPC   C1A16031   6.934  13.027   6.178  0.1571  0.1162 -0.0392
 1100YOPC   D2A16032   6.913  12.988   6.598 -0.0901 -0.1244  0.0274
 1100YOPC   C3A16033   7.003  12.615   6.682 -0.2797 -0.0744 -0.1628
 1100YOPC   C4A16034   6.862  12.280   6.956 -0.1320 -0.0153 -0.1917
 1100YOPC   C1B16035   7.328  12.685   6.327  0.0182 -0.2941 -0.0411
 1100YOPC   C2B16036   7.602  12.734   6.727 -0.2273 -0.3529 -0.0544
 1100YOPC   D3B16037   7.273  12.642   7.109  0.1866 -0.1037 -0.1690
 1100YOPC   C4B16038   7.418  12.737   7.625  0.0911 -0.2131  0.1107
 1101YOPC   NC316039   2.151   5.941   5.512 -0.1746 -0.3839  0.1102
 1101YOPC   PO416040   2.420   5.600   5.789 -0.1299  0.0713  0.0535
 1101YOPC   GL116041   2.510   5.621   6.181 -0.1254  0.0743 -0.1557
 1101YOPC   GL216042   2.740   5.567   6.308 -0.2660 -0.1270  0.0332
 1101YOPC   C1A16043   2.173   5.492   6.463 -0.1747 -0.1604  0.0767
 1101YOPC   D2A16044   2.072   5.191   6.806 -0.4886  0.1395  0.0324
 1101YOPC   C3A16045   2.339   5.286   7.139 -0.0839  0.2162 -0.0557
 1101YOPC   C4A16046   2.637   5.406   7.413  0.3115  0.0189  0.1217
 1101YOPC   C1B16047   2.591   5.409   6.741 -0.0302  0.3938 -0.0193
 1101YOPC   C2B16048   2.828   5.678   7.081  0.0723  0.1788 -0.1891
 1101YOPC   D3B16049   2.737   5.888   7.456  0.2482  0.0406 -0.1901
 1101YOPC   C4B16050   2.667   5.732   7.896  0.1553 -0.1616 -0.0969
 1102YOPC   NC316051  16.899   9.910   5.448 -0.2103 -0.2460 -0.1759
 1102YOPC   PO416052  17.099   9.465   5.628 -0.0345 -0.0881  0.0529
 1102YOPC   GL116053  17.063   9.326   6.093  0.0381 -0.0555  0.4428
 1102YOPC   GL216054  16.779   9.301   6.314  0.4063  0.0843 -0.1200
 1102YOPC   C1A16055  17.337   9.310   6.489 -0.1830 -0.0610  0.0693
 1102YOPC   D2A16056  17.461   9.347   6.943 -0.2171  0.0254  0.2707
 1102YOPC   C3A16057  17.527   9.522   7.266 -0.0299 -0.1096  0.2648
 1102YOPC   C4A16058  17.441   9.875   7.363  0.0259  0.1242  0.2678
 1102YOPC   C1B16059  16.869   9.248   6.717  0.0453  0.2550  0.0370
 1102YOPC   C2B16060  16.857   9.131   7.194 -0.0265  0.0768  0.1164
 1102YOPC   D3B16061  16.613   9.415   7.573  0.0975 -0.0242  0.1909
 1102YOPC   C4B16062  16.739   9.518   7.934  0.0840 -0.2826 -0.3387
 1103YOPC   NC316063  14.354   7.794   5.304 -0.0566  0.0380 -0.1683
 1103YOPC   PO416064  14.254   8.112   5.590 -0.0466 -0.0494 -0.1851
 1103YOPC   GL116065  14.339   8.232   5.928  0.0653 -0.1487  0.0493
 1103YOPC   GL216066  14.656   8.300   5.924  0.2636  0.1996 -0.0933
 1103YOPC   C1A16067  14.512   8.472   6.360  0.2747 -0.2085  0.1532
 1103YOPC   D2A16068  14.587   8.853   6.678 -0.0785  0.0144  0.2600
 1103YOPC   C3A16069  14.691   8.826   7.071  0.2778  0.2209 -0.0515
 1103YOPC   C4A16070  14.453   8.751   7.496 -0.1485  0.0328 -0.1788
 1103YOPC   C1B16071  14.667   7.979   6.260  0.2319 -0.1634 -0.0497
 1103YOPC   C2B16072  14.443   7.975   6.645 -0.1392 -0.1114  0.1288
 1103YOPC   D3B16073  14.113   7.823   6.852 -0.0445  0.3055  0.0442
 1103YOPC   C4B16074  13.983   7.623   7.240 -0.3182  0.1098  0.1717
 1104YOPC   NC316075   0.593  11.402   5.795  0.0934 -0.2492  0.1306
 1104YOPC   PO416076   0.171  11.434   5.637  0.1437 -0.0359 -0.0862
 1104YOPC   GL116077   0.128  11.474   6.005 -0.2313  0.1287 -0.1286
 1104YOPC   GL216078   0.288  11.388   6.194  0.0166 -0.1674 -0.2765
 1104YOPC   C1A16079  -0.238  11.496   6.304 -0.4532 -0.3425  0.0183
 1104YOPC   D2A16080  -0.620  11.534   6.416  0.1650  0.4318  0.3858
 1104YOPC   C3A16081  -0.699  11.584   6.870  0.2960  0.1767  0.0656
 1104YOPC   C4A16082  -0.964  11.506   7.318  0.0831 -0.0028 -0.1327
 1104YOPC   C1B16083   0.303  11.308   6.595  0.0499 -0.1728 -0.1524
 1104YOPC   C2B16084   0.318  11.258   7.033  0.1368 -0.1855  0.3354
 1104YOPC   D3B16085   0.283  10.887   7.278  0.2852  0.1584 -0.1019
 1104YOPC   C4B16086   0.035  10.745   7.505  0.1505 -0.0257  0.1686
 1105YOPC   NC316087   7.011   9.848   5.494  0.3289  0.0534 -0.4969
 1105YOPC   PO416088   6.872  10.286   5.683  0.0742  0.0033 -0.0219
 1105YOPC   GL116089   6.738   9.976   6.002  0.1688  0.1103  0.0040
 1105YOPC   GL216090   7.028  10.079   6.060 -0.3546 -0.3307 -0.2055
 1105YOPC   C1A16091   6.696   9.590   6.277  0.3791 -0.0093  0.1852
 1105YOPC   D2A16092   6.600   9.482   6.678 -0.0093  0.0298 -0.1007
 1105YOPC   C3A16093   6.556   9.705   7.113 -0.2494 -0.2878  0.1251
 1105YOPC   C4A16094   6.550   9.770   7.553  0.3583  0.2595 -0.1338
 1105YOPC   C1B16095   7.208  10.192   6.458 -0.1684  0.2027 -0.2791
 1105YOPC   C2B16096   7.143  10.222   6.857 -0.2615  0.0589  0.0419
 1105YOPC   D3B16097   6.740  10.187   7.025 -0.2057 -0.0254 -0.2161
 1105YOPC   C4B16098   6.327  10.240   7.254  0.0526  0.3024  0.0487
 1106YOPC   NC316099   3.301   0.636   5.154 -0.1686 -0.0204  0.3387
 1106YOPC   PO416100   3.217   0.658   5.603  0.1283  0.1199  0.3365
 1106YOPC   GL116101   3.186   0.645   6.024 -0.2326  0.2003  0.0590
 1106YOPC   GL216102   2.829   0.625   6.275  0.3411 -0.0122 -0.0269
 1106YOPC   C1A16103   3.221   0.605   6.503 -0.1878 -0.1577  0.2609
 1106YOPC   D2A16104   3.407   0.732   6.840  0.0600 -0.0150  0.1829
 1106YOPC   C3A16105   3.219   0.696   7.239  0.4085 -0.0166  0.0624
 1106YOPC   C4A16106   3.080   0.576   7.720  0.2951  0.0735 -0.1411
 1106YOPC   C1B16107   2.521   0.786   6.423 -0.0765 -0.0210 -0.3133
 1106YOPC   C2B16108   2.476   1.169   6.697  0.3492  0.1473  0.1234
 1106YOPC   D3B16109   2.560   1.492   6.410 -0.2626  0.0874 -0.0348
 1106YOPC   C4B16110   2.475   2.007   6.504  0.1435  0.0710  0.1841
 1107YOPC   NC316111  12.214   3.433   5.180 -0.2425 -0.2786  0.1410
 1107YOPC   PO416112  12.490   3.135   5.375  0.1038  0.1403  0.0367
 1107YOPC   GL116113  12.420   2.960   5.723  0.1966 -0.0170 -0.0869
 1107YOPC   GL216114  12.070   2.879   5.835  0.1832  0.1745 -0.0484
 1107YOPC   C1A16115  12.614   2.696   6.064 -0.0943 -0.1403 -0.2439
 1107YOPC   D2A16116  12.466   2.588   6.566 -0.1415 -0.0366  0.0731
 1107YOPC   C3A16117  12.074   2.495   6.750 -0.0830 -0.1145 -0.0588
 1107YOPC   C4A16118  11.653   2.370   6.811 -0.0364 -0.0012 -0.2379
 1107YOPC   C1B16119  12.195   3.008   6.193  0.3133 -0.3406  0.1892
 1107YOPC   C2B16120  12.110   2.948   6.661  0.0949 -0.2590 -0.1208
 1107YOPC   D3B16121  12.334   2.780   7.028 -0.6011 -0.0891 -0.1166
 1107YOPC   C4B16122  12.675   2.680   7.259  0.1174 -0.2350 -0.1206
 1108YOPC   NC316123   8.206  13.326   5.973  0.1751 -0.0697  0.1939
 1108YOPC   PO416124   8.210  13.740   6.008  0.0302 -0.1192 -0.0529
 1108YOPC   GL116125   8.420  13.602   6.339 -0.3211  0.2189  0.0188
 1108YOPC   GL216126   8.716  13.680   6.383 -0.1851  0.2985  0.1073
 1108YOPC   C1A16127   8.168  13.606   6.719 -0.4011  0.0727 -0.0810
 1108YOPC   D2A16128   7.979  13.618   7.101 -0.1091 -0.1552 -0.0266
 1108YOPC   C3A16129   7.582  13.485   7.365 -0.3299  0.2021  0.2019
 1108YOPC   C4A16130   7.075  13.531   7.527  0.0530  0.1239 -0.1803
 1108YOPC   C1B16131   8.673  13.578   6.849  0.1645  0.2139  0.0290
 1108YOPC   C2B16132   8.481  13.433   7.163  0.0950 -0.0415  0.0403
 1108YOPC   D3B16133   8.564  13.062   7.399  0.0614 -0.0157 -0.1028
 1108YOPC   C4B16134   8.658  12.666   7.581 -0.0283 -0.1173 -0.2317
 1109YOPC   NC316135   2.965  16.058   5.518  0.1728 -0.1237  0.0636
 1109YOPC   PO416136   2.827  16.196   5.963  0.0935  0.0975 -0.2226
 1109YOPC   GL116137   2.835  16.247   6.426  0.2930  0.2081  0.2158
 1109YOPC   GL216138   2.508  16.271   6.581 -0.1789  0.3730  0.0466
 1109YOPC   C1A16139   2.962  16.557   6.710  0.0433  0.2103  0.0387
 1109YOPC   D2A16140   3.074  16.875   6.971  0.2583 -0.1828 -0.0076
 1109YOPC   C3A16141   3.555  16.951   7.046  0.1879 -0.0162 -0.0012
 1109YOPC   C4A16142   3.837  17.141   6.880  0.2381 -0.2816  0.0061
 1109YOPC   C1B16143   2.589  16.235   7.021 -0.1793  0.0941  0.2212
 1109YOPC   C2B16144   2.354  16.351   7.341  0.1572 -0.0643 -0.0127
 1109YOPC   D3B16145   2.249  16.687   7.352  0.4529  0.0595 -0.0551
 1109YOPC   C4B16146   1.825  16.610   7.264 -0.0188  0.2164 -0.5100
 1110YOPC   NC316147  18.155   7.724   5.684  0.2747 -0.1107  0.0227
 1110YOPC   PO416148  18.372   7.394   5.452  0.4907  0.4182 -0.0114
 1110YOPC   GL116149  18.221   7.271   5.821  0.1022  0.1817  0.0604
 1110YOPC   GL216150  17.965   7.315   6.015 -0.0202  0.0216 -0.0879
 1110YOPC   C1A16151  18.358   7.027   6.256 -0.0423  0.2561  0.0053
 1110YOPC   D2A16152  18.469   7.112   6.702  0.1152 -0.3228 -0.0175
 1110YOPC   C3A16153  18.869   7.166   6.753  0.1593 -0.2001  0.1588
 1110YOPC   C4A16154  19.106   7.406   6.574 -0.0973  0.0775  0.1020
 1110YOPC   C1B16155  17.815   7.041   6.374 -0.4027  0.1685  0.3348
 1110YOPC   C2B16156  17.528   6.982   6.661  0.0342 -0.1559 -0.0071
 1110YOPC   D3B16157  17.414   7.031   7.011  0.1762 -0.0630 -0.2454
 1110YOPC   C4B16158  17.369   6.848   7.419 -0.5022  0.1680  0.0900
 1111YOPC   NC316159   0.673  13.645   5.471  0.0451 -0.0061 -0.1983
 1111YOPC   PO416160   0.187  13.655   5.622 -0.0498 -0.0981  0.0133
 1111YOPC   GL116161   0.373  13.593   5.938 -0.1204 -0.1990 -0.2279
 1111YOPC   GL216162   0.710  13.525   5.968 -0.0707  0.1879  0.1038
 1111YOPC   C1A16163   0.446  13.793   6.398  0.1177  0.1774 -0.0910
 1111YOPC   D2A16164   0.701  13.593   6.797 -0.0756 -0.5488  0.4076
 1111YOPC   C3A16165   0.519  13.611   7.134  0.1037  0.1809  0.0548
 1111YOPC   C4A16166   0.442  13.957   7.509 -0.1064 -0.1295  0.2229
 1111YOPC   C1B16167   0.659  13.233   6.316 -0.2825  0.0095  0.1524
 1111YOPC   C2B16168   0.571  12.783   6.442 -0.3112 -0.1784 -0.0693
 1111YOPC   D3B16169   0.940  12.608   6.492 -0.1027 -0.0338  0.0093
 1111YOPC   C4B16170   1.044  12.638   6.901 -0.1009 -0.0998  0.2570
 1112YOPC   NC316171   0.341  10.292   5.836 -0.0741 -0.4377  0.1267
 1112YOPC   PO416172   0.025  10.565   5.773  0.1035 -0.0836  0.1160
 1112YOPC   GL116173   0.008  10.707   6.151 -0.1471  0.0179  0.0729
 1112YOPC   GL216174  -0.019  10.995   6.322 -0.2525  0.0204 -0.2975
 1112YOPC   C1A16175   0.093  10.444   6.456  0.0260  0.1455 -0.3309
 1112YOPC   D2A16176   0.054  10.206   6.807  0.0562  0.2622 -0.3564
 1112YOPC   C3A16177   0.063  10.191   7.285 -0.0899  0.2424  0.1096
 1112YOPC   C4A16178   0.178  10.267   7.597  0.0381 -0.0838  0.0217
 1112YOPC   C1B16179   0.156  10.871   6.761 -0.1815  0.0668 -0.0517
 1112YOPC   C2B16180   0.413  10.486   6.889  0.0729  0.1613 -0.0011
 1112YOPC   D3B16181   0.545  10.386   7.265 -0.1016  0.2831 -0.0717
 1112YOPC   C4B16182   0.553  10.656   7.617  0.1483 -0.0218  0.3396
 1113YOPC   NC316183   6.550  16.042   5.978  0.1323  0.2050 -0.0092
 1113YOPC   PO416184   6.964  16.112   6.007  0.1245  0.3222 -0.0539
 1113YOPC   GL116185   6.781  16.287   6.314 -0.2126  0.2817  0.0469
 1113YOPC   GL216186   6.981  16.567   6.316 -0.1980 -0.2976  0.1004
 1113YOPC   C1A16187   6.840  16.225   6.698 -0.3167  0.0666  0.0094
 1113YOPC   D2A16188   6.784  16.185   7.121 -0.2399  0.0837  0.1995
 1113YOPC   C3A16189   7.090  16.317   7.416  0.1069  0.1512  0.2215
 1113YOPC   C4A16190   7.214  16.183   7.746 -0.0325 -0.1956  0.0365
 1113YOPC   C1B16191   6.986  16.673   6.707  0.2382  0.1101  0.1409
 1113YOPC   C2B16192   7.014  16.700   7.094  0.0290  0.2533  0.1612
 1113YOPC   D3B16193   7.244  16.817   7.460 -0.1265  0.0389  0.4539
 1113YOPC   C4B16194   7.484  16.595   7.742  0.1486 -0.0908  0.0805
 1114YOPC   NC316195   2.463  10.294   5.803 -0.1317 -0.2793  0.2021
 1114YOPC   PO416196   2.099  10.086   5.696 -0.1826 -0.1833  0.3593
 1114YOPC   GL116197   2.023  10.364   6.002 -0.2537  0.0685  0.4177
 1114YOPC   GL216198   1.818  10.583   5.888  0.0941  0.0363 -0.0234
 1114YOPC   C1A16199   2.049  10.283   6.391  0.0411  0.0130  0.2861
 1114YOPC   D2A16200   1.719  10.049   6.572 -0.0181 -0.2979 -0.1609
 1114YOPC   C3A16201   1.882  10.157   7.017  0.0714  0.1867 -0.1334
 1114YOPC   C4A16202   1.638  10.004   7.375 -0.0613 -0.2111  0.1935
 1114YOPC   C1B16203   1.643  10.592   6.393  0.2030 -0.0487  0.0742
 1114YOPC   C2B16204   1.399  10.475   6.684 -0.1466  0.0665 -0.4132
 1114YOPC   D3B16205   1.441  10.398   7.120 -0.0815  0.1565 -0.0116
 1114YOPC   C4B16206   1.369  10.419   7.462  0.0233 -0.0568  0.0649
 1115YOPC   NC316207  15.827   8.832   5.673 -0.0364  0.1483 -0.1172
 1115YOPC   PO416208  16.122   8.510   5.594  0.2448 -0.1376  0.1723
 1115YOPC   GL116209  16.009   8.416   5.981 -0.2046 -0.0609  0.2222
 1115YOPC   GL216210  15.668   8.426   6.081 -0.1030 -0.1960 -0.2045
 1115YOPC   C1A16211  16.061   8.385   6.497 -0.1583 -0.0366  0.2339
 1115YOPC   D2A16212  16.148   8.165   6.795 -0.0592  0.1517 -0.0481
 1115YOPC   C3A16213  15.915   8.125   7.183  0.2673 -0.1713 -0.1466
 1115YOPC   C4A16214  15.569   7.934   7.272 -0.4162  0.0305  0.0144
 1115YOPC   C1B16215  15.574   8.556   6.481  0.1971  0.1811 -0.2989
 1115YOPC   C2B16216  15.744   8.475   6.913  0.3344  0.0835  0.1984
 1115YOPC   D3B16217  15.534   8.497   7.320  0.0857  0.2320  0.2476
 1115YOPC   C4B16218  15.222   8.465   7.576 -0.0409 -0.5200 -0.0569
 1116YOPC   NC316219  13.683   1.354   5.595 -0.0579 -0.1389  0.1479
 1116YOPC   PO416220  14.105   1.361   5.778  0.1631 -0.1597 -0.0221
 1116YOPC   GL116221  14.099   1.417   6.171  0.2449  0.1325 -0.1815
 1116YOPC   GL216222  14.315   1.704   6.101  0.1148  0.2223 -0.0437
 1116YOPC   C1A16223  13.757   1.694   6.318  0.3014  0.1613  0.2087
 1116YOPC   D2A16224  13.559   1.705   6.729  0.1477 -0.2407  0.0067
 1116YOPC   C3A16225  13.271   1.492   7.105  0.1884  0.1910 -0.2734
 1116YOPC   C4A16226  12.922   1.236   7.229  0.1465  0.0740 -0.1203
 1116YOPC   C1B16227  14.239   1.734   6.578  0.0525 -0.0167 -0.1557
 1116YOPC   C2B16228  14.045   1.528   6.943  0.0783 -0.0640  0.1605
 1116YOPC   D3B16229  14.059   1.318   7.252  0.1445  0.0445 -0.1572
 1116YOPC   C4B16230  13.834   1.218   7.607 -0.1373  0.0282  0.0311
 1117YOPC   NC316231  13.702  15.739   5.831 -0.3620  0.1162 -0.2506
 1117YOPC   PO416232  14.126  15.809   5.878  0.1061  0.2288  0.0044
 1117YOPC   GL116233  14.006  15.599   6.224 -0.0548 -0.2733  0.1498
 1117YOPC   GL216234  13.732  15.383   6.191  0.0402 -0.0000 -0.2418
 1117YOPC   C1A16235  14.194  15.437   6.627 -0.0017  0.0819  0.1463
 1117YOPC   D2A16236  14.208  15.393   7.122  0.0686 -0.0132 -0.0965
 1117YOPC   C3A16237  14.455  15.660   7.389  0.0146  0.2347 -0.1884
 1117YOPC   C4A16238  14.760  15.599   7.710  0.0405 -0.2980 -0.0501
 1117YOPC   C1B16239  13.693  15.215   6.656  0.0408 -0.0783  0.1239
 1117YOPC   C2B16240  13.830  15.143   7.005 -0.0287 -0.1845  0.2640
 1117YOPC   D3B16241  14.132  14.869   7.259  0.0393 -0.0702  0.4044
 1117YOPC   C4B16242  14.318  14.618   7.602  0.1623  0.0154 -0.0803
 1118YOPC   NC316243   4.601   6.101   5.535  0.1795 -0.1877 -0.2681
 1118YOPC   PO416244   4.755   6.531   5.705 -0.2464  0.1733 -0.0465
 1118YOPC   GL116245   4.417   6.400   5.996  0.0597 -0.2806 -0.1014
 1118YOPC   GL216246   4.440   6.187   6.170 -0.1186  0.0413 -0.0113
 1118YOPC   C1A16247   4.537   6.534   6.491  0.2056 -0.1072 -0.0894
 1118YOPC   D2A16248   4.486   6.537   6.910 -0.1613  0.0158 -0.0097
 1118YOPC   C3A16249   4.674   6.293   7.294  0.2589  0.0379 -0.3734
 1118YOPC   C4A16250   4.680   6.454   7.716  0.1907 -0.2795 -0.1423
 1118YOPC   C1B16251   4.681   6.052   6.534  0.1750  0.2012  0.1693
 1118YOPC   C2B16252   4.772   5.922   6.922  0.0254 -0.1140 -0.0911
 1118YOPC   D3B16253   5.083   6.006   7.220  0.0274 -0.1211  0.0053
 1118YOPC   C4B16254   5.400   6.366   7.206  0.0821 -0.1927  0.1680
 1119YOPC   NC316255   9.303   2.792   5.077 -0.5168  0.1080 -0.0667
 1119YOPC   PO416256   9.473   3.054   5.354 -0.1344 -0.2412 -0.1222
 1119YOPC   GL116257   9.727   2.915   5.716 -0.3047 -0.0016  0.0768
 1119YOPC   GL216258   9.985   2.786   5.712 -0.1015 -0.1567  0.1011
 1119YOPC   C1A16259   9.699   2.905   6.128  0.1945  0.1536  0.0816
 1119YOPC   D2A16260   9.727   2.817   6.561  0.1362 -0.5573 -0.1112
 1119YOPC   C3A16261  10.113   2.948   6.828  0.1673 -0.1753 -0.2712
 1119YOPC   C4A16262  10.302   3.210   7.150  0.2250 -0.1633 -0.0095
 1119YOPC   C1B16263   9.942   2.399   5.941 -0.1598  0.1037 -0.4295
 1119YOPC   C2B16264  10.200   2.074   5.981 -0.0120 -0.0073 -0.6189
 1119YOPC   D3B16265  10.294   2.106   6.457 -0.3379 -0.5213  0.1344
 1119YOPC   C4B16266  10.603   2.284   6.714  0.0582 -0.1025 -0.1138
 1120YOPC   NC316267  11.789   6.166   5.254 -0.0266 -0.0954  0.0167
 1120YOPC   PO416268  11.920   5.908   5.568  0.0806  0.1663 -0.0015
 1120YOPC   GL116269  11.734   5.581   5.722  0.1863 -0.0426 -0.3084
 1120YOPC   GL216270  11.833   5.410   5.461 -0.0626  0.0504 -0.2980
 1120YOPC   C1A16271  11.576   5.352   6.143  0.0075  0.1942  0.0159
 1120YOPC   D2A16272  11.625   5.262   6.506  0.4498  0.0990 -0.0732
 1120YOPC   C3A16273  11.523   5.107   6.806 -0.1554  0.1024 -0.0249
 1120YOPC   C4A16274  11.547   5.059   7.273  0.1440  0.1928 -0.0441
 1120YOPC   C1B16275  11.844   5.090   5.769 -0.1130  0.0506 -0.0757
 1120YOPC   C2B16276  11.753   4.672   5.702  0.0201  0.2873 -0.1381
 1120YOPC   D3B16277  11.533   4.277   5.788 -0.1867 -0.2613 -0.2838
 1120YOPC   C4B16278  11.070   4.115   5.634  0.1534 -0.2502  0.0874
 1121YOPC   NC316279  11.202  12.215   5.527  0.2640 -0.3236  0.2006
 1121YOPC   PO416280  11.194  11.760   5.500 -0.1082  0.0339  0.1233
 1121YOPC   GL116281  11.166  11.821   5.907  0.2175  0.2714  0.4563
 1121YOPC   GL216282  11.507  11.794   5.877  0.2242 -0.0442  0.2088
 1121YOPC   C1A16283  11.209  11.745   6.377 -0.0869  0.0700  0.2373
 1121YOPC   D2A16284  11.076  11.403   6.547 -0.3006  0.1764 -0.0167
 1121YOPC   C3A16285  11.139  11.063   6.875  0.0979 -0.2871  0.1134
 1121YOPC   C4A16286  11.166  10.938   7.303 -0.0186 -0.0216  0.1874
 1121YOPC   C1B16287  11.761  11.745   6.315  0.2401 -0.0334  0.1279
 1121YOPC   C2B16288  12.020  11.712   6.646 -0.0894 -0.3115  0.1556
 1121YOPC   D3B16289  11.918  11.753   7.038 -0.0597  0.0939 -0.0896
 1121YOPC   C4B16290  11.848  11.702   7.485 -0.0442 -0.0652 -0.1454
 1122YOPC   NC316291   1.081  17.121   5.871  0.2064  0.1998  0.0203
 1122YOPC   PO416292   0.585  16.953   5.965  0.1278  0.0407  0.3839
 1122YOPC   GL116293   0.615  16.931   6.373 -0.2334  0.0938  0.3043
 1122YOPC   GL216294   1.003  16.961   6.340  0.0753  0.2162  0.0463
 1122YOPC   C1A16295   0.778  16.546   6.587  0.1175  0.1927  0.1502
 1122YOPC   D2A16296   1.034  16.336   6.805  0.2026  0.2350 -0.0587
 1122YOPC   C3A16297   0.864  16.316   7.164 -0.1932  0.1160 -0.2898
 1122YOPC   C4A16298   0.763  16.671   7.098 -0.3431 -0.0763  0.0524
 1122YOPC   C1B16299   1.195  16.801   6.813 -0.1976 -0.1171 -0.3317
 1122YOPC   C2B16300   1.292  16.842   7.345  0.2050  0.1237 -0.2516
 1122YOPC   D3B16301   0.978  16.728   7.643 -0.2360  0.1148  0.3992
 1122YOPC   C4B16302   0.725  16.300   7.675 -0.1331 -0.1551 -0.1095
 1123YOPC   NC316303  18.103  16.430   5.590  0.3406 -0.0781 -0.1512
 1123YOPC   PO416304  17.881  16.335   5.967 -0.0189  0.2972 -0.2439
 1123YOPC   GL116305  17.658  15.998   6.292 -0.4087 -0.0103 -0.1640
 1123YOPC   GL216306  17.471  16.066   6.494  0.3776 -0.0967  0.1802
 1123YOPC   C1A16307  17.885  15.770   6.608 -0.2417 -0.3656  0.1150
 1123YOPC   D2A16308  17.998  15.431   6.794 -0.1462 -0.1250  0.3026
 1123YOPC   C3A16309  18.119  15.336   7.245  0.2106  0.0932 -0.3628
 1123YOPC   C4A16310  18.507  15.125   7.279  0.0241 -0.3213 -0.0407
 1123YOPC   C1B16311  17.562  15.931   6.924  0.0643 -0.0815 -0.2729
 1123YOPC   C2B16312  17.825  15.846   7.159 -0.0271 -0.0224 -0.1134
 1123YOPC   D3B16313  18.249  15.856   6.907 -0.0217 -0.1188  0.0949
 1123YOPC   C4B16314  18.619  15.971   6.793 -0.2434 -0.2306 -0.3805
 1124YOPC   NC316315  18.131  14.520   5.888  0.1117 -0.0842  0.0240
 1124YOPC   PO416316  17.684  14.533   5.840  0.1751 -0.4099 -0.2113
 1124YOPC   GL116317  17.760  14.549   6.305 -0.2590 -0.0181  0.1508
 1124YOPC   GL216318  18.016  14.670   6.405 -0.0566  0.0817 -0.0656
 1124YOPC   C1A16319  17.711  14.432   6.752 -0.1116  0.0357 -0.0160
 1124YOPC   D2A16320  17.874  14.184   7.137 -0.1335 -0.2409 -0.0901
 1124YOPC   C3A16321  18.204  13.999   7.210 -0.1576  0.2210  0.0251
 1124YOPC   C4A16322  18.525  14.070   7.519  0.2641 -0.3475 -0.0717
 1124YOPC   C1B16323  17.969  14.910   6.770  0.2908 -0.2710 -0.0994
 1124YOPC   C2B16324  18.075  14.790   7.175 -0.2073  0.1641  0.1813
 1124YOPC   D3B16325  18.153  14.970   7.586 -0.2366 -0.0421  0.0899
 1124YOPC   C4B16326  18.226  15.414   7.718  0.0907 -0.1208 -0.0525
 1125YOPC   NC316327   4.678   7.869   5.814 -0.1973 -0.1354  0.1069
 1125YOPC   PO416328   4.224   8.066   5.760 -0.0986  0.2158 -0.4295
 1125YOPC   GL116329   4.375   8.118   6.109 -0.2025  0.0705 -0.0204
 1125YOPC   GL216330   4.783   8.206   6.193  0.1183  0.1044 -0.0370
 1125YOPC   C1A16331   4.467   8.356   6.555 -0.1780 -0.2101  0.1383
 1125YOPC   D2A16332   4.639   8.515   6.914  0.0602  0.0313 -0.0476
 1125YOPC   C3A16333   4.512   8.446   7.319 -0.0577  0.0451  0.2893
 1125YOPC   C4A16334   4.554   8.313   7.716  0.1653 -0.0035  0.4026
 1125YOPC   C1B16335   5.073   8.310   6.618 -0.3070  0.5687  0.1042
 1125YOPC   C2B16336   5.123   8.667   6.914  0.0163  0.1628  0.1589
 1125YOPC   D3B16337   5.089   8.550   7.317 -0.2279  0.1974 -0.0216
 1125YOPC   C4B16338   5.044   8.244   7.592 -0.0509  0.0358  0.1711
 1126YOPC   NC316339  13.644   8.843   5.386  0.1683 -0.3172  0.0456
 1126YOPC   PO416340  13.265   8.975   5.714  0.1469 -0.1177  0.2130
 1126YOPC   GL116341  13.306   9.046   6.038 -0.1110 -0.1654 -0.1426
 1126YOPC   GL216342  13.491   9.345   6.043 -0.0197 -0.1399  0.1830
 1126YOPC   C1A16343  13.021   9.154   6.365 -0.3373 -0.1810 -0.0953
 1126YOPC   D2A16344  12.546   9.196   6.356 -0.0691  0.2420 -0.3689
 1126YOPC   C3A16345  12.368   9.270   6.770 -0.1303  0.2757  0.1949
 1126YOPC   C4A16346  12.315   9.443   7.253 -0.0505  0.2368 -0.2582
 1126YOPC   C1B16347  13.385   9.494   6.375  0.0775  0.0045  0.1089
 1126YOPC   C2B16348  13.124   9.850   6.485  0.1593  0.4515  0.0011
 1126YOPC   D3B16349  13.114   9.992   6.919  0.1981  0.3288 -0.0140
 1126YOPC   C4B16350  12.900  10.028   7.401  0.2252 -0.0241 -0.0879
 1127YOPC   NC316351   5.990  13.629   5.700 -0.0810 -0.0228 -0.4411
 1127YOPC   PO416352   6.504  13.703   5.691  0.3058 -0.0137  0.0467
 1127YOPC   GL116353   6.555  13.500   6.077  0.1171 -0.1615  0.2038
 1127YOPC   GL216354   6.710  13.791   6.199 -0.0881  0.0253  0.1813
 1127YOPC   C1A16355   6.478  13.203   6.378 -0.3695 -0.1186 -0.1310
 1127YOPC   D2A16356   6.402  12.885   6.633 -0.3696 -0.3465  0.0829
 1127YOPC   C3A16357   6.561  12.405   6.589  0.1288  0.0218 -0.0150
 1127YOPC   C4A16358   6.310  12.180   6.675 -0.0329 -0.0206 -0.1910
 1127YOPC   C1B16359   6.759  13.532   6.609  0.1760  0.0729  0.0721
 1127YOPC   C2B16360   6.611  13.266   6.867  0.1612  0.2634  0.0453
 1127YOPC   D3B16361   6.961  13.280   7.082 -0.0973  0.0927 -0.1483
 1127YOPC   C4B16362   7.151  13.078   7.358  0.0435  0.2095 -0.2340
 1128YOPC   NC316363   9.946  12.896   5.944  0.1621 -0.0703  0.0362
 1128YOPC   PO416364   9.555  12.610   5.985  0.0277 -0.4888  0.2712
 1128YOPC   GL116365   9.675  12.569   6.348 -0.3402 -0.0974  0.1291
 1128YOPC   GL216366   9.896  12.747   6.400 -0.0714  0.1064 -0.0767
 1128YOPC   C1A16367   9.928  12.280   6.535 -0.2437  0.0224  0.1742
 1128YOPC   D2A16368  10.097  11.941   6.609  0.0740  0.1419  0.0906
 1128YOPC   C3A16369  10.369  11.903   6.883  0.0385  0.1129 -0.0054
 1128YOPC   C4A16370  10.554  12.110   7.305 -0.0041 -0.1670 -0.0873
 1128YOPC   C1B16371   9.653  13.011   6.660  0.1242 -0.0164  0.1120
 1128YOPC   C2B16372   9.476  13.047   7.009  0.2799  0.1117 -0.0773
 1128YOPC   D3B16373   9.695  12.919   7.400  0.0694  0.0327 -0.2236
 1128YOPC   C4B16374   9.932  12.631   7.471  0.3878 -0.0077  0.1554
 1129YOPC   NC316375  14.289  13.867   5.651 -0.0076 -0.0503 -0.2099
 1129YOPC   PO416376  14.684  13.908   5.782 -0.1361  0.0711 -0.0157
 1129YOPC   GL116377  14.676  13.859   6.233 -0.4351  0.0223  0.2436
 1129YOPC   GL216378  14.764  13.577   6.396 -0.1736 -0.3264 -0.1267
 1129YOPC   C1A16379  14.405  14.008   6.513  0.1759 -0.2084 -0.2812
 1129YOPC   D2A16380  14.119  14.245   6.547  0.2015 -0.0329 -0.0878
 1129YOPC   C3A16381  14.010  14.429   6.946 -0.1682  0.0823 -0.0356
 1129YOPC   C4A16382  13.914  14.308   7.367  0.2755 -0.0508  0.0766
 1129YOPC   C1B16383  14.509  13.563   6.747 -0.1068  0.1114 -0.0922
 1129YOPC   C2B16384  14.453  13.440   7.214  0.2678 -0.0437 -0.1767
 1129YOPC   D3B16385  14.457  13.687   7.416  0.3247 -0.1526  0.1766
 1129YOPC   C4B16386  14.541  14.132   7.554 -0.1617 -0.0139  0.2526
 1130YOPC   NC316387  17.572  12.302   5.707 -0.1674  0.0558  0.0681
 1130YOPC   PO416388  17.215  12.008   5.782 -0.1312  0.2137  0.2853
 1130YOPC   GL116389  17.258  11.711   6.200 -0.2857 -0.0148 -0.0966
 1130YOPC   GL216390  16.953  11.392   6.188  0.2157  0.1026  0.0576
 1130YOPC   C1A16391  17.362  11.562   6.659  0.2609  0.5137  0.1693
 1130YOPC   D2A16392  17.185  11.262   6.952 -0.1882 -0.3694  0.0417
 1130YOPC   C3A16393  17.400  11.010   7.253 -0.1579  0.0975  0.2728
 1130YOPC   C4A16394  17.435  11.173   7.681 -0.4972 -0.1212  0.1042
 1130YOPC   C1B16395  16.760  11.249   6.727 -0.0588 -0.2731  0.5152
 1130YOPC   C2B16396  16.756  11.239   7.227 -0.2805 -0.3245  0.1204
 1130YOPC   D3B16397  16.727  11.640   7.405  0.4577  0.3127  0.0923
 1130YOPC   C4B16398  16.310  11.847   7.669 -0.1602  0.1483  0.0223
 1131YOPC   NC316399   9.735   0.434   5.309 -0.1286 -0.1738 -0.1367
 1131YOPC   PO416400   9.374   0.443   5.511 -0.0457 -0.0505  0.0974
 1131YOPC   GL116401   9.542   0.601   5.898  0.1357  0.0993 -0.1682
 1131YOPC   GL216402   9.748   0.921   5.921  0.1501  0.2622 -0.0395
 1131YOPC   C1A16403   9.480   0.820   6.293 -0.1825  0.1607 -0.3010
 1131YOPC   D2A16404   9.462   1.005   6.736 -0.2341 -0.3208 -0.1802
 1131YOPC   C3A16405   9.796   1.068   7.094 -0.0520 -0.0792 -0.0013
 1131YOPC   C4A16406  10.177   1.266   7.370 -0.1513 -0.0040  0.0343
 1131YOPC   C1B16407   9.971   1.046   6.258  0.1427  0.3667  0.2185
 1131YOPC   C2B16408  10.299   0.945   6.504 -0.2251 -0.3324 -0.0613
 1131YOPC   D3B16409  10.426   1.181   6.854 -0.2186 -0.1037 -0.0282
 1131YOPC   C4B16410  10.588   1.469   7.141  0.0379  0.0214  0.0947
 1132YOPC   NC316411   6.454   5.327   5.628 -0.0725  0.2970  0.0294
 1132YOPC   PO416412   6.824   5.039   5.745 -0.1136  0.1190  0.1624
 1132YOPC   GL116413   6.755   4.803   6.166  0.1260 -0.1062  0.0438
 1132YOPC   GL216414   7.105   4.675   6.132 -0.0744 -0.2138 -0.0833
 1132YOPC   C1A16415   6.345   4.573   6.397  0.2858  0.2799 -0.1609
 1132YOPC   D2A16416   6.029   4.589   6.653  0.2092  0.2268  0.0725
 1132YOPC   C3A16417   5.937   4.960   6.734  0.3354 -0.2165 -0.0500
 1132YOPC   C4A16418   6.000   5.173   7.087 -0.2862  0.2229  0.0981
 1132YOPC   C1B16419   7.336   4.655   6.424 -0.2570 -0.2632  0.3470
 1132YOPC   C2B16420   7.565   4.444   6.600  0.1555 -0.0013 -0.0702
 1132YOPC   D3B16421   7.581   4.557   6.897  0.1343 -0.1150  0.0755
 1132YOPC   C4B16422   7.800   4.609   7.321  0.0619  0.2535 -0.1049
 1133YOPC   NC316423   2.153  11.979   6.092  0.2796  0.0978  0.4047
 1133YOPC   PO416424   2.190  12.405   6.077  0.3492 -0.0702 -0.0082
 1133YOPC   GL116425   2.114  12.279   6.493  0.0846  0.2661 -0.4731
 1133YOPC   GL216426   1.803  12.078   6.482 -0.0054 -0.1937  0.1049
 1133YOPC   C1A16427   1.984  12.399   6.892  0.2565  0.1016 -0.0070
 1133YOPC   D2A16428   2.058  12.609   7.336  0.0845 -0.1051  0.1097
 1133YOPC   C3A16429   1.741  12.549   7.586 -0.0878 -0.0277  0.0281
 1133YOPC   C4A16430   1.728  12.282   7.950  0.0942  0.2712  0.0734
 1133YOPC   C1B16431   1.719  11.943   6.823 -0.0767  0.0309 -0.0288
 1133YOPC   C2B16432   1.524  11.814   7.152  0.3509 -0.2046 -0.0426
 1133YOPC   D3B16433   1.484  11.942   7.594  0.1239 -0.0868  0.0672
 1133YOPC   C4B16434   1.279  12.368   7.661 -0.0189 -0.5133 -0.0606
 1134YOPC   NC316435   7.736  11.725   5.659  0.1058  0.0094  0.1181
 1134YOPC   PO416436   8.001  11.361   5.837  0.2310  0.0125 -0.1214
 1134YOPC   GL116437   7.630  11.366   6.080  0.1836 -0.2423  0.0976
 1134YOPC   GL216438   7.734  11.184   6.288  0.0937 -0.1077 -0.3796
 1134YOPC   C1A16439   7.365  11.534   6.506  0.0006 -0.0188  0.1843
 1134YOPC   D2A16440   6.911  11.481   6.519 -0.1855 -0.1265  0.0200
 1134YOPC   C3A16441   6.649  11.580   6.820  0.1621 -0.2036  0.0506
 1134YOPC   C4A16442   6.483  11.909   7.058  0.2600 -0.1028 -0.1345
 1134YOPC   C1B16443   7.901  11.432   6.609 -0.1055 -0.0531 -0.0258
 1134YOPC   C2B16444   7.962  11.398   7.047  0.2148  0.0671  0.1060
 1134YOPC   D3B16445   7.683  11.210   7.374 -0.0928 -0.1251 -0.0998
 1134YOPC   C4B16446   7.459  11.020   7.728  0.1770  0.1039  0.0351
 1135YOPC   NC316447   9.098   5.326   5.357 -0.0062 -0.0213  0.0025
 1135YOPC   PO416448   9.560   5.438   5.334  0.0145  0.0375  0.0772
 1135YOPC   GL116449   9.688   5.311   5.751 -0.1220  0.1092  0.3970
 1135YOPC   GL216450   9.676   5.639   5.895 -0.1584  0.0807  0.3276
 1135YOPC   C1A16451   9.796   5.255   6.173 -0.1463  0.0616  0.0746
 1135YOPC   D2A16452   9.859   5.253   6.556  0.0103 -0.1696 -0.0640
 1135YOPC   C3A16453   9.735   5.579   6.802  0.1524  0.1662  0.0377
 1135YOPC   C4A16454  10.039   5.874   7.018 -0.2204 -0.1229 -0.0837
 1135YOPC   C1B16455   9.483   5.760   6.311 -0.1465  0.3571  0.3553
 1135YOPC   C2B16456   9.553   6.097   6.756 -0.1405 -0.0400  0.0537
 1135YOPC   D3B16457   9.559   5.921   7.207 -0.0001 -0.0299 -0.4170
 1135YOPC   C4B16458   9.574   6.071   7.599  0.2122  0.1187 -0.0811
 1136YOPC   NC316459  14.476  17.991   5.451 -0.4043  0.0895  0.3108
 1136YOPC   PO416460  14.777  17.783   5.688 -0.0070  0.2084  0.1212
 1136YOPC   GL116461  14.574  17.929   6.065  0.0215  0.0711 -0.0017
 1136YOPC   GL216462  14.255  18.005   5.967  0.0192  0.2032  0.2720
 1136YOPC   C1A16463  14.453  18.256   6.414  0.1181  0.0305 -0.0886
 1136YOPC   D2A16464  14.507  18.418   6.769 -0.0450  0.0183 -0.0512
 1136YOPC   C3A16465  15.011  18.441   6.743  0.0379 -0.4487 -0.2612
 1136YOPC   C4A16466  15.235  18.364   6.379 -0.2248 -0.2154  0.0241
 1136YOPC   C1B16467  14.247  17.843   6.449  0.0685 -0.0901  0.0248
 1136YOPC   C2B16468  14.302  17.939   6.915  0.1016 -0.0535  0.0944
 1136YOPC   D3B16469  13.997  17.885   7.132 -0.0359  0.0736 -0.0577
 1136YOPC   C4B16470  14.123  17.825   7.568  0.2704  0.0893 -0.1410
 1137YOPC   NC316471  11.506   9.515   5.488  0.0703 -0.0519 -0.0390
 1137YOPC   PO416472  11.527   9.017   5.518 -0.3616 -0.0160  0.0672
 1137YOPC   GL116473  11.523   8.887   6.001 -0.2250 -0.0804  0.1548
 1137YOPC   GL216474  11.361   8.657   6.118 -0.0864  0.1650  0.2560
 1137YOPC   C1A16475  11.485   9.166   6.352  0.1100 -0.0418 -0.0142
 1137YOPC   D2A16476  11.410   9.401   6.814  0.3019 -0.1362  0.3097
 1137YOPC   C3A16477  11.587   9.512   7.272 -0.0513 -0.0739  0.1035
 1137YOPC   C4A16478  11.552   9.906   7.472  0.2390  0.2692  0.1936
 1137YOPC   C1B16479  11.412   8.444   6.580 -0.0238  0.2377 -0.0559
 1137YOPC   C2B16480  11.625   8.581   6.993  0.4381  0.2198 -0.0955
 1137YOPC   D3B16481  11.889   8.946   7.134  0.2042 -0.2618 -0.0272
 1137YOPC   C4B16482  11.960   9.122   7.485 -0.0977 -0.1140 -0.1933
 1138YOPC   NC316483   5.751  16.140   5.384 -0.2110 -0.1945 -0.1096
 1138YOPC   PO416484   6.131  16.137   5.713  0.1536 -0.0547  0.0981
 1138YOPC   GL116485   6.203  16.370   6.085  0.0949 -0.2180 -0.5688
 1138YOPC   GL216486   6.176  16.611   6.051  0.0206 -0.3077 -0.1514
 1138YOPC   C1A16487   5.930  16.294   6.405 -0.0969  0.0108 -0.1341
 1138YOPC   D2A16488   5.502  16.326   6.456 -0.0342  0.0665 -0.1037
 1138YOPC   C3A16489   5.198  16.009   6.557  0.1961  0.2972 -0.0879
 1138YOPC   C4A16490   4.815  15.807   6.415 -0.0195  0.0708 -0.2494
 1138YOPC   C1B16491   6.041  16.829   6.459  0.1195 -0.1794 -0.3532
 1138YOPC   C2B16492   6.000  16.689   6.803 -0.0643  0.0650  0.0303
 1138YOPC   D3B16493   5.697  16.423   6.932  0.0586  0.0586  0.1430
 1138YOPC   C4B16494   5.335  16.378   6.928  0.0104 -0.2461  0.0311
 1139YOPC   NC316495  10.332  17.160   5.589  0.2158  0.0219  0.1995
 1139YOPC   PO416496   9.925  17.187   5.543 -0.4727 -0.1431 -0.2397
 1139YOPC   GL116497   9.931  17.430   6.000 -0.2537  0.1255  0.0558
 1139YOPC   GL216498   9.658  17.546   6.120 -0.2029 -0.2214  0.2460
 1139YOPC   C1A16499  10.038  17.361   6.484  0.1798 -0.2356 -0.2388
 1139YOPC   D2A16500  10.061  17.360   6.860  0.3717  0.1550  0.4482
 1139YOPC   C3A16501  10.098  17.297   7.310 -0.0607  0.0792  0.1683
 1139YOPC   C4A16502  10.052  17.409   7.791 -0.1612  0.2175 -0.1456
 1139YOPC   C1B16503   9.654  17.629   6.585 -0.0135  0.0449 -0.0863
 1139YOPC   C2B16504   9.692  17.629   7.069 -0.3429  0.2290  0.2578
 1139YOPC   D3B16505   9.715  17.737   7.451 -0.0818  0.0120  0.0254
 1139YOPC   C4B16506   9.717  17.786   7.805 -0.0376  0.0030 -0.2757
 1140YOPC   NC316507   5.698   5.011   5.688  0.3459 -0.2991 -0.0860
 1140YOPC   PO416508   5.996   4.615   5.656  0.0118 -0.1073  0.1270
 1140YOPC   GL116509   5.921   4.583   6.097  0.2063  0.1272 -0.1279
 1140YOPC   GL216510   5.895   4.328   6.246 -0.1276 -0.1782 -0.2408
 1140YOPC   C1A16511   5.738   4.851   6.284  0.1014  0.1434  0.0136
 1140YOPC   D2A16512   5.574   5.219   6.462 -0.0580 -0.1393  0.0772
 1140YOPC   C3A16513   5.536   5.252   6.814  0.0638 -0.2145  0.4456
 1140YOPC   C4A16514   5.540   5.287   7.210  0.2111  0.2352  0.1249
 1140YOPC   C1B16515   5.734   4.042   6.557 -0.2189 -0.1646  0.3114
 1140YOPC   C2B16516   5.876   3.797   6.933 -0.0621  0.2377 -0.1749
 1140YOPC   D3B16517   6.015   3.776   7.393 -0.1016 -0.2420 -0.2075
 1140YOPC   C4B16518   6.248   3.699   7.687  0.2456  0.1684 -0.1106
 1141YOPC   NC316519   4.461   7.311   5.770 -0.2281 -0.1535 -0.2527
 1141YOPC   PO416520   4.892   7.437   5.779  0.1637 -0.1108 -0.1270
 1141YOPC   GL116521   4.866   7.618   6.202 -0.1966  0.1741  0.0550
 1141YOPC   GL216522   5.224   7.774   6.371 -0.0270  0.2360  0.0682
 1141YOPC   C1A16523   4.647   7.917   6.596 -0.0418 -0.2435 -0.2770
 1141YOPC   D2A16524   4.395   7.997   6.958  0.3973 -0.2354  0.0158
 1141YOPC   C3A16525   3.986   7.747   6.991  0.0335 -0.0557 -0.1740
 1141YOPC   C4A16526   3.889   7.319   6.873  0.4017 -0.0161  0.5325
 1141YOPC   C1B16527   5.163   7.813   6.825  0.1022 -0.3542 -0.0176
 1141YOPC   C2B16528   4.933   8.143   7.073 -0.0160  0.0439  0.1710
 1141YOPC   D3B16529   4.710   7.967   7.359  0.1705  0.2273  0.1916
 1141YOPC   C4B16530   4.278   7.786   7.467 -0.0235  0.0392  0.2046
 1142YOPC   NC316531  13.728   0.285   5.456 -0.2049  0.1049 -0.0566
 1142YOPC   PO416532  13.356   0.420   5.476  0.0215 -0.0095  0.1952
 1142YOPC   GL116533  13.347   0.291   5.858 -0.0433  0.1755  0.1320
 1142YOPC   GL216534  13.621   0.475   5.977 -0.0472 -0.2013 -0.1832
 1142YOPC   C1A16535  13.107   0.313   6.231 -0.0656 -0.0198 -0.2099
 1142YOPC   D2A16536  13.116   0.505   6.566  0.1099  0.0387  0.2503
 1142YOPC   C3A16537  12.852   0.704   6.877 -0.1452 -0.0497 -0.1307
 1142YOPC   C4A16538  12.558   0.944   7.219 -0.0058  0.0746  0.0928
 1142YOPC   C1B16539  13.606   0.305   6.427  0.1790 -0.0554  0.1547
 1142YOPC   C2B16540  13.514   0.077   6.906  0.0986 -0.1982  0.1331
 1142YOPC   D3B16541  13.763   0.201   7.190  0.2737  0.1448 -0.1208
 1142YOPC   C4B16542  14.008   0.293   7.492 -0.0452  0.1621 -0.1014
 1143YOPC   NC316543  13.662   6.209   5.454  0.0622  0.2348  0.0105
 1143YOPC   PO416544  13.567   5.826   5.752 -0.2158 -0.0662 -0.1113
 1143YOPC   GL116545  13.463   5.722   6.162 -0.0919 -0.0074  0.1287
 1143YOPC   GL216546  13.796   5.658   6.321 -0.2806  0.0970  0.0214
 1143YOPC   C1A16547  13.156   5.388   6.173 -0.1768 -0.1605  0.0378
 1143YOPC   D2A16548  12.715   5.345   6.263  0.0293  0.1894  0.1370
 1143YOPC   C3A16549  12.461   5.104   6.059  0.1850 -0.1562 -0.0054
 1143YOPC   C4A16550  12.089   4.897   6.146 -0.0199  0.0731  0.1464
 1143YOPC   C1B16551  14.024   5.576   6.683  0.1250 -0.3591  0.0734
 1143YOPC   C2B16552  14.229   5.241   6.808 -0.2025  0.1024 -0.0893
 1143YOPC   D3B16553  14.593   5.117   7.071 -0.1680 -0.0614  0.0270
 1143YOPC   C4B16554  15.025   4.944   6.978  0.1509 -0.0551  0.0481
 1144YOPC   NC316555   9.214  14.214   5.721 -0.0721 -0.0118 -0.3232
 1144YOPC   PO416556   9.606  14.240   5.928 -0.2451  0.0178  0.0430
 1144YOPC   GL116557   9.731  14.501   6.334  0.0576  0.3467 -0.0551
 1144YOPC   GL216558   9.772  14.845   6.203  0.4920  0.0888 -0.2461
 1144YOPC   C1A16559   9.901  14.545   6.788 -0.0362  0.2492 -0.1558
 1144YOPC   D2A16560   9.715  14.539   7.156 -0.1800  0.3014  0.0828
 1144YOPC   C3A16561   9.702  14.159   7.385 -0.4051  0.2147  0.1145
 1144YOPC   C4A16562   9.355  13.918   7.520 -0.3599 -0.1020 -0.2635
 1144YOPC   C1B16563   9.773  15.023   6.627  0.1718  0.2136  0.2625
 1144YOPC   C2B16564   9.838  14.994   6.964 -0.0470 -0.2045  0.1140
 1144YOPC   D3B16565   9.901  15.016   7.366  0.2708  0.0360 -0.0435
 1144YOPC   C4B16566   9.868  15.259   7.683  0.2220 -0.2215 -0.0748
 1145YOPC   NC316567  14.106  12.443   5.824  0.0902  0.1352  0.0480
 1145YOPC   PO416568  13.858  12.718   6.003 -0.1993 -0.2815 -0.1990
 1145YOPC   GL116569  13.889  12.578   6.466 -0.4328 -0.1992 -0.1460
 1145YOPC   GL216570  14.066  12.650   6.714 -0.0741  0.1378 -0.0767
 1145YOPC   C1A16571  13.624  12.481   6.838  0.0657 -0.4514  0.2657
 1145YOPC   D2A16572  13.507  12.305   7.231  0.2943  0.0948  0.1282
 1145YOPC   C3A16573  13.550  12.346   7.706 -0.1860  0.0508 -0.0422
 1145YOPC   C4A16574  13.366  12.343   8.171 -0.0360  0.0156  0.1986
 1145YOPC   C1B16575  14.046  12.418   7.017 -0.0777 -0.2381  0.0358
 1145YOPC   C2B16576  13.949  12.403   7.389  0.1344  0.0272 -0.2083
 1145YOPC   D3B16577  13.921  11.941   7.679 -0.0239  0.1851  0.0015
 1145YOPC   C4B16578  14.022  11.510   7.915  0.0427  0.1851  0.0136
 1146ERGO   ROH16579  12.548  17.225   5.840  0.0168 -0.2320 -0.0683
 1146ERGO    R116580  12.783  17.207   5.998 -0.0124 -0.0622 -0.0016
 1146ERGO    R216581  12.879  16.967   6.095  0.0319  0.0232  0.1892
 1146ERGO    R316582  13.108  17.045   5.972  0.0327  0.0011  0.1795
 1146ERGO    R416583  13.177  16.793   6.103 -0.0020 -0.0383  0.0955
 1146ERGO    R516584  13.282  16.983   6.124  0.0412 -0.0748  0.1301
 1146ERGO    C116585  13.566  16.765   5.992 -0.0208 -0.0948  0.0319
 1146ERGO    C216586  13.777  16.514   6.038 -0.3700  0.0330 -0.1955
 1147ERGO   ROH16587   3.850  11.173   6.162  0.0682  0.0717 -0.0652
 1147ERGO    R116588   3.662  11.234   6.365  0.0233 -0.0372 -0.0728
 1147ERGO    R216589   3.624  11.073   6.585  0.0843 -0.0769 -0.0905
 1147ERGO    R316590   3.672  11.303   6.722 -0.0359 -0.0662 -0.0655
 1147ERGO    R416591   3.559  11.119   6.922  0.1295 -0.1739 -0.0685
 1147ERGO    R516592   3.488  11.320   6.876 -0.0138 -0.2121 -0.0208
 1147ERGO    C116593   3.567  11.361   7.246  0.0431 -0.2204 -0.0323
 1147ERGO    C216594   3.487  11.164   7.548  0.2516  0.4026  0.0157
 1148ERGO   ROH16595   3.851   2.741   6.078 -0.3508 -0.0666 -0.2148
 1148ERGO    R116596   3.932   2.745   6.349 -0.2249 -0.1926 -0.2498
 1148ERGO    R216597   3.907   2.969   6.509  0.0698 -0.1924 -0.1996
 1148ERGO    R316598   3.772   2.798   6.672 -0.0294 -0.0869 -0.1686
 1148ERGO    R416599   3.833   3.028   6.842 -0.0414 -0.0218 -0.2530
 1148ERGO    R516600   3.880   2.820   6.884 -0.1035 -0.0129 -0.1382
 1148ERGO    C116601   3.664   2.902   7.188 -0.1992  0.1765 -0.2549
 1148ERGO    C216602   3.706   2.929   7.467 -0.1886  0.0615 -0.3043
 1149ERGO   ROH16603   5.046  14.488   6.258 -0.2242  0.1190  0.0014
 1149ERGO    R116604   4.975  14.501   6.531 -0.0898  0.0185  0.0432
 1149ERGO    R216605   4.963  14.276   6.692 -0.0932 -0.0557 -0.0497
 1149ERGO    R316606   5.133  14.419   6.849  0.0355 -0.1863 -0.0711
 1149ERGO    R416607   4.957  14.279   7.038 -0.3456  0.3025 -0.0525
 1149ERGO    R516608   4.996  14.493   7.032  0.0246  0.2324 -0.2429
 1149ERGO    C116609   5.113  14.414   7.386 -0.3716  0.3883 -0.0743
 1149ERGO    C216610   5.357  14.416   7.695 -0.0092 -0.1290  0.0363
 1150ERGO   ROH16611  17.036   9.783   6.265 -0.2481 -0.0719 -0.0220
 1150ERGO    R116612  16.985   9.650   6.510 -0.0955 -0.0272  0.0355
 1150ERGO    R216613  17.135   9.696   6.738 -0.0133  0.0866 -0.0372
 1150ERGO    R316614  16.891   9.746   6.848  0.0145  0.0281  0.0500
 1150ERGO    R416615  17.082   9.788   7.067  0.0864  0.1644 -0.0429
 1150ERGO    R516616  16.907   9.658   7.070  0.1380  0.1014  0.0691
 1150ERGO    C116617  16.823   9.888   7.362  0.1705  0.1547  0.0356
 1150ERGO    C216618  16.740   9.933   7.669 -0.2987  0.0559 -0.2219
 1151ERGO   ROH16619   9.809  13.228   6.310 -0.0132  0.0243 -0.0235
 1151ERGO    R116620   9.688  13.449   6.438  0.0371  0.0223  0.0280
 1151ERGO    R216621   9.415  13.469   6.472  0.0294  0.1467 -0.1022
 1151ERGO    R316622   9.482  13.503   6.733 -0.0858 -0.0231 -0.0484
 1151ERGO    R416623   9.212  13.618   6.709 -0.0222  0.1132 -0.1248
 1151ERGO    R516624   9.389  13.717   6.790 -0.0163 -0.0100  0.0180
 1151ERGO    C116625   9.158  13.738   7.093 -0.1604 -0.0656 -0.0875
 1151ERGO    C216626   8.921  13.793   7.354 -0.3002 -0.2298  0.0829
 1152ERGO   ROH16627   2.350   6.598   6.218 -0.1408 -0.2277  0.0001
 1152ERGO    R116628   2.224   6.619   6.471 -0.0704 -0.1786  0.0322
 1152ERGO    R216629   2.334   6.762   6.681  0.0178 -0.1842 -0.0055
 1152ERGO    R316630   2.093   6.887   6.679  0.0455 -0.1309  0.0429
 1152ERGO    R416631   2.202   6.942   6.945  0.1637 -0.0406 -0.0294
 1152ERGO    R516632   2.007   6.856   6.900  0.1283 -0.0147  0.0894
 1152ERGO    C116633   1.898   7.164   7.096  0.2746  0.0930  0.0022
 1152ERGO    C216634   1.735   7.356   7.366 -0.2533  0.1972 -0.0330
 1153ERGO   ROH16635   1.107  11.898   6.510 -0.1935 -0.0529  0.0282
 1153ERGO    R116636   1.160  11.930   6.787 -0.0329  0.0740 -0.0157
 1153ERGO    R216637   1.085  12.157   6.927 -0.1628  0.0393 -0.0270
 1153ERGO    R316638   0.963  11.976   7.089  0.1286 -0.0424  0.1083
 1153ERGO    R416639   1.050  12.189   7.269  0.0512  0.0841 -0.0081
 1153ERGO    R516640   1.094  11.977   7.289  0.2720  0.1312  0.0147
 1153ERGO    C116641   0.916  12.038   7.621  0.4494  0.0334  0.1299
 1153ERGO    C216642   0.890  11.818   7.898  0.0117 -0.3895  0.0073
 1154ERGO   ROH16643   9.238  14.405   6.228  0.1808  0.1136 -0.1603
 1154ERGO    R116644   9.242  14.628   6.403  0.2918  0.0820 -0.1224
 1154ERGO    R216645   9.096  14.636   6.637  0.0719  0.2234 -0.2627
 1154ERGO    R316646   9.338  14.692   6.748  0.0411 -0.0952 -0.0154
 1154ERGO    R416647   9.142  14.777   6.949 -0.0727  0.3154 -0.2818
 1154ERGO    R516648   9.303  14.899   6.865  0.2200  0.0267 -0.1666
 1154ERGO    C116649   9.396  14.913   7.234 -0.1858  0.0699 -0.0607
 1154ERGO    C216650   9.275  14.969   7.484  0.0765  0.0288  0.0472
 1155ERGO   ROH16651   6.947   1.823   6.231 -0.2478 -0.1293 -0.1307
 1155ERGO    R116652   6.972   1.704   6.487 -0.0951 -0.0002 -0.0834
 1155ERGO    R216653   6.754   1.645   6.645 -0.0058  0.0346  0.0589
 1155ERGO    R316654   6.863   1.396   6.647  0.0429  0.0565  0.1217
 1155ERGO    R416655   6.635   1.378   6.830 -0.0726  0.0002 -0.0339
 1155ERGO    R516656   6.841   1.323   6.874 -0.0932  0.0404  0.1016
 1155ERGO    C116657   6.668   0.989   6.939 -0.0659  0.0007 -0.0289
 1155ERGO    C216658   6.486   0.708   6.946 -0.1714 -0.2210  0.0140
 1156ERGO   ROH16659   9.212   8.810   6.013 -0.1013  0.0997 -0.0906
 1156ERGO    R116660   9.385   8.844   6.234 -0.0050 -0.0023 -0.1502
 1156ERGO    R216661   9.293   8.853   6.495  0.0799  0.1324 -0.1272
 1156ERGO    R316662   9.475   8.654   6.531 -0.0784 -0.0172 -0.1362
 1156ERGO    R416663   9.471   8.797   6.786  0.0696  0.0100 -0.1429
 1156ERGO    R516664   9.647   8.753   6.665  0.0218 -0.1447 -0.1637
 1156ERGO    C116665   9.745   8.578   6.990 -0.0851 -0.2018 -0.1605
 1156ERGO    C216666   9.950   8.345   7.187  0.3889 -0.2802  0.0132
 1157ERGO   ROH16667   0.241  15.269   6.309 -0.2085 -0.0929 -0.1295
 1157ERGO    R116668   0.286  15.085   6.519 -0.1069 -0.0123 -0.0792
 1157ERGO    R216669   0.510  15.096   6.681 -0.0412  0.0698 -0.1690
 1157ERGO    R316670   0.326  15.100   6.880  0.0345  0.1261 -0.1002
 1157ERGO    R416671   0.567  14.987   7.004 -0.0103 -0.1051 -0.2324
 1157ERGO    R516672   0.367  14.899   7.004 -0.0743  0.0458 -0.1973
 1157ERGO    C116673   0.426  14.928   7.380  0.0788 -0.1541 -0.2047
 1157ERGO    C216674   0.535  14.950   7.743 -0.0330  0.0886 -0.0046
 1158ERGO   ROH16675   2.252  11.032   6.255  0.1575  0.0738  0.2105
 1158ERGO    R116676   2.060  10.879   6.396  0.0780  0.2047  0.2469
 1158ERGO    R216677   2.130  10.702   6.597  0.0102  0.0475  0.1373
 1158ERGO    R316678   1.951  10.847   6.742  0.2311  0.1709  0.2917
 1158ERGO    R416679   2.023  10.622   6.916  0.1167  0.0493  0.1738
 1158ERGO    R516680   1.822  10.683   6.858  0.1409  0.2595  0.3126
 1158ERGO    C116681   1.793  10.711   7.238  0.3862  0.1662  0.3400
 1158ERGO    C216682   1.685  10.848   7.645 -0.3089 -0.1419  0.1661
 1159ERGO   ROH16683   7.928  13.819   6.387 -0.1024 -0.0245 -0.0644
 1159ERGO    R116684   7.693  13.696   6.485 -0.0756 -0.0315 -0.0066
 1159ERGO    R216685   7.650  13.652   6.755 -0.0166 -0.0188  0.0083
 1159ERGO    R316686   7.420  13.789   6.708 -0.0310 -0.0313  0.0466
 1159ERGO    R416687   7.367  13.638   6.953  0.0506  0.0485  0.1088
 1159ERGO    R516688   7.246  13.638   6.772 -0.0112 -0.0060  0.1534
 1159ERGO    C116689   6.987  13.759   7.024  0.0762  0.0760  0.2032
 1159ERGO    C216690   6.691  13.803   7.291 -0.1380  0.1304  0.3095
 1160ERGO   ROH16691   8.013   8.294   6.249 -0.2454 -0.0733  0.0836
 1160ERGO    R116692   8.076   8.184   6.502 -0.1108 -0.0550  0.0596
 1160ERGO    R216693   8.062   8.331   6.735 -0.0104 -0.0434  0.0617
 1160ERGO    R316694   7.901   8.128   6.816  0.0468 -0.0548  0.1472
 1160ERGO    R416695   7.944   8.290   7.057 -0.1120  0.1300  0.0475
 1160ERGO    R516696   7.978   8.075   7.037 -0.0138  0.1319  0.2121
 1160ERGO    C116697   7.723   8.075   7.321 -0.1174  0.2205  0.1195
 1160ERGO    C216698   7.656   8.197   7.522 -0.0118  0.1509  0.2013
 1161ERGO   ROH16699  16.412   6.221   6.147  0.1773  0.3130  0.0070
 1161ERGO    R116700  16.566   6.090   6.345  0.1234  0.1389 -0.0657
 1161ERGO    R216701  16.720   6.228   6.529  0.0649 -0.0234  0.1000
 1161ERGO    R316702  16.577   6.081   6.708  0.0218 -0.1904 -0.0663
 1161ERGO    R416703  16.800   6.190   6.863 -0.1631 -0.0884  0.1503
 1161ERGO    R516704  16.743   5.981   6.849 -0.0110 -0.1291  0.0237
 1161ERGO    C116705  16.713   6.031   7.226 -0.3362 -0.2830  0.0233
 1161ERGO    C216706  16.835   6.018   7.567 -0.3410  0.1769 -0.3066
 1162ERGO   ROH16707  11.748   8.305   6.206 -0.2569  0.2488 -0.1045
 1162ERGO    R116708  11.862   8.494   6.382 -0.3740  0.0512  0.1917
 1162ERGO    R216709  11.959   8.738   6.296  0.2855 -0.1110  0.4188
 1162ERGO    R316710  11.791   8.835   6.487 -0.0555  0.1860 -0.0115
 1162ERGO    R416711  12.006   9.034   6.469  0.3558 -0.1747  0.5091
 1162ERGO    R516712  11.937   8.933   6.650 -0.2870 -0.0534  0.3590
 1162ERGO    C116713  11.876   9.297   6.749  0.0767  0.0671  0.1577
 1162ERGO    C216714  11.972   9.604   6.861  0.3573 -0.0062 -0.0164
 1163ERGO   ROH16715   8.257  16.456   6.258 -0.1163  0.1917 -0.0896
 1163ERGO    R116716   8.458  16.581   6.414  0.0249 -0.0229 -0.0955
 1163ERGO    R216717   8.400  16.738   6.633  0.1839  0.2321 -0.2319
 1163ERGO    R316718   8.570  16.568   6.760 -0.1428  0.0377 -0.0378
 1163ERGO    R416719   8.600  16.824   6.902  0.2744  0.1243 -0.2642
 1163ERGO    R516720   8.760  16.704   6.814  0.0905 -0.2449 -0.1209
 1163ERGO    C116721   8.877  16.714   7.177  0.0205 -0.1211 -0.1009
 1163ERGO    C216722   9.015  16.682   7.522 -0.0868  0.1595  0.2483
 1164ERGO   ROH16723  10.697  12.243   7.797 -0.0025  0.1556 -0.1420
 1164ERGO    R116724  10.760  11.968   7.817 -0.0481  0.1529 -0.0284
 1164ERGO    R216725  10.876  11.827   7.610 -0.1277  0.0338  0.0082
 1164ERGO    R316726  11.061  11.764   7.799 -0.0900  0.0886 -0.0098
 1164ERGO    R416727  11.030  11.519   7.642  0.0018  0.0928 -0.0383
 1164ERGO    R516728  11.011  11.537   7.858  0.0066  0.0598 -0.0338
 1164ERGO    C116729  11.292  11.280   7.838  0.1126  0.1784 -0.0824
 1164ERGO    C216730  11.609  11.189   7.996  0.0319  0.1085 -0.2640
 1165ERGO   ROH16731  13.806   0.028   5.923  0.2064  0.0307  0.0271
 1165ERGO    R116732  13.773  -0.100   6.173  0.0385  0.0707  0.0263
 1165ERGO    R216733  13.979  -0.234   6.300 -0.0563  0.0621  0.1686
 1165ERGO    R316734  13.915  -0.069   6.507 -0.1587  0.0977  0.1101
 1165ERGO    R416735  14.025  -0.309   6.635  0.2435  0.3096  0.1882
 1165ERGO    R516736  13.832  -0.216   6.677  0.1365  0.0762  0.2445
 1165ERGO    C116737  13.991  -0.197   7.023  0.3221  0.4871  0.1447
 1165ERGO    C216738  13.975  -0.213   7.451 -0.3819 -0.0581  0.0770
 1166ERGO   ROH16739  11.987   7.911   6.388  0.0628  0.1557  0.0011
 1166ERGO    R116740  12.126   7.765   6.587 -0.1093  0.0751  0.0642
 1166ERGO    R216741  12.349   7.865   6.716 -0.0391 -0.0998  0.0779
 1166ERGO    R316742  12.205   7.808   6.940 -0.1337  0.0907  0.0682
 1166ERGO    R416743  12.431   7.969   7.035 -0.0498 -0.0122  0.0525
 1166ERGO    R516744  12.371   7.773   7.109 -0.1964  0.0566  0.1245
 1166ERGO    C116745  12.344   7.977   7.431 -0.1448  0.2178  0.0286
 1166ERGO    C216746  12.354   8.242   7.663 -0.1416  0.1532 -0.0402
 1167ERGO   ROH16747  18.169  16.043   6.298  0.1121  0.2096  0.0201
 1167ERGO    R116748  18.155  16.217   6.521  0.0733  0.1007  0.1029
 1167ERGO    R216749  17.921  16.344   6.597  0.1139  0.2497 -0.0213
 1167ERGO    R316750  17.974  16.227   6.837 -0.1759  0.0765 -0.0364
 1167ERGO    R416751  17.758  16.417   6.893  0.0870  0.4013 -0.0726
 1167ERGO    R516752  17.950  16.404   6.996  0.0275  0.0644  0.0135
 1167ERGO    C116753  17.713  16.350   7.290 -0.2010  0.3269 -0.1167
 1167ERGO    C216754  17.570  16.158   7.505  0.3726  0.0169  0.0445
 1168ERGO   ROH16755  17.023   1.760   6.096 -0.2025 -0.0271 -0.1194
 1168ERGO    R116756  16.810   1.691   6.269 -0.0780  0.0379  0.0629
 1168ERGO    R216757  16.849   1.550   6.503  0.0861  0.0825  0.0640
 1168ERGO    R316758  16.716   1.760   6.613  0.2005  0.1238  0.1239
 1168ERGO    R416759  16.765   1.576   6.837 -0.0061 -0.0242  0.0501
 1168ERGO    R516760  16.573   1.660   6.777  0.0731  0.1446  0.0264
 1168ERGO    C116761  16.592   1.789   7.136  0.0474 -0.0475  0.0982
 1168ERGO    C216762  16.690   1.811   7.508  0.3875 -0.3555 -0.0121
 1169ERGO   ROH16763   8.657  16.486   5.917 -0.1782  0.0074  0.0736
 1169ERGO    R116764   8.890  16.485   6.079 -0.1377 -0.1770  0.0181
 1169ERGO    R216765   8.981  16.711   6.209  0.1697 -0.2018 -0.1379
 1169ERGO    R316766   8.969  16.550   6.428  0.0201 -0.0600 -0.0394
 1169ERGO    R416767   9.123  16.784   6.515  0.0066 -0.0355 -0.0998
 1169ERGO    R516768   9.184  16.575   6.531 -0.0370 -0.0332  0.0684
 1169ERGO    C116769   9.196  16.675   6.899 -0.2287  0.1942  0.0149
 1169ERGO    C216770   9.381  16.695   7.206 -0.2252  0.1863  0.1929
 1170ERGO   ROH16771  14.247   6.438   6.018  0.1451 -0.0225  0.2028
 1170ERGO    R116772  14.240   6.359   6.290  0.0294  0.0293  0.2151
 1170ERGO    R216773  14.029   6.422   6.457 -0.1152 -0.0709  0.0732
 1170ERGO    R316774  14.025   6.154   6.500  0.0318 -0.0660  0.1254
 1170ERGO    R416775  13.905   6.270   6.741 -0.2536 -0.0947  0.0009
 1170ERGO    R516776  14.073   6.130   6.734 -0.1498  0.0170  0.1724
 1170ERGO    C116777  13.829   5.929   6.947 -0.1962 -0.1039  0.0079
 1170ERGO    C216778  13.889   5.710   7.208 -0.2163 -0.0759  0.1062
 1171ERGO   ROH16779   2.398   7.117   6.220 -0.0403 -0.2163  0.0452
 1171ERGO    R116780   2.406   7.177   6.497 -0.2315 -0.2492  0.0599
 1171ERGO    R216781   2.449   7.433   6.592  0.2235 -0.3346  0.1171
 1171ERGO    R316782   2.217   7.386   6.728 -0.0528  0.1620 -0.1571
 1171ERGO    R416783   2.377   7.556   6.907  0.1644 -0.2877  0.0847
 1171ERGO    R516784   2.286   7.363   6.956 -0.3592 -0.0997 -0.0862
 1171ERGO    C116785   2.118   7.584   7.217 -0.1294  0.2059 -0.1915
 1171ERGO    C216786   2.139   7.643   7.504  0.3181 -0.0379 -0.0526
 1172ERGO   ROH16787  14.380   9.548   5.941 -0.3447  0.1839 -0.2866
 1172ERGO    R116788  14.483   9.497   6.199 -0.1467  0.4368 -0.3110
 1172ERGO    R216789  14.404   9.638   6.421 -0.3724  0.3120 -0.3045
 1172ERGO    R316790  14.351   9.391   6.521  0.1737  0.2052 -0.2521
 1172ERGO    R416791  14.385   9.562   6.758 -0.2177  0.3337 -0.2908
 1172ERGO    R516792  14.491   9.375   6.716  0.2040  0.5541 -0.2435
 1172ERGO    C116793  14.325   9.285   7.048  0.3850  0.2460 -0.2336
 1172ERGO    C216794  14.444   9.284   7.309 -0.4068 -0.0316 -0.1007
 1173ERGO   ROH16795  14.642   7.472   6.162 -0.0797  0.4625 -0.0354
 1173ERGO    R116796  14.507   7.477   6.410  0.0254  0.3961  0.0246
 1173ERGO    R216797  14.532   7.276   6.599  0.0080  0.2817 -0.0897
 1173ERGO    R316798  14.600   7.482   6.762  0.1760  0.1653 -0.0110
 1173ERGO    R416799  14.482   7.282   6.940 -0.0795  0.2397 -0.1019
 1173ERGO    R516800  14.424   7.491   6.923  0.1420  0.3040 -0.0583
 1173ERGO    C116801  14.517   7.479   7.293  0.0272  0.1061 -0.0350
 1173ERGO    C216802  14.690   7.419   7.640 -0.1321 -0.3062 -0.0253
 1174ERGO   ROH16803   6.725  12.794   7.034  0.0248 -0.0777  0.2927
 1174ERGO    R116804   6.585  12.925   7.242  0.1311 -0.0931  0.3741
 1174ERGO    R216805   6.710  13.023   7.467  0.3131  0.2640  0.1210
 1174ERGO    R316806   6.588  13.255   7.396 -0.0997  0.0470  0.0927
 1174ERGO    R416807   6.639  13.283   7.683  0.5050  0.4405 -0.0234
 1174ERGO    R516808   6.447  13.308   7.582  0.2412  0.1058  0.3498
 1174ERGO    C116809   6.482  13.653   7.742  0.2292  0.3395 -0.1342
 1174ERGO    C216810   6.399  13.901   8.021  0.0517  0.0307 -0.3809
 1175ERGO   ROH16811   0.870   3.215   5.982 -0.3517 -0.1263 -0.0203
 1175ERGO    R116812   0.855   3.143   6.255 -0.1691  0.0287  0.0333
 1175ERGO    R216813   1.043   3.224   6.442 -0.0131  0.0904 -0.1465
 1175ERGO    R316814   0.824   3.317   6.573  0.1032  0.2130 -0.0379
 1175ERGO    R416815   1.001   3.218   6.785  0.0321 -0.1533 -0.1433
 1175ERGO    R516816   0.792   3.163   6.754 -0.0327  0.0925 -0.1623
 1175ERGO    C116817   0.771   3.303   7.108  0.1676 -0.1802 -0.0395
 1175ERGO    C216818   0.708   3.190   7.341 -0.0349  0.0692 -0.3142
 1176ERGO   ROH16819  16.515   2.972   5.946  0.1336  0.1155  0.1473
 1176ERGO    R116820  16.440   2.992   6.219 -0.0249 -0.1058  0.1203
 1176ERGO    R216821  16.348   3.227   6.331  0.1263 -0.1452  0.3027
 1176ERGO    R316822  16.137   3.072   6.404 -0.0734 -0.0244  0.0145
 1176ERGO    R416823  16.106   3.318   6.560  0.2908 -0.2566  0.5273
 1176ERGO    R516824  16.110   3.115   6.638  0.0345 -0.4466  0.1242
 1176ERGO    C116825  15.767   3.226   6.762  0.1992 -0.2081  0.3876
 1176ERGO    C216826  15.519   3.144   6.839  0.3034  0.0563 -0.2443
 1177ERGO   ROH16827   8.269   5.738   6.109  0.1798 -0.2652 -0.0823
 1177ERGO    R116828   8.074   5.724   6.314  0.0763 -0.3876 -0.1880
 1177ERGO    R216829   8.030   5.494   6.461  0.3710 -0.3246  0.0047
 1177ERGO    R316830   8.072   5.660   6.672 -0.0314 -0.0433 -0.1232
 1177ERGO    R416831   7.902   5.447   6.778  0.3431 -0.2952 -0.0017
 1177ERGO    R516832   7.863   5.661   6.790 -0.0858 -0.3483 -0.2066
 1177ERGO    C116833   7.866   5.575   7.161 -0.0510 -0.0141 -0.1255
 1177ERGO    C216834   7.764   5.803   7.486  0.0875  0.2798 -0.2266
 1178ERGO   ROH16835  12.299   3.934   5.631  0.1646  0.0858 -0.0225
 1178ERGO    R116836  12.328   3.899   5.911  0.1711  0.0073 -0.0343
 1178ERGO    R216837  12.573   3.910   6.038  0.1589  0.0431 -0.0328
 1178ERGO    R316838  12.449   4.098   6.191  0.1043 -0.0453  0.0358
 1178ERGO    R416839  12.654   3.983   6.366 -0.0401 -0.2638  0.0896
 1178ERGO    R516840  12.441   4.001   6.409 -0.0764 -0.2377 -0.0454
 1178ERGO    C116841  12.585   4.201   6.700 -0.2074 -0.5255  0.2253
 1178ERGO    C216842  12.605   4.329   7.015 -0.1028  0.1307 -0.4446
 1179ERGO   ROH16843  17.449  17.681   6.221 -0.0791  0.0169  0.0251
 1179ERGO    R116844  17.637  17.838   6.364 -0.0108 -0.0307 -0.0135
 1179ERGO    R216845  17.564  18.007   6.569  0.0873 -0.0940  0.0690
 1179ERGO    R316846  17.750  17.866   6.708  0.1512 -0.1357 -0.0557
 1179ERGO    R416847  17.681  18.092   6.883  0.1974 -0.2000  0.0581
 1179ERGO    R516848  17.881  18.034   6.818  0.1810 -0.1632 -0.0421
 1179ERGO    C116849  17.924  18.009   7.197  0.3213 -0.3010 -0.0653
 1179ERGO    C216850  17.934  17.863   7.402 -0.0379  0.0766 -0.0174
 1180ERGO   ROH16851   2.115   8.705   6.470  0.0120  0.1035 -0.1174
 1180ERGO    R116852   2.205   8.634   6.729 -0.0274  0.0668 -0.1132
 1180ERGO    R216853   2.154   8.788   6.951  0.0269  0.0896 -0.1137
 1180ERGO    R316854   2.052   8.556   7.050 -0.0737  0.1309 -0.1204
 1180ERGO    R416855   2.115   8.717   7.287  0.1743  0.0181 -0.1110
 1180ERGO    R516856   2.182   8.514   7.247  0.0115 -0.0152 -0.2086
 1180ERGO    C116857   1.996   8.458   7.575  0.1656  0.0153 -0.1158
 1180ERGO    C216858   1.851   8.265   7.792  0.1138 -0.2760 -0.0202
 1181ERGO   ROH16859   8.127  12.303   6.478  0.3062  0.1634 -0.0461
 1181ERGO    R116860   7.914  12.309   6.663  0.2252  0.0768 -0.1342
 1181ERGO    R216861   7.916  12.164   6.898  0.1286 -0.0235 -0.1909
 1181ERGO    R316862   7.868  12.407   7.011  0.0737 -0.0716 -0.1118
 1181ERGO    R416863   7.882  12.222   7.237 -0.0588 -0.1675 -0.1845
 1181ERGO    R516864   7.720  12.360   7.193 -0.0281 -0.1447 -0.2146
 1181ERGO    C116865   7.817  12.483   7.540 -0.2194 -0.2965 -0.1066
 1181ERGO    C216866   7.729  12.522   7.941  0.0147  0.1338 -0.3360
 1182ERGO   ROH16867   6.566   5.326   6.137  0.0260  0.0766  0.1362
 1182ERGO    R116868   6.560   5.267   6.414 -0.1171 -0.0457  0.1084
 1182ERGO    R216869   6.411   5.059   6.519 -0.0390 -0.2007 -0.0801
 1182ERGO    R316870   6.650   4.985   6.626 -0.0550 -0.0730  0.0463
 1182ERGO    R416871   6.449   4.840   6.783 -0.0612 -0.1833 -0.0627
 1182ERGO    R516872   6.606   4.968   6.861 -0.1718 -0.0987  0.0235
 1182ERGO    C116873   6.695   4.642   7.038 -0.0892 -0.0534  0.0662
 1182ERGO    C216874   6.738   4.550   7.426 -0.0639 -0.0504  0.2541
 1183ERGO   ROH16875   3.325  17.778   6.134  0.0673  0.0905 -0.0059
 1183ERGO    R116876   3.384  17.946   6.354  0.2078  0.0193  0.0110
 1183ERGO    R216877   3.220  17.966   6.575  0.1448  0.2468 -0.0562
 1183ERGO    R316878   3.447  17.903   6.709  0.0118 -0.0553  0.0390
 1183ERGO    R416879   3.289  18.060   6.900  0.2359  0.3812 -0.1134
 1183ERGO    R516880   3.495  18.098   6.840  0.3270 -0.0280 -0.1039
 1183ERGO    C116881   3.544  18.056   7.216  0.1641  0.1758 -0.0574
 1183ERGO    C216882   3.472  18.070   7.583 -0.1867  0.0162 -0.0951
 1184ERGO   ROH16883   5.249  17.650   6.188  0.0974 -0.3154 -0.0211
 1184ERGO    R116884   5.178  17.589   6.456  0.0763 -0.0743  0.0311
 1184ERGO    R216885   5.250  17.351   6.577 -0.2327 -0.1172  0.1354
 1184ERGO    R316886   5.355  17.517   6.766  0.0562 -0.1653  0.0223
 1184ERGO    R416887   5.306  17.265   6.908 -0.1880 -0.0551  0.1443
 1184ERGO    R516888   5.235  17.463   6.966  0.0775  0.0587  0.0996
 1184ERGO    C116889   5.436  17.371   7.276  0.1092 -0.0645  0.0433
 1184ERGO    C216890   5.439  17.150   7.565  0.0507 -0.0139 -0.0299
 1185ERGO   ROH16891  10.563   4.481   5.817  0.1889  0.0024 -0.0255
 1185ERGO    R116892  10.541   4.613   6.066  0.1224  0.2393 -0.1538
 1185ERGO    R216893  10.617   4.495   6.304 -0.3227  0.3024  0.0271
 1185ERGO    R316894  10.768   4.720   6.330  0.0095  0.0903  0.0071
 1185ERGO    R416895  10.780   4.592   6.593 -0.2106  0.1065  0.0326
 1185ERGO    R516896  10.721   4.798   6.551  0.0948  0.1939 -0.0081
 1185ERGO    C116897  11.015   4.861   6.786  0.1665 -0.2067  0.0171
 1185ERGO    C216898  11.123   4.833   7.034 -0.1187  0.0652  0.0035
 1186ERGO   ROH16899  14.224  16.691   6.151 -0.3247 -0.0809  0.0008
 1186ERGO    R116900  14.140  16.620   6.412 -0.0677 -0.2007  0.0540
 1186ERGO    R216901  14.279  16.441   6.570  0.3417  0.0710  0.0118
 1186ERGO    R316902  14.275  16.646   6.749  0.0584  0.0919 -0.0147
 1186ERGO    R416903  14.264  16.403   6.913  0.4281  0.0867  0.0179
 1186ERGO    R516904  14.125  16.571   6.921  0.1781 -0.1096  0.0079
 1186ERGO    C116905  14.250  16.573   7.281  0.2125  0.1156 -0.0033
 1186ERGO    C216906  14.365  16.437   7.556  0.3595 -0.0575 -0.0958
 1187ERGO   ROH16907   4.274   9.772   6.139 -0.1588  0.0885 -0.0625
 1187ERGO    R116908   4.310   9.698   6.410 -0.0411 -0.0735 -0.1206
 1187ERGO    R216909   4.181   9.827   6.618  0.1799 -0.0838  0.0279
 1187ERGO    R316910   4.099   9.576   6.680  0.0392 -0.0582 -0.0514
 1187ERGO    R416911   4.054   9.731   6.924  0.1189 -0.1110 -0.0060
 1187ERGO    R516912   4.167   9.546   6.908  0.0160 -0.1675 -0.0597
 1187ERGO    C116913   3.903   9.439   7.161 -0.0487 -0.1028 -0.1002
 1187ERGO    C216914   3.863   9.510   7.442 -0.0531 -0.5532 -0.0526
 1188ERGO   ROH16915   6.188   3.884   6.194 -0.2009  0.1701 -0.0296
 1188ERGO    R116916   6.258   3.921   6.466 -0.0481  0.0924 -0.0571
 1188ERGO    R216917   6.435   4.117   6.549 -0.1191  0.1689 -0.0868
 1188ERGO    R316918   6.229   4.188   6.712 -0.0610 -0.0347  0.0811
 1188ERGO    R416919   6.464   4.316   6.830 -0.0683  0.0868 -0.0332
 1188ERGO    R516920   6.323   4.186   6.932  0.0915 -0.0508  0.0172
 1188ERGO    C116921   6.289   4.499   7.146  0.0159 -0.1521  0.1558
 1188ERGO    C216922   6.237   4.638   7.509 -0.1180  0.2550 -0.0482
 1189ERGO   ROH16923  17.519   4.002   5.982 -0.0775 -0.1271 -0.1281
 1189ERGO    R116924  17.454   3.842   6.207  0.0649 -0.1973 -0.1349
 1189ERGO    R216925  17.645   3.705   6.352  0.1946 -0.0221 -0.1272
 1189ERGO    R316926  17.535   3.839   6.562  0.0550 -0.1264 -0.1337
 1189ERGO    R416927  17.681   3.616   6.684  0.3463  0.0839 -0.1145
 1189ERGO    R516928  17.471   3.667   6.715  0.2908 -0.1756 -0.0949
 1189ERGO    C116929  17.598   3.690   7.074  0.3036  0.0477 -0.1133
 1189ERGO    C216930  17.467   3.557   7.377 -0.2183 -0.2010  0.1278
 1190ERGO   ROH16931  14.556   1.224   6.240  0.0454  0.0887  0.1237
 1190ERGO    R116932  14.528   1.330   6.502 -0.0282  0.0279  0.1406
 1190ERGO    R216933  14.430   1.180   6.712  0.0056 -0.0517  0.1000
 1190ERGO    R316934  14.662   1.256   6.832 -0.0387  0.0184  0.1427
 1190ERGO    R416935  14.491   1.165   7.052  0.0455 -0.2928  0.0841
 1190ERGO    R516936  14.593   1.358   7.038 -0.0963 -0.2038  0.2360
 1190ERGO    C116937  14.745   1.228   7.362  0.0271 -0.3672  0.1149
 1190ERGO    C216938  14.890   1.280   7.775 -0.1484 -0.1380  0.2176
 1191ERGO   ROH16939   7.388  10.594   6.343  0.0155 -0.1880 -0.0653
 1191ERGO    R116940   7.489  10.722   6.575 -0.2806 -0.0496 -0.0092
 1191ERGO    R216941   7.391  10.671   6.828 -0.1114 -0.4651 -0.0267
 1191ERGO    R316942   7.651  10.619   6.884  0.0535  0.1928 -0.0957
 1191ERGO    R416943   7.533  10.698   7.141 -0.1711 -0.3430 -0.0086
 1191ERGO    R516944   7.710  10.784   7.048 -0.3923  0.2323  0.0460
 1191ERGO    C116945   7.861  10.665   7.377 -0.0511  0.3457 -0.0628
 1191ERGO    C216946   7.686  10.525   7.657  0.0277 -0.3579 -0.0019
 1192ERGO   ROH16947  16.007   0.463   6.080  0.1212  0.2838 -0.0594
 1192ERGO    R116948  16.066   0.515   6.351  0.1662  0.1713 -0.0471
 1192ERGO    R216949  15.891   0.454   6.556  0.0836  0.3334 -0.0677
 1192ERGO    R316950  16.105   0.319   6.656 -0.0707  0.0724 -0.0781
 1192ERGO    R416951  15.909   0.319   6.874 -0.0187  0.4133 -0.0272
 1192ERGO    R516952  16.116   0.387   6.885  0.0797  0.1362 -0.1033
 1192ERGO    C116953  16.121   0.114   7.152 -0.2234  0.2149 -0.0132
 1192ERGO    C216954  16.319  -0.098   7.248 -0.2305 -0.3920  0.0110
 1193ERGO   ROH16955   9.465   3.815   5.850 -0.1719 -0.0428 -0.0211
 1193ERGO    R116956   9.529   3.783   6.124  0.0045 -0.1196 -0.0696
 1193ERGO    R216957   9.383   3.903   6.326  0.2116 -0.0712  0.0529
 1193ERGO    R316958   9.365   3.648   6.419  0.1392 -0.0758  0.0273
 1193ERGO    R416959   9.357   3.815   6.659  0.2949 -0.0922  0.0536
 1193ERGO    R516960   9.493   3.649   6.621  0.2154 -0.1477 -0.0165
 1193ERGO    C116961   9.326   3.525   6.941  0.2756 -0.1088  0.0300
 1193ERGO    C216962   9.188   3.509   7.364  0.0521 -0.0065 -0.1656
 1194ERGO   ROH16963  16.742  16.818   6.413  0.0362 -0.0334  0.1290
 1194ERGO    R116964  16.704  16.788   6.692  0.1458  0.0005  0.1481
 1194ERGO    R216965  16.906  16.835   6.875  0.1580  0.2342  0.0787
 1194ERGO    R316966  16.722  17.003   6.985  0.0330  0.0918  0.0887
 1194ERGO    R416967  16.882  16.909   7.212 -0.0399  0.0257  0.1123
 1194ERGO    R516968  16.665  16.900   7.194 -0.0272 -0.0554  0.0005
 1194ERGO    C116969  16.696  17.108   7.511 -0.2721 -0.2293  0.1411
 1194ERGO    C216970  16.742  17.395   7.679  0.1487  0.2477  0.1589
 1195ERGO   ROH16971   0.146  16.955   6.290  0.1084 -0.1083  0.0520
 1195ERGO    R116972   0.085  16.903   6.562 -0.0529 -0.1010  0.0186
 1195ERGO    R216973   0.281  16.869   6.754 -0.1593 -0.3874  0.0812
 1195ERGO    R316974   0.144  17.065   6.882  0.0341 -0.2478  0.0782
 1195ERGO    R416975   0.292  16.926   7.094  0.1500 -0.1840  0.0407
 1195ERGO    R516976   0.077  16.965   7.090  0.1613 -0.0929  0.1968
 1195ERGO    C116977   0.170  17.145   7.413  0.5118  0.0656  0.0144
 1195ERGO    C216978   0.135  17.130   7.820  0.1146 -0.3223  0.2084
 1196ERGO   ROH16979   4.543   4.610   6.082 -0.0319  0.1801  0.1139
 1196ERGO    R116980   4.703   4.638   6.315 -0.1572  0.2709  0.1893
 1196ERGO    R216981   4.595   4.650   6.569 -0.2705 -0.0876  0.1596
 1196ERGO    R316982   4.766   4.445   6.616  0.0495  0.1507  0.0723
 1196ERGO    R416983   4.767   4.602   6.864 -0.4019 -0.0809  0.2390
 1196ERGO    R516984   4.942   4.543   6.747 -0.2072  0.3305  0.2973
 1196ERGO    C116985   5.029   4.382   7.081 -0.1780  0.1468  0.2032
 1196ERGO    C216986   5.347   4.403   7.286 -0.2431  0.1060 -0.1935
 1197ERGO   ROH16987   3.143   8.280   6.293  0.2946  0.0367 -0.2378
 1197ERGO    R116988   3.279   8.257   6.540  0.1311 -0.0377 -0.1528
 1197ERGO    R216989   3.486   8.078   6.580  0.1993  0.0466 -0.1139
 1197ERGO    R316990   3.621   8.300   6.659  0.0260  0.0742  0.1151
 1197ERGO    R416991   3.717   8.088   6.837  0.2980 -0.0665 -0.1972
 1197ERGO    R516992   3.634   8.280   6.897  0.1437 -0.2186  0.0859
 1197ERGO    C116993   3.978   8.302   7.060  0.1929 -0.1065 -0.0307
 1197ERGO    C216994   4.078   8.244   7.333 -0.1427 -0.2706  0.3387
 1198ERGO   ROH16995   5.140   0.964   6.388  0.1091 -0.0659  0.0336
 1198ERGO    R116996   5.077   0.963   6.663  0.1078 -0.1553  0.0332
 1198ERGO    R216997   5.103   0.739   6.822  0.3313 -0.1464  0.0116
 1198ERGO    R316998   5.254   0.904   6.976  0.1675 -0.0086  0.0279
 1198ERGO    R416999   5.154   0.700   7.161  0.3282 -0.0969  0.0180
 1198ERGO    R517000   5.136   0.916   7.183  0.1325 -0.1118  0.0143
 1198ERGO    C117001   5.325   0.833   7.504  0.1727  0.0612  0.0370
 1198ERGO    C217002   5.320   0.786   7.744 -0.0157  0.0302  0.1037
 1199ERGO   ROH17003   2.979   3.331   6.300  0.2601 -0.0018  0.1015
 1199ERGO    R117004   3.008   3.385   6.577  0.1711  0.0273  0.1048
 1199ERGO    R217005   2.859   3.578   6.707  0.1277  0.0356  0.0355
 1199ERGO    R317006   2.796   3.371   6.872  0.0790  0.0545  0.0416
 1199ERGO    R417007   2.809   3.604   7.048 -0.0741  0.1030  0.0024
 1199ERGO    R517008   2.915   3.416   7.074 -0.0437  0.1281  0.1030
 1199ERGO    C117009   2.720   3.425   7.401 -0.2373  0.1600 -0.0112
 1199ERGO    C217010   2.614   3.375   7.721  0.1950 -0.0491  0.0761
 1200ERGO   ROH17011   6.541   2.806   6.209 -0.0725 -0.0326 -0.0250
 1200ERGO    R117012   6.439   2.731   6.463 -0.0918 -0.0053 -0.0240
 1200ERGO    R217013   6.231   2.551   6.492 -0.1309  0.0368 -0.0215
 1200ERGO    R317014   6.407   2.423   6.654 -0.1578  0.0057 -0.0179
 1200ERGO    R417015   6.159   2.435   6.809 -0.2162 -0.1332 -0.1028
 1200ERGO    R517016   6.355   2.503   6.874 -0.2584 -0.1131  0.0015
 1200ERGO    C117017   6.282   2.247   7.146 -0.2911 -0.2614 -0.1466
 1200ERGO    C217018   6.088   2.212   7.365 -0.0570 -0.0446  0.1024
 1201ERGO   ROH17019  12.981  12.377   6.433  0.0670  0.3515  0.0499
 1201ERGO    R117020  12.910  12.222   6.659  0.1284  0.1902 -0.0393
 1201ERGO    R217021  13.044  12.240   6.900  0.1507  0.0677 -0.0434
 1201ERGO    R317022  12.795  12.287   6.999  0.1512 -0.0536  0.0173
 1201ERGO    R417023  12.960  12.233   7.235  0.2399  0.0204 -0.0219
 1201ERGO    R517024  12.774  12.134   7.182  0.2723 -0.0697  0.0211
 1201ERGO    C117025  12.678  12.274   7.523  0.2925 -0.1210  0.0476
 1201ERGO    C217026  12.371  12.237   7.782 -0.1742  0.0708 -0.0797
 1202ERGO   ROH17027  13.455   7.294   6.415 -0.0497  0.1519 -0.0989
 1202ERGO    R117028  13.500   7.247   6.690 -0.3230 -0.2220 -0.1105
 1202ERGO    R217029  13.599   7.442   6.860  0.2755 -0.6679  0.0842
 1202ERGO    R317030  13.376   7.382   7.005 -0.0143 -0.0335 -0.0647
 1202ERGO    R417031  13.540   7.547   7.184  0.4277 -0.5962  0.0894
 1202ERGO    R517032  13.457   7.350   7.228 -0.2252 -0.3781 -0.0279
 1202ERGO    C117033  13.297   7.552   7.508  0.2443  0.0412 -0.0475
 1202ERGO    C217034  13.247   7.867   7.656 -0.0300  0.1652 -0.0931
 1203ERGO   ROH17035   5.774   6.406   6.112  0.0993 -0.1358 -0.2442
 1203ERGO    R117036   5.899   6.220   6.285  0.1626  0.0085 -0.1321
 1203ERGO    R217037   6.013   5.985   6.194  0.0911 -0.0940  0.0276
 1203ERGO    R317038   6.232   6.078   6.324  0.1651  0.0078 -0.1682
 1203ERGO    R417039   6.288   5.794   6.280  0.1546 -0.0129  0.0037
 1203ERGO    R517040   6.296   5.900   6.470  0.2634  0.1197 -0.0787
 1203ERGO    C117041   6.654   5.772   6.452  0.2611  0.1298 -0.1939
 1203ERGO    C217042   6.886   5.580   6.752  0.3016 -0.1636 -0.3081
 1204ERGO   ROH17043   2.312  15.997   6.127 -0.0185 -0.1241  0.0547
 1204ERGO    R117044   2.140  15.911   6.336  0.0656 -0.1153  0.1290
 1204ERGO    R217045   2.234  15.841   6.586  0.1522  0.0444  0.1462
 1204ERGO    R317046   2.052  16.026   6.670  0.0783 -0.0051  0.0937
 1204ERGO    R417047   2.128  15.880   6.913 -0.0950 -0.1000  0.0849
 1204ERGO    R517048   1.926  15.911   6.838 -0.0395 -0.0823 -0.0491
 1204ERGO    C117049   1.896  16.074   7.182 -0.3082 -0.2305 -0.0001
 1204ERGO    C217050   1.753  16.182   7.503  0.1492 -0.0839 -0.0394
 1205ERGO   ROH17051  16.326  13.095   6.229  0.1117 -0.1756 -0.0968
 1205ERGO    R117052  16.353  13.046   6.507 -0.0569 -0.1375 -0.0731
 1205ERGO    R217053  16.318  12.795   6.617  0.2113 -0.1900 -0.1125
 1205ERGO    R317054  16.566  12.840   6.719  0.0629  0.1684  0.1123
 1205ERGO    R417055  16.433  12.671   6.918  0.2096 -0.2944 -0.1538
 1205ERGO    R517056  16.530  12.863   6.955 -0.1643 -0.1379  0.1177
 1205ERGO    C117057  16.733  12.641   7.189  0.0690 -0.0187  0.0333
 1205ERGO    C217058  16.992  12.688   7.394  0.1014 -0.0547 -0.1177
 1206ERGO   ROH17059   0.899   3.620   6.202 -0.0177 -0.0353 -0.0074
 1206ERGO    R117060   0.935   3.734   6.458 -0.1298  0.0812 -0.0433
 1206ERGO    R217061   0.740   3.888   6.581 -0.3562 -0.2193 -0.0182
 1206ERGO    R317062   0.773   3.709   6.783  0.0105 -0.1259  0.0128
 1206ERGO    R417063   0.601   3.917   6.896 -0.2399 -0.3459  0.0468
 1206ERGO    R517064   0.788   3.844   6.981 -0.0840 -0.0532 -0.0285
 1206ERGO    C117065   0.551   3.766   7.269  0.1721 -0.3319  0.1138
 1206ERGO    C217066   0.315   3.660   7.426 -0.0624 -0.0388 -0.1043
 1207ERGO   ROH17067   3.063   1.095   6.193  0.1256 -0.2440  0.0940
 1207ERGO    R117068   2.962   1.063   6.456 -0.0745 -0.0103  0.0480
 1207ERGO    R217069   3.124   1.071   6.679 -0.2036 -0.0963  0.1401
 1207ERGO    R317070   2.948   1.262   6.760 -0.0365  0.1432 -0.0480
 1207ERGO    R417071   3.099   1.192   7.002 -0.3429 -0.0342  0.1075
 1207ERGO    R517072   2.882   1.193   6.980 -0.3316  0.2447 -0.0966
 1207ERGO    C117073   2.920   1.443   7.266 -0.2671  0.2267 -0.0881
 1207ERGO    C217074   2.899   1.485   7.583  0.0266 -0.1409  0.0056
 1208ERGO   ROH17075   0.324  12.371   6.291 -0.0258 -0.3383 -0.2348
 1208ERGO    R117076   0.240  12.422   6.556  0.1913 -0.2092 -0.1885
 1208ERGO    R217077   0.000  12.328   6.657  0.1227  0.1084 -0.0459
 1208ERGO    R317078   0.160  12.224   6.851  0.1009 -0.0876 -0.1300
 1208ERGO    R417079  -0.080  12.316   6.993  0.2561  0.1490 -0.0120
 1208ERGO    R517080   0.127  12.369   7.039  0.3358 -0.0747 -0.0946
 1208ERGO    C117081   0.024  12.212   7.371  0.3133 -0.0113 -0.0711
 1208ERGO    C217082  -0.095  12.297   7.630 -0.1125 -0.0280 -0.0436
 1209ERGO   ROH17083  13.486   4.363   5.858  0.0654 -0.1923 -0.1269
 1209ERGO    R117084  13.465   4.322   6.137 -0.0890 -0.1080 -0.1244
 1209ERGO    R217085  13.579   4.106   6.265 -0.0970 -0.0340  0.0159
 1209ERGO    R317086  13.694   4.298   6.419 -0.2477  0.0529  0.0208
 1209ERGO    R417087  13.694   4.057   6.587  0.0952 -0.0011 -0.0475
 1209ERGO    R517088  13.613   4.253   6.640 -0.1047 -0.1050  0.0427
 1209ERGO    C117089  13.869   4.209   6.920  0.0657  0.0997 -0.0797
 1209ERGO    C217090  14.194   4.195   7.078  0.0400 -0.2913 -0.1460
 1210ERGO   ROH17091   2.213  11.840   6.617  0.0584  0.3082 -0.0876
 1210ERGO    R117092   2.202  11.884   6.897  0.0669  0.1361 -0.0562
 1210ERGO    R217093   2.056  11.722   7.068  0.1563 -0.0422 -0.1273
 1210ERGO    R317094   2.294  11.701   7.197  0.1862 -0.0066 -0.1820
 1210ERGO    R417095   2.094  11.631   7.399  0.2581  0.0104 -0.1266
 1210ERGO    R517096   2.250  11.782   7.418  0.2450  0.0166 -0.1872
 1210ERGO    C117097   2.340  11.558   7.713  0.3454  0.0745 -0.1775
 1210ERGO    C217098   2.327  11.694   8.069 -0.0894  0.1021 -0.3978
 1211ERGO   ROH17099   2.190  12.783   6.385 -0.3341  0.0021  0.1232
 1211ERGO    R117100   2.344  12.765   6.622 -0.1262 -0.0401 -0.0104
 1211ERGO    R217101   2.426  12.988   6.762  0.0223 -0.0593 -0.0515
 1211ERGO    R317102   2.305  12.862   6.970  0.1851 -0.0729  0.0346
 1211ERGO    R417103   2.553  12.969   7.083  0.1717  0.0827 -0.1020
 1211ERGO    R517104   2.484  12.762   7.093  0.2876  0.0535 -0.0193
 1211ERGO    C117105   2.513  12.839   7.465  0.4115  0.1524 -0.0506
 1211ERGO    C217106   2.667  12.765   7.782  0.0187  0.1216 -0.2235
 1212ERGO   ROH17107  17.547   8.892   6.156  0.0113  0.0216  0.0787
 1212ERGO    R117108  17.677   8.769   6.376 -0.0537 -0.1104  0.0444
 1212ERGO    R217109  17.668   8.874   6.632  0.1494 -0.0791  0.0397
 1212ERGO    R317110  17.577   8.625   6.694 -0.1126  0.0250  0.0883
 1212ERGO    R417111  17.644   8.747   6.952  0.3648 -0.1145  0.0428
 1212ERGO    R517112  17.716   8.556   6.877  0.0192 -0.2005 -0.0910
 1212ERGO    C117113  17.546   8.440   7.198  0.2442 -0.0374  0.0903
 1212ERGO    C217114  17.419   8.423   7.505  0.1050 -0.2885  0.2740
 1213ERGO   ROH17115  12.215   3.496   5.652  0.1008 -0.1644  0.0228
 1213ERGO    R117116  12.202   3.419   5.923  0.3398 -0.2120  0.0219
 1213ERGO    R217117  12.408   3.465   6.101  0.2814  0.2582 -0.0261
 1213ERGO    R317118  12.213   3.586   6.247  0.0255 -0.1957  0.0282
 1213ERGO    R417119  12.418   3.510   6.444  0.3948  0.4862 -0.0563
 1213ERGO    R517120  12.205   3.460   6.451  0.5198 -0.1126  0.1132
 1213ERGO    C117121  12.241   3.649   6.780  0.2205  0.1928 -0.0230
 1213ERGO    C217122  12.338   3.835   6.926 -0.0855 -0.0400  0.2690
 1214ERGO   ROH17123   3.612   4.102   6.262  0.0675 -0.0348  0.0309
 1214ERGO    R117124   3.750   4.049   6.504 -0.0575 -0.2135  0.0648
 1214ERGO    R217125   3.728   4.212   6.726  0.1420 -0.1507  0.0363
 1214ERGO    R317126   3.661   3.979   6.850 -0.2326 -0.0379  0.0580
 1214ERGO    R417127   3.727   4.163   7.068  0.3390 -0.1860  0.0337
 1214ERGO    R517128   3.811   3.965   7.036 -0.0907 -0.3674 -0.0709
 1214ERGO    C117129   3.663   3.917   7.384  0.1020 -0.1006  0.0526
 1214ERGO    C217130   3.518   3.957   7.705  0.2251  0.0892  0.1365
 1215ERGO   ROH17131  10.424   7.638   5.812  0.2477  0.1275  0.1131
 1215ERGO    R117132  10.253   7.716   6.024  0.0743  0.3855 -0.1123
 1215ERGO    R217133  10.272   7.608   6.277 -0.5777  0.1719 -0.1263
 1215ERGO    R317134  10.292   7.869   6.352 -0.0894  0.0937  0.0440
 1215ERGO    R417135  10.225   7.726   6.599 -0.4432  0.0803 -0.0736
 1215ERGO    R517136  10.120   7.898   6.515 -0.0803  0.3384  0.0024
 1215ERGO    C117137  10.217   8.040   6.855  0.0936 -0.0464  0.1169
 1215ERGO    C217138  10.288   8.015   7.163 -0.0410  0.0906 -0.0105
 1216ERGO   ROH17139  11.331  17.670   7.145  0.3761 -0.2036  0.0119
 1216ERGO    R117140  11.357  17.634   7.424  0.2922 -0.0439  0.0412
 1216ERGO    R217141  11.452  17.832   7.591  0.0994  0.1034 -0.0223
 1216ERGO    R317142  11.219  17.786   7.724  0.0773  0.0213 -0.0882
 1216ERGO    R417143  11.415  17.846   7.935  0.0297 -0.0415 -0.0233
 1216ERGO    R517144  11.286  17.670   7.923  0.0517 -0.0528 -0.1218
 1216ERGO    C117145  11.175  17.810   8.260 -0.0317 -0.2028 -0.0859
 1216ERGO    C217146  11.240  17.872   8.503 -0.0104  0.1300 -0.1416
 1217ERGO   ROH17147  16.490  16.432   6.336  0.1221 -0.1847 -0.1150
 1217ERGO    R117148  16.510  16.324   6.597  0.2278 -0.1852 -0.1223
 1217ERGO    R217149  16.743  16.336   6.746  0.2092  0.0661 -0.1049
 1217ERGO    R317150  16.580  16.450   6.931  0.0642 -0.1306 -0.1084
 1217ERGO    R417151  16.827  16.389   7.077  0.1133  0.1184 -0.0892
 1217ERGO    R517152  16.625  16.329   7.133  0.1713 -0.1060 -0.1187
 1217ERGO    C117153  16.722  16.528   7.443 -0.0785 -0.0356 -0.0834
 1217ERGO    C217154  16.795  16.596   7.719  0.0251 -0.0217  0.2529
 1218ERGO   ROH17155   3.796  12.612   6.364 -0.0547  0.1377 -0.0430
 1218ERGO    R117156   3.891  12.698   6.617 -0.0357 -0.0892  0.0308
 1218ERGO    R217157   3.783  12.913   6.751  0.2382  0.0499  0.0467
 1218ERGO    R317158   3.755  12.733   6.953 -0.1461  0.0215 -0.0262
 1218ERGO    R417159   3.785  12.992   7.088  0.2355 -0.0766  0.0751
 1218ERGO    R517160   3.903  12.812   7.124 -0.0808 -0.2894  0.0617
 1218ERGO    C117161   3.760  12.868   7.473 -0.1269 -0.1769  0.0232
 1218ERGO    C217162   3.814  12.760   7.823 -0.0895 -0.2011  0.1101
 1219ERGO   ROH17163   3.324  10.973   6.042  0.0905 -0.0198  0.0325
 1219ERGO    R117164   3.228  11.134   6.254 -0.0622 -0.1430  0.0606
 1219ERGO    R217165   3.012  11.060   6.411  0.0532 -0.4177  0.1133
 1219ERGO    R317166   3.187  11.100   6.614  0.0621 -0.2129  0.0656
 1219ERGO    R417167   2.928  11.063   6.746  0.1117 -0.2090  0.1263
 1219ERGO    R517168   3.065  11.230   6.774  0.0495 -0.1487 -0.0081
 1219ERGO    C117169   3.044  11.102   7.132  0.1541  0.1048  0.0890
 1219ERGO    C217170   2.990  11.071   7.366 -0.3495  0.1606 -0.2008
 1220ERGO   ROH17171   6.152  11.265   6.674 -0.0283 -0.1555  0.0725
 1220ERGO    R117172   6.194  11.218   6.950 -0.0816 -0.0814  0.0934
 1220ERGO    R217173   6.292  11.412   7.121 -0.0439 -0.0582  0.0449
 1220ERGO    R317174   6.068  11.354   7.263 -0.0824  0.0582  0.0333
 1220ERGO    R417175   6.218  11.540   7.433 -0.0510  0.0717 -0.0093
 1220ERGO    R517176   6.143  11.344   7.490 -0.1184  0.1135  0.0479
 1220ERGO    C117177   5.964  11.560   7.748 -0.0913  0.2567 -0.0518
 1220ERGO    C217178   5.789  11.623   7.998 -0.0581  0.0232 -0.0746
 1221ERGO   ROH17179   2.850  15.153   6.340 -0.1894 -0.0525 -0.0726
 1221ERGO    R117180   2.750  15.255   6.585 -0.3369 -0.1674 -0.0830
 1221ERGO    R217181   2.662  15.090   6.789  0.0764 -0.2875  0.0114
 1221ERGO    R317182   2.841  15.232   6.936 -0.1741  0.1637 -0.1004
 1221ERGO    R417183   2.678  15.090   7.134  0.1716 -0.0923  0.0077
 1221ERGO    R517184   2.717  15.304   7.128 -0.2785 -0.0056 -0.1035
 1221ERGO    C117185   2.856  15.223   7.473 -0.0081  0.4450 -0.0994
 1221ERGO    C217186   2.929  15.478   7.671 -0.0717 -0.2155 -0.0040
 1222ERGO   ROH17187   7.711   0.306   5.821  0.0041 -0.2459  0.1561
 1222ERGO    R117188   7.714   0.403   6.086  0.0637 -0.1767  0.1312
 1222ERGO    R217189   7.484   0.482   6.218  0.1138  0.0233  0.1050
 1222ERGO    R317190   7.568   0.305   6.405 -0.0195  0.0112  0.1517
 1222ERGO    R417191   7.385   0.482   6.549  0.1824  0.2429  0.1265
 1222ERGO    R517192   7.590   0.435   6.605  0.1479  0.0651  0.0989
 1222ERGO    C117193   7.406   0.315   6.918  0.0972  0.3595  0.1829
 1222ERGO    C217194   7.146   0.026   7.043  0.1573  0.0090  0.0132
 1223ERGO   ROH17195   9.019   0.040   6.238  0.0247 -0.1666 -0.0234
 1223ERGO    R117196   9.019   0.125   6.508 -0.0329 -0.0717 -0.0537
 1223ERGO    R217197   8.823   0.050   6.688 -0.0071 -0.0997 -0.0419
 1223ERGO    R317198   9.036  -0.032   6.835  0.0207  0.0532  0.0051
 1223ERGO    R417199   8.837   0.053   7.033 -0.0911 -0.0820 -0.0384
 1223ERGO    R517200   9.043   0.122   7.019 -0.1318  0.0662  0.0052
 1223ERGO    C117201   9.045  -0.022   7.373 -0.1139  0.0722  0.0079
 1223ERGO    C217202   8.961  -0.183   7.651 -0.0360 -0.1252 -0.4011
 1224ERGO   ROH17203  18.243   7.887   6.169  0.0029  0.2089  0.0429
 1224ERGO    R117204  18.276   7.963   6.439  0.0607  0.1577  0.0503
 1224ERGO    R217205  18.138   8.174   6.552  0.0444  0.1006  0.1342
 1224ERGO    R317206  18.066   7.986   6.735  0.1384  0.0456  0.1156
 1224ERGO    R417207  18.022   8.242   6.871  0.0579  0.0139  0.1579
 1224ERGO    R517208  18.141   8.075   6.944  0.1321  0.0463  0.1193
 1224ERGO    C117209  17.888   8.105   7.228  0.1540 -0.0883  0.1543
 1224ERGO    C217210  17.644   7.971   7.546 -0.1948  0.0896 -0.0305
 1225ERGO   ROH17211   9.269   3.161   5.837  0.0272  0.2683 -0.0092
 1225ERGO    R117212   9.298   3.233   6.109 -0.2668  0.2019  0.0423
 1225ERGO    R217213   9.098   3.193   6.296 -0.2795 -0.3402 -0.0753
 1225ERGO    R317214   9.293   3.061   6.430 -0.0413  0.0255 -0.0444
 1225ERGO    R417215   9.134   3.189   6.639 -0.4120 -0.3656 -0.0608
 1225ERGO    R517216   9.349   3.205   6.612 -0.4200  0.1009  0.0258
 1225ERGO    C117217   9.338   3.061   6.965 -0.2655 -0.0370 -0.0235
 1225ERGO    C217218   9.487   3.118   7.304 -0.2940  0.1372  0.2455
 1226ERGO   ROH17219  17.484  11.317   6.043 -0.2741  0.2645  0.1464
 1226ERGO    R117220  17.445  11.202   6.299 -0.1781  0.0797  0.0789
 1226ERGO    R217221  17.558  10.961   6.373  0.0343  0.1377 -0.0614
 1226ERGO    R317222  17.654  11.107   6.581 -0.1000  0.1004  0.0293
 1226ERGO    R417223  17.731  10.831   6.642  0.0491  0.1099 -0.0835
 1226ERGO    R517224  17.621  10.967   6.772 -0.0640 -0.0124 -0.0427
 1226ERGO    C117225  17.921  10.892   6.995 -0.0683  0.0588 -0.0113
 1226ERGO    C217226  17.893  10.936   7.434  0.2303  0.0698 -0.1911
 1227ERGO   ROH17227   0.103   1.487   6.500 -0.0869  0.0810 -0.0604
 1227ERGO    R117228   0.085   1.541   6.778  0.0271 -0.0825 -0.0192
 1227ERGO    R217229   0.303   1.618   6.929  0.0434  0.0801 -0.1153
 1227ERGO    R317230   0.143   1.826   6.996 -0.1488 -0.1289  0.0875
 1227ERGO    R417231   0.346   1.817   7.208  0.1117  0.1172 -0.1524
 1227ERGO    R517232   0.129   1.816   7.235  0.1432 -0.1626  0.1027
 1227ERGO    C117233   0.219   2.128   7.434 -0.0291 -0.0574  0.0164
 1227ERGO    C217234   0.101   2.276   7.621  0.3647 -0.1571 -0.1101
 1228ERGO   ROH17235   0.491   3.498   6.082 -0.0380  0.2338  0.0234
 1228ERGO    R117236   0.497   3.482   6.364 -0.0271  0.1610  0.0196
 1228ERGO    R217237   0.308   3.606   6.524 -0.1003  0.0063  0.0554
 1228ERGO    R317238   0.279   3.356   6.627  0.0490 -0.0396 -0.0126
 1228ERGO    R417239   0.300   3.530   6.861 -0.1242 -0.0826  0.0350
 1228ERGO    R517240   0.421   3.354   6.820  0.0070  0.0108  0.0184
 1228ERGO    C117241   0.268   3.251   7.154  0.0020 -0.1775 -0.0408
 1228ERGO    C217242   0.172   3.150   7.371  0.3128 -0.0816 -0.0095
 1229ERGO   ROH17243  11.294  11.348   5.836 -0.4196  0.1239  0.1972
 1229ERGO    R117244  11.357  11.372   6.111 -0.2744  0.0354  0.1732
 1229ERGO    R217245  11.378  11.154   6.278 -0.1600 -0.0234  0.0896
 1229ERGO    R317246  11.623  11.259   6.332 -0.1421 -0.0145 -0.0109
 1229ERGO    R417247  11.541  11.129   6.582 -0.1139  0.1593  0.0807
 1229ERGO    R517248  11.606  11.336   6.558 -0.0968  0.1333 -0.0606
 1229ERGO    C117249  11.866  11.213   6.809 -0.0704  0.2741 -0.0190
 1229ERGO    C217250  11.955  11.116   7.131 -0.1655 -0.0910  0.2035
 1230ERGO   ROH17251   3.497  18.327   6.297 -0.0412  0.1220  0.0419
 1230ERGO    R117252   3.442  18.415   6.560 -0.0871  0.1624  0.0197
 1230ERGO    R217253   3.403  18.681   6.623 -0.0941  0.1756 -0.0255
 1230ERGO    R317254   3.170  18.589   6.729 -0.1147  0.1925 -0.0575
 1230ERGO    R417255   3.269  18.783   6.925  0.0178 -0.0356  0.0981
 1230ERGO    R517256   3.213  18.577   6.965 -0.0721 -0.0425 -0.0777
 1230ERGO    C117257   2.972  18.757   7.200  0.0637 -0.1428  0.1399
 1230ERGO    C217258   2.739  18.971   7.331 -0.1171 -0.0805  0.1189
 1231ERGO   ROH17259   5.390   4.172   6.112 -0.0061  0.1451 -0.0242
 1231ERGO    R117260   5.396   4.413   6.261  0.1362  0.1210  0.0134
 1231ERGO    R217261   5.283   4.435   6.513  0.0541  0.1791 -0.0184
 1231ERGO    R317262   5.531   4.522   6.581  0.1057 -0.0449  0.0808
 1231ERGO    R417263   5.364   4.594   6.809  0.0888  0.1413 -0.0090
 1231ERGO    R517264   5.494   4.727   6.697  0.2589  0.0008  0.0368
 1231ERGO    C117265   5.643   4.768   7.045  0.1576 -0.0910  0.0897
 1231ERGO    C217266   5.753   4.764   7.297  0.0022  0.0905  0.1308
 1232ERGO   ROH17267   2.093   1.544   6.295  0.0464 -0.0245  0.0201
 1232ERGO    R117268   2.117   1.517   6.576  0.2437  0.0750  0.0149
 1232ERGO    R217269   2.156   1.733   6.744 -0.1281  0.1975 -0.0426
 1232ERGO    R317270   1.937   1.633   6.870  0.1338 -0.2495  0.0782
 1232ERGO    R417271   2.049   1.827   7.059 -0.3082  0.1956 -0.1022
 1232ERGO    R517272   2.002   1.618   7.100  0.2175  0.1018  0.0800
 1232ERGO    C117273   1.782   1.787   7.361 -0.1672 -0.2251 -0.0236
 1232ERGO    C217274   1.815   1.845   7.624 -0.0543 -0.2359  0.0402
 1233ERGO   ROH17275   5.278   7.366   6.095 -0.0235 -0.0725  0.0391
 1233ERGO    R117276   5.220   7.141   6.256 -0.0127  0.0209  0.1731
 1233ERGO    R217277   5.279   6.883   6.179 -0.1419 -0.0306  0.2594
 1233ERGO    R317278   5.409   6.875   6.417 -0.0176  0.0289  0.1956
 1233ERGO    R417279   5.404   6.596   6.326 -0.1058 -0.0064  0.2774
 1233ERGO    R517280   5.335   6.671   6.519  0.0026  0.0659  0.2958
 1233ERGO    C117281   5.599   6.422   6.636  0.0320  0.0635  0.2280
 1233ERGO    C217282   5.677   6.224   6.841  0.0266 -0.0271 -0.1276
 1234ERGO   ROH17283   9.898  16.161   5.650 -0.1997  0.1351 -0.1251
 1234ERGO    R117284   9.780  16.092   5.897 -0.0659  0.1301 -0.0617
 1234ERGO    R217285   9.549  15.942   5.916 -0.0782  0.1620  0.0595
 1234ERGO    R317286   9.701  15.785   6.077 -0.0061  0.1254 -0.0433
 1234ERGO    R417287   9.423  15.722   6.151  0.0248  0.0685  0.0277
 1234ERGO    R517288   9.583  15.784   6.286  0.0625  0.0417 -0.0043
 1234ERGO    C117289   9.492  15.447   6.439  0.1523 -0.0203 -0.0873
 1234ERGO    C217290   9.297  15.114   6.310  0.2845 -0.2472  0.0707
 1235ERGO   ROH17291   7.537  17.628   5.965  0.0825 -0.0816  0.1014
 1235ERGO    R117292   7.720  17.738   6.151 -0.0098  0.0939  0.0907
 1235ERGO    R217293   7.698  17.996   6.246 -0.2714  0.0639  0.1183
 1235ERGO    R317294   7.705  17.873   6.488 -0.1130  0.0463  0.1058
 1235ERGO    R417295   7.853  18.123   6.528  0.1073 -0.0587 -0.0279
 1235ERGO    R517296   7.924  17.922   6.574  0.0124 -0.1125 -0.1119
 1235ERGO    C117297   7.950  18.081   6.919  0.4765 -0.1464 -0.1248
 1235ERGO    C217298   8.108  18.189   7.237 -0.0193 -0.1175  0.0059
 1236ERGO   ROH17299  16.794  11.885   6.100 -0.0644 -0.0597  0.0841
 1236ERGO    R117300  16.752  11.909   6.379 -0.0727 -0.1226  0.0886
 1236ERGO    R217301  16.787  11.698   6.554  0.0999 -0.1164  0.0644
 1236ERGO    R317302  16.953  11.872   6.680 -0.0302  0.0007  0.0760
 1236ERGO    R417303  16.896  11.665   6.880  0.3695 -0.2240 -0.0341
 1236ERGO    R517304  16.871  11.880   6.905  0.1138 -0.2712  0.1422
 1236ERGO    C117305  17.116  11.810   7.189  0.4045 -0.1769 -0.0805
 1236ERGO    C217306  17.176  11.741   7.550  0.0459  0.0064 -0.0202
 1237ERGO   ROH17307   3.934   6.663   5.903 -0.1367 -0.1139 -0.0671
 1237ERGO    R117308   3.902   6.491   6.126 -0.0088 -0.0358  0.0134
 1237ERGO    R217309   4.073   6.495   6.343  0.0637  0.1050 -0.0428
 1237ERGO    R317310   3.842   6.528   6.483  0.0985  0.0895  0.0183
 1237ERGO    R417311   4.042   6.454   6.685  0.1805  0.2266 -0.0167
 1237ERGO    R517312   3.849   6.357   6.650  0.1999  0.1572  0.0817
 1237ERGO    C117313   3.807   6.461   7.015  0.2811  0.2828  0.0558
 1237ERGO    C217314   4.045   6.465   7.279  0.0260 -0.2891  0.0190
 1238ERGO   ROH17315  15.090   6.294   6.341 -0.0087 -0.0478  0.1566
 1238ERGO    R117316  15.251   6.423   6.534  0.0051 -0.2265  0.2656
 1238ERGO    R217317  15.186   6.669   6.642  0.3085 -0.0533  0.0568
 1238ERGO    R317318  15.213   6.537   6.878 -0.1824  0.0230  0.1674
 1238ERGO    R417319  15.235   6.821   6.948  0.3913  0.0447 -0.0038
 1238ERGO    R517320  15.377   6.663   6.998  0.0113 -0.2563  0.2162
 1238ERGO    C117321  15.288   6.786   7.348 -0.0211  0.1734  0.0648
 1238ERGO    C217322  15.209   7.107   7.655 -0.0270  0.0568  0.1106
 1239ERGO   ROH17323  10.185  16.312   5.993 -0.1007  0.1592 -0.0843
 1239ERGO    R117324  10.077  16.339   6.253 -0.2777 -0.0107 -0.1375
 1239ERGO    R217325   9.895  16.159   6.359  0.0974 -0.4189 -0.1600
 1239ERGO    R317326  10.077  16.144   6.561  0.0609  0.0776 -0.0773
 1239ERGO    R417327   9.850  15.984   6.653  0.2746 -0.1770  0.0161
 1239ERGO    R517328   9.945  16.148   6.760 -0.0112  0.0897 -0.1247
 1239ERGO    C117329   9.994  15.867   7.014  0.3437  0.4297  0.1962
 1239ERGO    C217330   9.938  15.500   7.179 -0.2043 -0.0856 -0.0612
 1240ERGO   ROH17331   0.184   8.194   6.122 -0.2911 -0.0351 -0.0642
 1240ERGO    R117332   0.214   8.212   6.403 -0.1488  0.0277 -0.0829
 1240ERGO    R217333   0.033   8.347   6.564 -0.1003  0.0104 -0.0160
 1240ERGO    R317334   0.024   8.110   6.696  0.0315  0.0340  0.0380
 1240ERGO    R417335  -0.023   8.312   6.903 -0.0646  0.0561 -0.0047
 1240ERGO    R517336   0.128   8.155   6.907  0.0192  0.1360  0.0231
 1240ERGO    C117337  -0.065   8.069   7.225  0.0801  0.1049  0.0526
 1240ERGO    C217338  -0.264   7.834   7.337  0.0594  0.0466  0.0602
 1241ERGO   ROH17339   5.510  10.323   6.483  0.0706  0.0558 -0.0721
 1241ERGO    R117340   5.544  10.352   6.762  0.0316  0.0200 -0.0623
 1241ERGO    R217341   5.452  10.164   6.944 -0.0145  0.0022 -0.0922
 1241ERGO    R317342   5.710  10.168   7.029 -0.0246 -0.0292 -0.0647
 1241ERGO    R417343   5.554  10.124   7.272 -0.0367 -0.0127 -0.0880
 1241ERGO    R517344   5.703  10.279   7.240 -0.0221 -0.0368 -0.0687
 1241ERGO    C117345   5.856  10.103   7.542 -0.0592 -0.0508 -0.0598
 1241ERGO    C217346   6.198  10.078   7.731  0.1970 -0.0422 -0.0746
 1242ERGO   ROH17347  18.208  11.958   6.118 -0.0103  0.0449  0.0140
 1242ERGO    R117348  18.314  11.977   6.380  0.0096  0.1405  0.0007
 1242ERGO    R217349  18.171  12.085   6.591 -0.0435  0.0572  0.0158
 1242ERGO    R317350  18.230  11.847   6.709  0.1397  0.1041  0.0179
 1242ERGO    R417351  18.127  12.014   6.927 -0.0494 -0.0055  0.0006
 1242ERGO    R517352  18.316  11.907   6.924  0.0404  0.1635  0.0364
 1242ERGO    C117353  18.157  11.749   7.232  0.1194  0.0020 -0.0062
 1242ERGO    C217354  18.126  11.578   7.402 -0.2967  0.0016 -0.2735
 1243ERGO   ROH17355  13.482  17.643   5.682  0.0221  0.1018 -0.0584
 1243ERGO    R117356  13.547  17.672   5.956  0.2146  0.0992 -0.1005
 1243ERGO    R217357  13.661  17.901   6.059 -0.0582  0.2556 -0.1131
 1243ERGO    R317358  13.449  17.892   6.229  0.0898 -0.1543  0.0597
 1243ERGO    R417359  13.676  17.972   6.397  0.0866  0.1052 -0.0872
 1243ERGO    R517360  13.540  17.806   6.433  0.3757 -0.1155 -0.0565
 1243ERGO    C117361  13.485  18.005   6.753  0.3098 -0.3670  0.0900
 1243ERGO    C217362  13.529  18.069   7.058 -0.0028  0.1471  0.1019
 1244ERGO   ROH17363   4.556  13.646   6.435  0.0444 -0.0183  0.0070
 1244ERGO    R117364   4.434  13.447   6.596  0.0976  0.0034  0.0757
 1244ERGO    R217365   4.574  13.302   6.785  0.1460  0.0773  0.1003
 1244ERGO    R317366   4.377  13.391   6.951  0.1506  0.0910  0.0973
 1244ERGO    R417367   4.444  13.124   7.052 -0.0203  0.0027 -0.0290
 1244ERGO    R517368   4.246  13.197   6.998  0.0338  0.1371 -0.0415
 1244ERGO    C117369   4.185  13.104   7.363 -0.1129 -0.0281 -0.1070
 1244ERGO    C217370   4.259  12.849   7.637  0.0555  0.0586  0.0475
 1245ERGO   ROH17371   6.399   0.057   6.324  0.0174 -0.0768  0.0880
 1245ERGO    R117372   6.520   0.197   6.537  0.0077 -0.0336  0.0653
 1245ERGO    R217373   6.398   0.231   6.783 -0.0240  0.0581  0.0372
 1245ERGO    R317374   6.628   0.121   6.877 -0.0555  0.0487  0.1042
 1245ERGO    R417375   6.470   0.179   7.117 -0.1045  0.0977  0.0610
 1245ERGO    R517376   6.675   0.244   7.077 -0.0890  0.0724  0.0978
 1245ERGO    C117377   6.729   0.047   7.399 -0.1809  0.1119  0.1377
 1245ERGO    C217378   6.782  -0.098   7.730 -0.0678  0.1911 -0.1804
 1246ERGO   ROH17379  10.085  14.037   6.235 -0.1610  0.4496  0.0627
 1246ERGO    R117380  10.080  13.908   6.487 -0.0292  0.1760 -0.0710
 1246ERGO    R217381   9.974  14.027   6.713  0.1583 -0.0376  0.1294
 1246ERGO    R317382   9.825  13.801   6.724  0.0984 -0.0067 -0.0128
 1246ERGO    R417383   9.817  13.907   6.996  0.1064 -0.1532  0.0528
 1246ERGO    R517384   9.875  13.706   6.938  0.0605 -0.1396 -0.0582
 1246ERGO    C117385   9.585  13.624   7.171  0.0199 -0.1914 -0.1253
 1246ERGO    C217386   9.505  13.462   7.345 -0.2454  0.0227  0.1776
 1247ERGO   ROH17387   8.425  13.113   6.681 -0.0926 -0.2186 -0.0396
 1247ERGO    R117388   8.606  13.036   6.886  0.0262 -0.0717 -0.0876
 1247ERGO    R217389   8.617  12.778   6.985 -0.0061  0.0282  0.1793
 1247ERGO    R317390   8.880  12.799   6.921 -0.0420 -0.1444 -0.0369
 1247ERGO    R417391   8.873  12.607   7.143  0.0578  0.2701  0.3443
 1247ERGO    R517392   8.994  12.788   7.132  0.0918  0.2338 -0.0801
 1247ERGO    C117393   9.269  12.527   7.174  0.0612  0.2489  0.2374
 1247ERGO    C217394   9.550  12.412   7.272  0.2792 -0.1103  0.2369
 1248ERGO   ROH17395   6.520   1.423   6.303  0.1818 -0.0405  0.0326
 1248ERGO    R117396   6.313   1.444   6.495  0.2020 -0.0061  0.0497
 1248ERGO    R217397   6.130   1.242   6.538  0.1333  0.0552  0.0159
 1248ERGO    R317398   6.212   1.265   6.796  0.1523 -0.0332  0.0189
 1248ERGO    R417399   5.934   1.173   6.814  0.1749 -0.1339 -0.0001
 1248ERGO    R517400   6.020   1.348   6.912  0.1305 -0.1451  0.0719
 1248ERGO    C117401   5.898   1.154   7.217  0.2170 -0.3269 -0.0067
 1248ERGO    C217402   5.699   1.123   7.411  0.0589 -0.0623  0.1512
 1249ERGO   ROH17403   1.945   5.876   5.945 -0.0670 -0.1042 -0.0508
 1249ERGO    R117404   1.979   5.928   6.222 -0.0234 -0.1636 -0.0445
 1249ERGO    R217405   2.217   6.019   6.328 -0.0206 -0.1311 -0.0687
 1249ERGO    R317406   2.059   6.216   6.429 -0.0505 -0.1943  0.0064
 1249ERGO    R417407   2.248   6.154   6.644 -0.0688 -0.2611 -0.0080
 1249ERGO    R517408   2.031   6.156   6.660 -0.0649 -0.2931 -0.0242
 1249ERGO    C117409   2.118   6.417   6.924 -0.1251 -0.3962  0.0979
 1249ERGO    C217410   2.350   6.562   7.208 -0.3400  0.5122  0.1625
 1250ERGO   ROH17411  10.849  15.687   6.274 -0.1008 -0.0074 -0.0237
 1250ERGO    R117412  10.948  15.615   6.529 -0.1083 -0.2031 -0.0743
 1250ERGO    R217413  10.942  15.787   6.745  0.2021 -0.2408 -0.0280
 1250ERGO    R317414  10.811  15.581   6.865 -0.0419 -0.0955 -0.0371
 1250ERGO    R417415  10.953  15.716   7.083  0.0434 -0.2279 -0.0192
 1250ERGO    R517416  10.963  15.504   7.033 -0.1655 -0.2415  0.0056
 1250ERGO    C117417  10.837  15.480   7.392 -0.2781 -0.0840 -0.0226
 1250ERGO    C217418  10.630  15.506   7.713 -0.2364 -0.2312 -0.4169
 1251ERGO   ROH17419  12.187  17.344   6.183  0.0786 -0.0341  0.1059
 1251ERGO    R117420  12.162  17.460   6.440 -0.0880 -0.0044  0.0770
 1251ERGO    R217421  12.071  17.319   6.659  0.0878 -0.0744  0.1049
 1251ERGO    R317422  12.304  17.405   6.771 -0.0280  0.2618  0.0985
 1251ERGO    R417423  12.136  17.325   6.998  0.1598 -0.1827  0.0938
 1251ERGO    R517424  12.235  17.518   6.970 -0.1804  0.0156  0.1911
 1251ERGO    C117425  12.392  17.410   7.301  0.0931  0.0699  0.0814
 1251ERGO    C217426  12.436  17.384   7.637  0.2892 -0.0898  0.0178
 1252ERGO   ROH17427   4.495  16.859   6.291  0.0042  0.0148  0.0269
 1252ERGO    R117428   4.415  16.776   6.549  0.0663  0.0041  0.0438
 1252ERGO    R217429   4.571  16.817   6.774  0.0717  0.0991  0.0287
 1252ERGO    R317430   4.347  16.937   6.869  0.0251  0.0081  0.0313
 1252ERGO    R417431   4.473  16.818   7.105 -0.1384 -0.2702 -0.0283
 1252ERGO    R517432   4.267  16.788   7.039 -0.0960 -0.1770 -0.1874
 1252ERGO    C117433   4.204  16.931   7.387 -0.3045 -0.5704 -0.0590
 1252ERGO    C217434   4.195  16.712   7.616 -0.0122 -0.3897 -0.2580
 1253ERGO   ROH17435   8.706  16.130   7.946  0.0435 -0.0823 -0.0664
 1253ERGO    R117436   8.636  15.989   8.181 -0.1277  0.0488 -0.0360
 1253ERGO    R217437   8.822  15.855   8.335 -0.3033 -0.2613 -0.0813
 1253ERGO    R317438   8.720  16.008   8.535  0.0123 -0.0658 -0.0632
 1253ERGO    R417439   8.870  15.799   8.673 -0.2744 -0.2889 -0.0905
 1253ERGO    R517440   8.662  15.852   8.707 -0.1787  0.0508 -0.0221
 1253ERGO    C117441   8.801  15.910   9.057  0.0388 -0.1215 -0.0788
 1253ERGO    C217442   8.762  15.933   9.383 -0.1051  0.0823  0.2362
 1254ERGO   ROH17443  11.344  16.566   6.073 -0.2042 -0.0185  0.0108
 1254ERGO    R117444  11.381  16.563   6.354 -0.3371 -0.0524  0.0290
 1254ERGO    R217445  11.525  16.758   6.487 -0.1162 -0.2463  0.0781
 1254ERGO    R317446  11.298  16.780   6.634 -0.1570  0.0921 -0.0256
 1254ERGO    R417447  11.515  16.782   6.831 -0.2281 -0.1862  0.0709
 1254ERGO    R517448  11.342  16.649   6.830 -0.4199  0.0511  0.0135
 1254ERGO    C117449  11.296  16.816   7.171 -0.3315  0.1662 -0.0305
 1254ERGO    C217450  11.475  16.901   7.406  0.2120  0.0255  0.0590
 1255ERGO   ROH17451   8.670   5.443   6.213  0.0138  0.0229  0.2000
 1255ERGO    R117452   8.887   5.281   6.294 -0.0397 -0.0857  0.1292
 1255ERGO    R217453   9.107   5.382   6.427  0.1137 -0.1728 -0.0521
 1255ERGO    R317454   9.046   5.190   6.609  0.1006 -0.0567  0.0673
 1255ERGO    R417455   9.330   5.246   6.653  0.1517 -0.1814 -0.0951
 1255ERGO    R517456   9.241   5.051   6.616  0.0330 -0.1534  0.0386
 1255ERGO    C117457   9.402   4.986   6.956  0.1615 -0.0774 -0.0081
 1255ERGO    C217458   9.567   4.751   7.162  0.2494  0.3133 -0.1268
 1256ERGO   ROH17459  10.532   6.211   6.083  0.0481  0.0188  0.0944
 1256ERGO    R117460  10.502   6.114   6.348  0.0413  0.0097  0.0898
 1256ERGO    R217461  10.683   6.171   6.549  0.0105  0.0422  0.1067
 1256ERGO    R317462  10.461   6.259   6.679 -0.0192 -0.0027  0.0880
 1256ERGO    R417463  10.658   6.211   6.891  0.0729  0.3277  0.0811
 1256ERGO    R517464  10.456   6.130   6.881  0.1277  0.1704  0.2056
 1256ERGO    C117465  10.435   6.316   7.213  0.0813  0.4518  0.0486
 1256ERGO    C217466  10.617   6.241   7.456  0.2560 -0.2235 -0.4167
 1257ERGO   ROH17467  18.536   4.886   6.160  0.1895 -0.0947  0.1349
 1257ERGO    R117468  18.440   5.018   6.391  0.0636 -0.0196  0.0403
 1257ERGO    R217469  18.259   4.901   6.564  0.0453  0.0003  0.0302
 1257ERGO    R317470  18.448   4.961   6.750 -0.0423  0.1529  0.0720
 1257ERGO    R417471  18.205   4.907   6.906 -0.0335 -0.0761  0.0197
 1257ERGO    R517472  18.329   5.086   6.917 -0.1906  0.0370  0.0589
 1257ERGO    C117473  18.351   4.968   7.279 -0.1617  0.0226  0.0530
 1257ERGO    C217474  18.231   4.790   7.498 -0.0081  0.1935 -0.0509
 1258ERGO   ROH17475   5.576   9.219   6.207  0.2828  0.3024  0.1235
 1258ERGO    R117476   5.501   9.269   6.476 -0.0308  0.1726  0.0654
 1258ERGO    R217477   5.242   9.327   6.550 -0.1677 -0.0981 -0.1730
 1258ERGO    R317478   5.277   9.118   6.720 -0.1274 -0.1022 -0.1871
 1258ERGO    R417479   5.182   9.337   6.890 -0.2718 -0.1677 -0.1893
 1258ERGO    R517480   5.362   9.218   6.920 -0.2309 -0.0916 -0.1503
 1258ERGO    C117481   5.180   9.146   7.248 -0.2945 -0.2119 -0.2120
 1258ERGO    C217482   5.229   9.048   7.604  0.3228 -0.3855 -0.0986
 1259ERGO   ROH17483   4.123  10.730   6.301  0.1423  0.0418  0.1008
 1259ERGO    R117484   3.981  10.732   6.546  0.1114 -0.1257  0.0858
 1259ERGO    R217485   4.098  10.660   6.787  0.1691 -0.0016  0.0967
 1259ERGO    R317486   4.009  10.904   6.866 -0.1171 -0.1015  0.0942
 1259ERGO    R417487   4.103  10.777   7.112  0.1844  0.0680  0.0714
 1259ERGO    R517488   3.907  10.865   7.078  0.0457 -0.1989  0.1558
 1259ERGO    C117489   4.023  11.074   7.376 -0.0755  0.0149  0.0543
 1259ERGO    C217490   3.931  11.299   7.691  0.2563 -0.1017 -0.2019
 1260ERGO   ROH17491   1.104  14.388   6.152 -0.0784  0.1176 -0.1168
 1260ERGO    R117492   1.092  14.347   6.432 -0.2466  0.2765 -0.0993
 1260ERGO    R217493   1.308  14.257   6.578 -0.4816 -0.1521 -0.0034
 1260ERGO    R317494   1.261  14.480   6.725 -0.0127  0.0395 -0.1218
 1260ERGO    R417495   1.405  14.301   6.907 -0.3593 -0.1631 -0.0365
 1260ERGO    R517496   1.213  14.397   6.945 -0.1665  0.2560 -0.0696
 1260ERGO    C117497   1.416  14.536   7.237  0.1520  0.0104 -0.1669
 1260ERGO    C217498   1.737  14.536   7.439  0.0612 -0.0751  0.2002
 1261ERGO   ROH17499  15.375  12.250   6.479  0.1554 -0.3797  0.0991
 1261ERGO    R117500  15.427  12.350   6.739  0.1624 -0.2108  0.0337
 1261ERGO    R217501  15.244  12.335   6.944  0.1646 -0.0696  0.0476
 1261ERGO    R317502  15.449  12.214   7.075  0.1625  0.0089  0.1241
 1261ERGO    R417503  15.231  12.223   7.271  0.1589  0.1219  0.1144
 1261ERGO    R517504  15.434  12.297   7.299  0.1571  0.1405  0.0753
 1261ERGO    C117505  15.416  12.044   7.584  0.1536  0.3071  0.2250
 1261ERGO    C217506  15.434  11.820   7.842  0.0267 -0.1187 -0.1389
 1262ERGO   ROH17507   3.051   2.089   6.030  0.2314  0.2781 -0.0100
 1262ERGO    R117508   3.039   2.266   6.250 -0.0854  0.2989 -0.0401
 1262ERGO    R217509   2.802   2.335   6.374 -0.2047 -0.1930  0.0162
 1262ERGO    R317510   2.931   2.250   6.597  0.0532  0.1253 -0.0030
 1262ERGO    R417511   2.730   2.439   6.696 -0.3569 -0.2981  0.0185
 1262ERGO    R517512   2.944   2.444   6.736 -0.3442  0.1877 -0.0377
 1262ERGO    C117513   2.810   2.420   7.093 -0.2033 -0.0603  0.0020
 1262ERGO    C217514   2.844   2.510   7.388  0.1737  0.4554  0.1950
 1263ERGO   ROH17515  11.588  16.196   6.092 -0.1586  0.0367  0.1124
 1263ERGO    R117516  11.653  16.142   6.363  0.0893  0.1946  0.0879
 1263ERGO    R217517  11.754  16.335   6.533 -0.2829  0.4511  0.0348
 1263ERGO    R317518  11.544  16.261   6.689 -0.0550 -0.0408  0.1276
 1263ERGO    R417519  11.726  16.401   6.871 -0.2794  0.3500  0.0551
 1263ERGO    R517520  11.643  16.202   6.898  0.1778  0.1547  0.0757
 1263ERGO    C117521  11.512  16.370   7.214 -0.0634 -0.1707  0.1542
 1263ERGO    C217522  11.364  16.439   7.481 -0.3956  0.0334  0.0948
 1264ERGO   ROH17523  13.301  15.807   6.249  0.1353  0.0580 -0.1305
 1264ERGO    R117524  13.400  15.685   6.485  0.0354  0.1056 -0.0656
 1264ERGO    R217525  13.662  15.713   6.568  0.0416 -0.0424 -0.0726
 1264ERGO    R317526  13.547  15.797   6.799  0.1020  0.1523 -0.1089
 1264ERGO    R417527  13.805  15.685   6.881 -0.1548 -0.4665 -0.0119
 1264ERGO    R517528  13.609  15.631   6.960 -0.3389 -0.0588 -0.1255
 1264ERGO    C117529  13.780  15.748   7.281 -0.2125 -0.5308 -0.0107
 1264ERGO    C217530  13.951  15.602   7.583 -0.0426  0.0759 -0.1388
 1265ERGO   ROH17531   8.714   7.521   6.020  0.3210  0.3185  0.0057
 1265ERGO    R117532   8.814   7.551   6.283  0.0074  0.3245  0.1276
 1265ERGO    R217533   8.654   7.626   6.495 -0.3516 -0.1322  0.0304
 1265ERGO    R317534   8.753   7.400   6.608 -0.0259 -0.0302 -0.0381
 1265ERGO    R417535   8.625   7.542   6.829 -0.3711 -0.3382 -0.0213
 1265ERGO    R517536   8.830   7.469   6.824 -0.2374  0.0000  0.0330
 1265ERGO    C117537   8.701   7.281   7.130 -0.0768 -0.3624 -0.1156
 1265ERGO    C217538   8.596   7.204   7.543  0.1820  0.2964 -0.0043
 1266ERGO   ROH17539   6.869  15.218   6.240 -0.3131  0.0517  0.0263
 1266ERGO    R117540   6.965  15.168   6.502 -0.2398 -0.1444 -0.0357
 1266ERGO    R217541   7.010  15.371   6.685  0.0502 -0.2539  0.0232
 1266ERGO    R317542   6.846  15.221   6.842 -0.0316 -0.1497  0.0387
 1266ERGO    R417543   6.981  15.403   7.028 -0.0059 -0.1477  0.0091
 1266ERGO    R517544   6.972  15.186   7.042 -0.0851 -0.1372  0.0719
 1266ERGO    C117545   6.811  15.281   7.375 -0.1153  0.0119  0.0154
 1266ERGO    C217546   6.805  15.288   7.712 -0.4222  0.2807 -0.1552
 1267ERGO   ROH17547  18.446  14.298   6.299  0.1281 -0.1136 -0.0112
 1267ERGO    R117548  18.537  14.064   6.428  0.1107 -0.0954  0.0313
 1267ERGO    R217549  18.715  14.070   6.640  0.0109 -0.0613  0.1077
 1267ERGO    R317550  18.522  13.924   6.764 -0.0155 -0.0995  0.0263
 1267ERGO    R417551  18.754  13.908   6.942 -0.1595  0.1711  0.2590
 1267ERGO    R517552  18.640  13.740   6.862  0.0190  0.0386  0.2614
 1267ERGO    C117553  18.596  13.677   7.235 -0.2835  0.2705  0.2706
 1267ERGO    C217554  18.672  13.628   7.455 -0.1417  0.1678  0.1703
 1268ERGO   ROH17555   7.261  16.158   6.398  0.2992 -0.0072  0.0723
 1268ERGO    R117556   7.323  16.352   6.595  0.1416 -0.0774  0.1957
 1268ERGO    R217557   7.284  16.308   6.865  0.1603 -0.2737  0.1775
 1268ERGO    R317558   7.547  16.377   6.881  0.1093 -0.0889  0.2182
 1268ERGO    R417559   7.448  16.400   7.155  0.0596 -0.1177  0.1845
 1268ERGO    R517560   7.553  16.553   7.042 -0.0309 -0.0672  0.1892
 1268ERGO    C117561   7.789  16.518   7.339 -0.0469  0.1465  0.2267
 1268ERGO    C217562   7.934  16.619   7.627 -0.1512 -0.0958  0.0947
 1269ERGO   ROH17563  14.960   9.708   6.086  0.1024 -0.1952  0.0645
 1269ERGO    R117564  14.985   9.798   6.353  0.0024 -0.0865  0.0367
 1269ERGO    R217565  14.829   9.700   6.559 -0.0135 -0.0625  0.0281
 1269ERGO    R317566  15.069   9.650   6.675 -0.0272  0.0661  0.1171
 1269ERGO    R417567  14.898   9.741   6.895 -0.2484 -0.2845  0.1083
 1269ERGO    R517568  15.093   9.823   6.840 -0.2874 -0.0462  0.2840
 1269ERGO    C117569  15.164   9.719   7.200 -0.3980 -0.2929  0.2386
 1269ERGO    C217570  15.267   9.746   7.567  0.0112  0.0415 -0.0483
 1270ERGO   ROH17571   9.681   9.655   6.060 -0.2379 -0.0262  0.0951
 1270ERGO    R117572   9.856   9.788   6.237 -0.1266 -0.0187 -0.0179
 1270ERGO    R217573   9.781  10.013   6.379  0.0096  0.0784 -0.0908
 1270ERGO    R317574   9.863   9.866   6.593  0.0139  0.1349 -0.0542
 1270ERGO    R417575   9.865  10.144   6.688 -0.2011  0.1321 -0.0555
 1270ERGO    R517576  10.030  10.002   6.698 -0.1171  0.2395  0.0161
 1270ERGO    C117577   9.990  10.082   7.069 -0.3200  0.2166 -0.0005
 1270ERGO    C217578   9.823  10.073   7.264  0.0907 -0.2434 -0.2414
 1271ERGO   ROH17579   3.443   6.294   6.578  0.0011  0.2942 -0.1141
 1271ERGO    R117580   3.414   6.508   6.761  0.0855  0.1619  0.0566
 1271ERGO    R217581   3.181   6.554   6.900  0.0777  0.1894  0.0297
 1271ERGO    R317582   3.345   6.545   7.116  0.0143 -0.0896  0.0718
 1271ERGO    R417583   3.085   6.627   7.224  0.0514  0.0746  0.0490
 1271ERGO    R517584   3.275   6.730   7.252  0.1388 -0.1074  0.1660
 1271ERGO    C117585   3.184   6.662   7.616 -0.0234 -0.2542  0.0998
 1271ERGO    C217586   3.254   6.557   7.861  0.0533 -0.0386  0.2363
 1272ERGO   ROH17587   8.802  11.450   6.348  0.1649 -0.0677  0.2163
 1272ERGO    R117588   8.874  11.597   6.579 -0.0137  0.1153  0.1575
 1272ERGO    R217589   8.702  11.778   6.699 -0.2522 -0.0748  0.1070
 1272ERGO    R317590   8.753  11.628   6.920 -0.0243  0.0718  0.1584
 1272ERGO    R417591   8.622  11.869   7.023 -0.4924 -0.1266  0.0643
 1272ERGO    R517592   8.813  11.787   7.088 -0.3490  0.2358  0.1296
 1272ERGO    C117593   8.623  11.781   7.419 -0.4183 -0.0191  0.0876
 1272ERGO    C217594   8.447  11.862   7.746 -0.0844  0.4456 -0.1002
 1273ERGO   ROH17595   1.094   9.940   6.762 -0.0793 -0.1188  0.0173
 1273ERGO    R117596   1.158  10.013   7.028  0.0110 -0.1249 -0.0018
 1273ERGO    R217597   0.978  10.139   7.195  0.1427  0.0916 -0.0132
 1273ERGO    R317598   1.036   9.932   7.361 -0.0504  0.0643  0.0218
 1273ERGO    R417599   0.928  10.139   7.537 -0.1300  0.0765 -0.0510
 1273ERGO    R517600   1.119  10.036   7.560 -0.1806  0.0218  0.0955
 1273ERGO    C117601   0.954   9.945   7.892 -0.4702  0.0420 -0.0402
 1273ERGO    C217602   0.794   9.841   8.177  0.4358  0.1546 -0.0880
 1274ERGO   ROH17603  15.777   8.004   5.776  0.2340  0.0761  0.0231
 1274ERGO    R117604  15.697   7.919   6.034  0.0186  0.0416 -0.0525
 1274ERGO    R217605  15.817   8.013   6.265 -0.0339 -0.1450  0.0508
 1274ERGO    R317606  15.561   8.076   6.333 -0.0220  0.0380 -0.0682
 1274ERGO    R417607  15.705   8.070   6.587 -0.1927 -0.3407  0.0320
 1274ERGO    R517608  15.524   7.961   6.539 -0.2711 -0.1240 -0.1973
 1274ERGO    C117609  15.400   8.162   6.838 -0.2740 -0.2829 -0.0905
 1274ERGO    C217610  15.211   8.193   7.066  0.1852  0.1201 -0.0211
 1275ERGO   ROH17611   2.865  12.774   6.348 -0.0730 -0.1754 -0.0709
 1275ERGO    R117612   2.788  12.640   6.585 -0.1512  0.0242  0.0152
 1275ERGO    R217613   2.960  12.479   6.728 -0.3274 -0.2008 -0.0408
 1275ERGO    R317614   2.890  12.641   6.934  0.0478 -0.0262 -0.0390
 1275ERGO    R417615   2.988  12.395   7.062 -0.6174 -0.3305 -0.0441
 1275ERGO    R517616   2.795  12.492   7.097 -0.3908  0.1835 -0.0779
 1275ERGO    C117617   2.938  12.499   7.450 -0.4341 -0.2423 -0.0444
 1275ERGO    C217618   3.018  12.419   7.858  0.1945 -0.0089 -0.0140
 1276ERGO   ROH17619  14.289   0.869   6.405  0.0721 -0.0855 -0.1241
 1276ERGO    R117620  14.171   0.767   6.641  0.0626  0.0066 -0.0892
 1276ERGO    R217621  14.306   0.754   6.882  0.0682  0.0558 -0.0919
 1276ERGO    R317622  14.091   0.894   6.973  0.0955  0.1203 -0.1237
 1276ERGO    R417623  14.141   0.690   7.178 -0.0312  0.0647 -0.1443
 1276ERGO    R517624  13.953   0.727   7.076  0.0073  0.1523 -0.1874
 1276ERGO    C117625  13.844   0.782   7.437 -0.0637  0.1305 -0.2046
 1276ERGO    C217626  13.842   0.642   7.842  0.1275  0.2537  0.3932
 1277ERGO   ROH17627   4.099  13.711   6.331  0.1138 -0.0435  0.0089
 1277ERGO    R117628   4.157  13.882   6.549 -0.0728 -0.0680  0.0799
 1277ERGO    R217629   4.111  13.809   6.811  0.1298 -0.2826  0.0603
 1277ERGO    R317630   4.373  13.874   6.841  0.0466  0.1059 -0.0023
 1277ERGO    R417631   4.250  13.942   7.099  0.0603 -0.3924  0.1449
 1277ERGO    R517632   4.370  14.074   6.974 -0.2115 -0.0473  0.2329
 1277ERGO    C117633   4.577  14.080   7.294 -0.0584 -0.0916  0.1354
 1277ERGO    C217634   4.761  14.196   7.611  0.1475 -0.2221  0.0931
 1278ERGO   ROH17635  15.848  17.141   6.399  0.2341 -0.0474  0.0051
 1278ERGO    R117636  15.878  17.199   6.674  0.1805 -0.0559  0.0132
 1278ERGO    R217637  15.662  17.235   6.843  0.1452  0.0399 -0.0475
 1278ERGO    R317638  15.786  17.042   6.989  0.0215 -0.0127 -0.0117
 1278ERGO    R417639  15.631  17.196   7.185  0.0227  0.0398 -0.0583
 1278ERGO    R517640  15.845  17.151   7.194 -0.0003 -0.0449  0.0094
 1278ERGO    C117641  15.729  16.992   7.521 -0.1648 -0.0100 -0.0311
 1278ERGO    C217642  15.706  16.802   7.715 -0.1800 -0.0211 -0.3399
 1279ERGO   ROH17643   7.786   6.510   6.171 -0.1301  0.1100 -0.0766
 1279ERGO    R117644   7.776   6.651   6.416 -0.0791  0.0369 -0.0334
 1279ERGO    R217645   7.659   6.547   6.644  0.1021 -0.0906 -0.0041
 1279ERGO    R317646   7.902   6.602   6.754  0.1281  0.0166 -0.1099
 1279ERGO    R417647   7.712   6.645   6.972  0.2013 -0.1695  0.0053
 1279ERGO    R517648   7.861   6.786   6.901  0.0862 -0.0524 -0.0268
 1279ERGO    C117649   7.970   6.754   7.265  0.2835 -0.1149 -0.0885
 1279ERGO    C217650   8.215   6.769   7.563 -0.0578  0.0861 -0.0026
 1280ERGO   ROH17651   8.092  17.594   5.680  0.1372  0.0874 -0.1443
 1280ERGO    R117652   8.219  17.680   5.918  0.0852  0.0787 -0.1136
 1280ERGO    R217653   8.343  17.927   5.939  0.0143  0.1081 -0.0539
 1280ERGO    R317654   8.179  17.954   6.155 -0.0178  0.0240 -0.0671
 1280ERGO    R417655   8.431  18.078   6.237 -0.0864  0.1554 -0.0473
 1280ERGO    R517656   8.322  17.921   6.343 -0.0149  0.0983 -0.0552
 1280ERGO    C117657   8.329  18.191   6.613 -0.1752  0.1041 -0.0558
 1280ERGO    C217658   8.486  18.221   6.858  0.1125  0.0338 -0.0169
 1281ERGO   ROH17659   3.996   1.687   5.957  0.0686  0.1737 -0.0762
 1281ERGO    R117660   4.037   1.752   6.229 -0.0572  0.1159 -0.0437
 1281ERGO    R217661   3.829   1.824   6.397 -0.1493 -0.0393 -0.0950
 1281ERGO    R317662   3.927   1.622   6.551 -0.0992 -0.0317 -0.1159
 1281ERGO    R417663   3.794   1.801   6.741 -0.0483 -0.0193 -0.0828
 1281ERGO    R517664   4.000   1.730   6.752 -0.0400 -0.0168 -0.1418
 1281ERGO    C117665   3.867   1.598   7.084  0.0575 -0.0007 -0.0953
 1281ERGO    C217666   3.771   1.426   7.437  0.1913  0.1187 -0.0587
 1282ERGO   ROH17667   1.331   4.889   6.013 -0.1411 -0.1710  0.0015
 1282ERGO    R117668   1.353   5.040   6.251 -0.2420 -0.0895 -0.0391
 1282ERGO    R217669   1.256   4.950   6.494  0.0328 -0.2020  0.0351
 1282ERGO    R317670   1.511   4.997   6.577  0.0124  0.2127 -0.1181
 1282ERGO    R417671   1.341   5.097   6.795 -0.0252 -0.3600  0.1299
 1282ERGO    R517672   1.497   5.208   6.690 -0.3206  0.0705  0.1215
 1282ERGO    C117673   1.629   5.228   7.047 -0.0781 -0.0626  0.0413
 1282ERGO    C217674   1.838   5.552   7.210 -0.2616  0.1940  0.0136
 1283ERGO   ROH17675  18.158   9.672   6.327 -0.1265  0.0797 -0.0935
 1283ERGO    R117676  18.176   9.670   6.610 -0.2258 -0.0837 -0.0882
 1283ERGO    R217677  18.246   9.893   6.757 -0.0050 -0.2421  0.0458
 1283ERGO    R317678  18.013   9.842   6.886 -0.1136 -0.0244 -0.0569
 1283ERGO    R417679  18.140  10.055   7.043  0.0621 -0.1913  0.0429
 1283ERGO    R517680  18.068   9.863   7.118 -0.1746 -0.1382 -0.0281
 1283ERGO    C117681  17.859  10.101   7.332 -0.0007  0.0427 -0.0552
 1283ERGO    C217682  17.706  10.162   7.694 -0.1454  0.0600 -0.0838
 1284ERGO   ROH17683  12.627   6.956   6.318  0.0380 -0.1928 -0.1257
 1284ERGO    R117684  12.604   6.772   6.532 -0.0203 -0.0956 -0.0464
 1284ERGO    R217685  12.518   6.845   6.784 -0.0767  0.0231 -0.0983
 1284ERGO    R317686  12.337   6.646   6.745 -0.0762  0.0138 -0.0519
 1284ERGO    R417687  12.323   6.702   7.031 -0.0199  0.0236 -0.0534
 1284ERGO    R517688  12.357   6.508   6.939 -0.0311  0.0225 -0.0515
 1284ERGO    C117689  12.040   6.432   7.138  0.0135  0.0151  0.0164
 1284ERGO    C217690  11.886   6.297   7.406  0.0100 -0.0705 -0.1241
 1285ERGO   ROH17691  13.103   2.747   6.095 -0.0040 -0.1212  0.0646
 1285ERGO    R117692  13.041   2.757   6.371  0.0339 -0.1189  0.0731
 1285ERGO    R217693  13.234   2.784   6.567  0.0498  0.0118  0.0381
 1285ERGO    R317694  13.082   2.996   6.643 -0.0530 -0.0606  0.0367
 1285ERGO    R417695  13.150   2.860   6.893  0.1196  0.0343  0.0509
 1285ERGO    R517696  12.950   2.913   6.824  0.0595 -0.1022  0.1040
 1285ERGO    C117697  12.958   3.103   7.155  0.0637 -0.0206  0.0569
 1285ERGO    C217698  12.762   3.096   7.487  0.2702  0.1318 -0.3543
 1286ERGO   ROH17699   9.878   1.389   5.627 -0.0414  0.0092  0.0514
 1286ERGO    R117700  10.071   1.367   5.833 -0.0123 -0.0556  0.0178
 1286ERGO    R217701  10.228   1.580   5.914  0.0827 -0.1094 -0.0167
 1286ERGO    R317702  10.129   1.518   6.159  0.1012 -0.0650  0.0017
 1286ERGO    R417703  10.381   1.659   6.214  0.1397 -0.1265 -0.0413
 1286ERGO    R517704  10.323   1.462   6.289  0.1014 -0.1034 -0.0188
 1286ERGO    C117705  10.377   1.647   6.619  0.1901 -0.0947 -0.0383
 1286ERGO    C217706  10.611   1.781   6.775  0.1788  0.1899 -0.0189
 1287ERGO   ROH17707  12.577  15.115   6.309 -0.1988 -0.0768 -0.1456
 1287ERGO    R117708  12.694  15.002   6.540 -0.0350  0.0340 -0.1731
 1287ERGO    R217709  12.760  15.152   6.762 -0.2539  0.0784 -0.1398
 1287ERGO    R317710  12.606  14.969   6.892  0.0079 -0.1798 -0.1798
 1287ERGO    R417711  12.774  15.090   7.102 -0.3471  0.2237 -0.1077
 1287ERGO    R517712  12.752  14.877   7.058  0.0905  0.1564 -0.0530
 1287ERGO    C117713  12.637  14.882   7.422 -0.1556  0.0658 -0.1266
 1287ERGO    C217714  12.568  14.894   7.787  0.1136  0.1906  0.2967
 1288ERGO   ROH17715   1.164   8.696   6.524  0.1020 -0.1286 -0.0483
 1288ERGO    R117716   1.194   8.543   6.761  0.0842 -0.1202 -0.0407
 1288ERGO    R217717   1.211   8.659   7.011  0.2729 -0.0986 -0.0621
 1288ERGO    R317718   1.004   8.491   7.067  0.1682  0.0620  0.0438
 1288ERGO    R417719   1.133   8.540   7.326  0.3125 -0.0019 -0.0152
 1288ERGO    R517720   1.090   8.346   7.237  0.1294  0.0178  0.0256
 1288ERGO    C117721   0.893   8.313   7.562  0.2373  0.2052  0.1116
 1288ERGO    C217722   0.704   8.283   7.753 -0.0863  0.0619 -0.0112
 1289ERGO   ROH17723   1.755  17.644   6.182  0.0496 -0.2427  0.0084
 1289ERGO    R117724   1.711  17.534   6.439 -0.0513 -0.0763  0.0646
 1289ERGO    R217725   1.918  17.481   6.615 -0.1049 -0.1031  0.1213
 1289ERGO    R317726   1.769  17.635   6.784 -0.0372  0.0795  0.0168
 1289ERGO    R417727   1.955  17.491   6.959 -0.1251  0.0948  0.1187
 1289ERGO    R517728   1.738  17.498   6.978 -0.1216  0.2184  0.1013
 1289ERGO    C117729   1.838  17.642   7.317 -0.0732  0.3815  0.0190
 1289ERGO    C217730   2.013  17.449   7.597 -0.2716 -0.0065  0.2646
 1290ERGO   ROH17731   4.655  13.222   6.246 -0.0019  0.1405  0.0616
 1290ERGO    R117732   4.687  12.989   6.403 -0.0226  0.0863 -0.0137
 1290ERGO    R217733   4.934  12.881   6.462 -0.0325  0.0216 -0.0799
 1290ERGO    R317734   4.846  12.902   6.719  0.0057 -0.0381 -0.0622
 1290ERGO    R417735   5.087  12.735   6.736  0.0642  0.0452 -0.1210
 1290ERGO    R517736   4.889  12.687   6.814  0.0967 -0.0320 -0.0921
 1290ERGO    C117737   5.092  12.670   7.136  0.1563  0.0026 -0.1282
 1290ERGO    C217738   5.343  12.746   7.392 -0.1461 -0.3211  0.0325
 1291ERGO   ROH17739   6.367  15.988   6.513 -0.0200  0.0253 -0.1634
 1291ERGO    R117740   6.361  16.141   6.752 -0.0988 -0.0117 -0.1408
 1291ERGO    R217741   6.126  16.203   6.882 -0.1389 -0.0975 -0.1638
 1291ERGO    R317742   6.251  16.090   7.095 -0.1360 -0.0969 -0.1661
 1291ERGO    R417743   6.051  16.271   7.212 -0.0152  0.0243 -0.1607
 1291ERGO    R517744   6.265  16.268   7.256 -0.0088 -0.0638 -0.2172
 1291ERGO    C117745   6.125  16.205   7.605  0.0595  0.0960 -0.1610
 1291ERGO    C217746   6.078  16.212   7.956  0.1445  0.2152  0.0398
 1292ERGO   ROH17747  11.604   9.391   5.935 -0.0158  0.0821 -0.1368
 1292ERGO    R117748  11.635   9.617   6.102 -0.0442  0.0153 -0.0400
 1292ERGO    R217749  11.455   9.678   6.303 -0.0714 -0.0733 -0.0335
 1292ERGO    R317750  11.678   9.678   6.458 -0.0886 -0.1309 -0.0095
 1292ERGO    R417751  11.534   9.921   6.536 -0.0026 -0.0677 -0.0629
 1292ERGO    R517752  11.742   9.909   6.472 -0.0027 -0.1548 -0.0375
 1292ERGO    C117753  11.789  10.063   6.817  0.0215 -0.1184 -0.0575
 1292ERGO    C217754  11.742  10.253   7.124  0.0626 -0.0398 -0.0136
 1293ERGO   ROH17755  13.972   9.393   6.230  0.0113  0.2174 -0.2355
 1293ERGO    R117756  13.886   9.503   6.477  0.0919  0.1936 -0.1969
 1293ERGO    R217757  13.773   9.349   6.677 -0.0596  0.2124 -0.2684
 1293ERGO    R317758  13.970   9.459   6.829  0.0291 -0.0245 -0.2074
 1293ERGO    R417759  13.769   9.370   7.022 -0.0921  0.1186 -0.2627
 1293ERGO    R517760  13.854   9.570   7.006  0.1098  0.0417 -0.1945
 1293ERGO    C117761  13.953   9.485   7.365 -0.0279 -0.1584 -0.2021
 1293ERGO    C217762  13.843   9.634   7.577 -0.1865 -0.1521 -0.1694
 1294ERGO   ROH17763  13.423  13.584   6.475 -0.1519 -0.0555 -0.0555
 1294ERGO    R117764  13.502  13.486   6.728 -0.0287 -0.0463 -0.0903
 1294ERGO    R217765  13.405  13.589   6.964  0.1475  0.0145 -0.0462
 1294ERGO    R317766  13.340  13.330   7.014  0.0974  0.0413  0.0312
 1294ERGO    R417767  13.374  13.452   7.280 -0.0154  0.1544 -0.0001
 1294ERGO    R517768  13.474  13.272   7.206  0.0037  0.1101  0.1211
 1294ERGO    C117769  13.295  13.129   7.511 -0.1573  0.2610  0.0994
 1294ERGO    C217770  13.095  13.163   7.775 -0.1717 -0.2959  0.0152
 1295ERGO   ROH17771   4.910  11.230   6.361 -0.0323  0.3028 -0.0960
 1295ERGO    R117772   5.037  11.143   6.599 -0.0617  0.1133 -0.1468
 1295ERGO    R217773   5.156  11.318   6.776  0.2668 -0.0559 -0.1849
 1295ERGO    R317774   4.993  11.197   6.956  0.1519  0.1752 -0.1302
 1295ERGO    R417775   5.173  11.361   7.118  0.2707  0.0993 -0.2043
 1295ERGO    R517776   5.135  11.148   7.142  0.0897  0.1484 -0.0957
 1295ERGO    C117777   5.030  11.272   7.487  0.1652  0.4067 -0.1642
 1295ERGO    C217778   4.975  11.190   7.830 -0.1890  0.2594  0.2513
 1296ERGO   ROH17779  10.531  10.338   5.783  0.1098 -0.1524 -0.2062
 1296ERGO    R117780  10.714  10.187   5.938 -0.0786 -0.2270 -0.0546
 1296ERGO    R217781  10.911  10.305   6.092 -0.0545 -0.3140 -0.0302
 1296ERGO    R317782  10.799  10.156   6.291 -0.2533 -0.1317 -0.0005
 1296ERGO    R417783  11.075  10.202   6.378 -0.2470 -0.2713  0.0987
 1296ERGO    R517784  10.975  10.009   6.361 -0.3777 -0.2190  0.1554
 1296ERGO    C117785  11.066  10.003   6.731 -0.5460 -0.0753  0.2017
 1296ERGO    C217786  11.340   9.926   6.971 -0.1800  0.0093  0.0160
 1297ERGO   ROH17787  17.891   4.107   6.211 -0.0029 -0.0147  0.1302
 1297ERGO    R117788  17.965   3.967   6.446 -0.0125 -0.0345  0.1211
 1297ERGO    R217789  18.089   4.090   6.660  0.0966 -0.0779  0.0846
 1297ERGO    R317790  17.882   3.982   6.800  0.0777  0.0272  0.1390
 1297ERGO    R417791  18.086   4.041   7.002  0.0956  0.0518  0.1042
 1297ERGO    R517792  17.987   3.849   6.969  0.0483  0.0663  0.1848
 1297ERGO    C117793  17.890   3.911   7.332  0.0771  0.2260  0.1666
 1297ERGO    C217794  17.819   4.064   7.635 -0.0538  0.3614  0.2640
 1298ERGO   ROH17795  10.792   3.198   5.994 -0.0004  0.1151  0.1478
 1298ERGO    R117796  10.820   3.057   6.238 -0.0622 -0.2349 -0.0406
 1298ERGO    R217797  10.734   3.160   6.480  0.5373 -0.2385  0.1937
 1298ERGO    R317798  10.598   2.924   6.494 -0.1105  0.1067  0.1006
 1298ERGO    R417799  10.652   2.996   6.773  0.4961 -0.3503  0.1205
 1298ERGO    R517800  10.701   2.807   6.676 -0.1656 -0.3969 -0.1746
 1298ERGO    C117801  10.477   2.680   6.958 -0.1359 -0.0914 -0.0095
 1298ERGO    C217802  10.160   2.585   7.214 -0.2387  0.1162  0.1690
 1299ERGO   ROH17803   4.723   1.090   6.243  0.1241  0.1405  0.0795
 1299ERGO    R117804   4.578   1.014   6.474  0.0395  0.2708  0.0693
 1299ERGO    R217805   4.648   0.795   6.628 -0.1721  0.2061  0.0682
 1299ERGO    R317806   4.648   0.978   6.829 -0.0174  0.2012  0.0748
 1299ERGO    R417807   4.651   0.718   6.964 -0.2528  0.1849  0.0653
 1299ERGO    R517808   4.510   0.880   6.998 -0.1138  0.3133  0.0660
 1299ERGO    C117809   4.654   0.844   7.350 -0.1546  0.1679  0.0696
 1299ERGO    C217810   4.772   0.881   7.700  0.1156 -0.1552 -0.2119
 1300ERGO   ROH17811   7.181  17.376   6.188 -0.0107 -0.1437 -0.1147
 1300ERGO    R117812   7.028  17.367   6.427 -0.1089 -0.2253 -0.1798
 1300ERGO    R217813   6.935  17.131   6.536  0.0897 -0.2897 -0.1471
 1300ERGO    R317814   7.063  17.220   6.758 -0.1005 -0.0824 -0.1164
 1300ERGO    R417815   6.814  17.104   6.858 -0.0763 -0.2091 -0.2013
 1300ERGO    R517816   6.889  17.305   6.898 -0.2427 -0.1337 -0.2598
 1300ERGO    C117817   6.864  17.173   7.255 -0.3516  0.0323 -0.2042
 1300ERGO    C217818   6.721  17.103   7.458  0.0882 -0.2897  0.3632
 1301ERGO   ROH17819  11.419  15.740   6.087 -0.0415  0.0677  0.0629
 1301ERGO    R117820  11.391  15.667   6.359 -0.0719  0.0020  0.0425
 1301ERGO    R217821  11.585  15.719   6.548 -0.0827 -0.0633  0.0735
 1301ERGO    R317822  11.379  15.840   6.679 -0.0835 -0.0767  0.0844
 1301ERGO    R417823  11.569  15.767   6.890 -0.0526 -0.0289  0.0701
 1301ERGO    R517824  11.357  15.716   6.883 -0.0454 -0.0568  0.0994
 1301ERGO    C117825  11.367  15.908   7.212 -0.0357 -0.0214  0.0784
 1301ERGO    C217826  11.187  15.928   7.500  0.1456  0.0151  0.1420
 1302ERGO   ROH17827   0.748   8.915   6.586 -0.0825 -0.0298  0.0235
 1302ERGO    R117828   0.831   8.822   6.840 -0.2939 -0.1240  0.0582
 1302ERGO    R217829   0.828   8.983   7.065  0.0095 -0.0465  0.0012
 1302ERGO    R317830   0.679   8.780   7.168 -0.4159  0.2796  0.0627
 1302ERGO    R417831   0.720   8.964   7.393  0.4595  0.0337  0.1621
 1302ERGO    R517832   0.765   8.750   7.390 -0.1361 -0.1183 -0.0785
 1302ERGO    C117833   0.518   8.762   7.681  0.3222  0.3864  0.3134
 1302ERGO    C217834   0.302   8.784   7.949 -0.0421  0.0255  0.1807
 1303ERGO   ROH17835   7.549   0.927   6.402  0.0946  0.0992 -0.1934
 1303ERGO    R117836   7.671   0.911   6.657  0.0794 -0.0192 -0.1923
 1303ERGO    R217837   7.923   1.012   6.709  0.0337  0.0622 -0.0997
 1303ERGO    R317838   7.792   1.145   6.908 -0.0504 -0.1308 -0.0250
 1303ERGO    R417839   8.060   1.095   7.015  0.0117  0.0878 -0.0976
 1303ERGO    R517840   7.871   1.042   7.109  0.0844 -0.1234 -0.0777
 1303ERGO    C117841   8.018   1.268   7.380 -0.0799 -0.0785 -0.0262
 1303ERGO    C217842   7.963   1.334   7.714 -0.1011  0.2135 -0.1461
 1304ERGO   ROH17843   9.387   0.259   6.242 -0.3161  0.1142 -0.2912
 1304ERGO    R117844   9.481   0.362   6.489 -0.1675  0.0171 -0.3070
 1304ERGO    R217845   9.332   0.532   6.646 -0.0261  0.0478 -0.2064
 1304ERGO    R317846   9.379   0.346   6.838 -0.0281 -0.0156 -0.2666
 1304ERGO    R417847   9.243   0.564   6.979  0.2300  0.0694 -0.1380
 1304ERGO    R517848   9.434   0.474   7.033  0.2048 -0.0805 -0.2851
 1304ERGO    C117849   9.237   0.407   7.352  0.3772  0.0224 -0.1548
 1304ERGO    C217850   9.093   0.449   7.623  0.2549 -0.1668 -0.1167
 1305ERGO   ROH17851   7.234   9.688   6.324 -0.0206  0.1952  0.1487
 1305ERGO    R117852   7.425   9.625   6.524  0.0665  0.3170  0.1070
 1305ERGO    R217853   7.441   9.762   6.764  0.0143  0.3112  0.1222
 1305ERGO    R317854   7.419   9.513   6.870  0.2114  0.2833  0.0973
 1305ERGO    R417855   7.441   9.691   7.102 -0.1392  0.2896  0.1170
 1305ERGO    R517856   7.564   9.516   7.060  0.0754  0.4281  0.1943
 1305ERGO    C117857   7.420   9.416   7.399 -0.0436  0.2508  0.0906
 1305ERGO    C217858   7.386   9.450   7.702  0.4034  0.2538 -0.2675
 1306ERGO   ROH17859  16.269  18.530   6.361  0.1623 -0.2203  0.0085
 1306ERGO    R117860  16.457  18.525   6.572  0.2100 -0.0406 -0.0283
 1306ERGO    R217861  16.623  18.739   6.627 -0.0447  0.1575 -0.0028
 1306ERGO    R317862  16.518  18.715   6.877  0.0280 -0.0434  0.0102
 1306ERGO    R417863  16.738  18.906   6.907 -0.1199  0.1182  0.0519
 1306ERGO    R517864  16.708  18.723   7.022  0.0514  0.0399 -0.0266
 1306ERGO    C117865  16.706  18.981   7.304 -0.0955 -0.0933  0.0960
 1306ERGO    C217866  16.925  19.052   7.592  0.0265 -0.2723  0.1547
 1307ERGO   ROH17867   9.061   1.741   5.837 -0.1954 -0.0869  0.1442
 1307ERGO    R117868   9.225   1.835   6.048 -0.1027  0.0171  0.0273
 1307ERGO    R217869   9.135   2.013   6.240 -0.0072  0.1452 -0.0414
 1307ERGO    R317870   9.222   1.821   6.412  0.0308  0.2323  0.0373
 1307ERGO    R417871   9.250   2.072   6.560 -0.0145  0.2896 -0.0644
 1307ERGO    R517872   9.405   1.923   6.527  0.0107  0.3085 -0.0039
 1307ERGO    C117873   9.399   1.926   6.908  0.0170  0.4554 -0.0040
 1307ERGO    C217874   9.689   1.820   7.147  0.0967  0.1800 -0.1142
 1308ERGO   ROH17875   3.968   2.312   6.114 -0.1948 -0.3081  0.0794
 1308ERGO    R117876   3.878   2.282   6.381  0.0560 -0.1756  0.1811
 1308ERGO    R217877   4.043   2.194   6.584  0.2961  0.0959  0.1073
 1308ERGO    R317878   3.963   2.424   6.705  0.2344  0.1283  0.0080
 1308ERGO    R417879   3.984   2.229   6.923 -0.0936  0.1184  0.0425
 1308ERGO    R517880   3.811   2.352   6.875  0.0024  0.1826 -0.1683
 1308ERGO    C117881   3.875   2.465   7.234 -0.3784  0.1619 -0.0884
 1308ERGO    C217882   3.800   2.413   7.614 -0.1237 -0.0178  0.0971
 1309ERGO   ROH17883  15.120  10.687   6.283  0.1044  0.0341  0.0896
 1309ERGO    R117884  15.202  10.811   6.524  0.0457  0.0697  0.0928
 1309ERGO    R217885  15.024  10.884   6.722  0.0027  0.0188  0.0828
 1309ERGO    R317886  15.187  10.735   6.879  0.0419  0.0722  0.0907
 1309ERGO    R417887  14.979  10.832   7.061 -0.0396 -0.0867  0.0604
 1309ERGO    R517888  15.194  10.852   7.087 -0.0657  0.0203  0.1166
 1309ERGO    C117889  15.107  10.660   7.405 -0.0275 -0.0981  0.0548
 1309ERGO    C217890  14.929  10.430   7.651 -0.0666 -0.1476 -0.1580
 1310ERGO   ROH17891   1.731   2.567   6.110  0.3518  0.1224  0.1393
 1310ERGO    R117892   1.691   2.511   6.385  0.1258  0.0252  0.0885
 1310ERGO    R217893   1.863   2.600   6.581  0.0366 -0.1547  0.2501
 1310ERGO    R317894   1.635   2.703   6.689  0.0168 -0.0757  0.1337
 1310ERGO    R417895   1.800   2.631   6.920 -0.2319 -0.3922  0.2262
 1310ERGO    R517896   1.595   2.568   6.883 -0.2513 -0.2122 -0.0082
 1310ERGO    C117897   1.550   2.746   7.218 -0.4068 -0.4564  0.1031
 1310ERGO    C217898   1.472   2.769   7.572  0.1394  0.0982 -0.3333
 1311ERGO   ROH17899  17.298  14.222   6.085  0.1879  0.0922  0.0523
 1311ERGO    R117900  17.352  14.283   6.356  0.1120  0.1674  0.0508
 1311ERGO    R217901  17.211  14.474   6.496 -0.1634 -0.0400  0.0610
 1311ERGO    R317902  17.172  14.270   6.672  0.1429 -0.1040  0.0605
 1311ERGO    R417903  17.126  14.514   6.829 -0.1728 -0.1626  0.0737
 1311ERGO    R517904  17.263  14.352   6.878  0.0634  0.0205  0.0501
 1311ERGO    C117905  17.040  14.346   7.187  0.1093 -0.2940  0.0807
 1311ERGO    C217906  17.010  14.318   7.592 -0.3194 -0.1217 -0.0687
 1312ERGO   ROH17907  16.017  17.556   6.414  0.0852 -0.1854 -0.0048
 1312ERGO    R117908  16.044  17.659   6.676 -0.0710 -0.0411 -0.0436
 1312ERGO    R217909  15.826  17.716   6.837 -0.1633 -0.2399 -0.0918
 1312ERGO    R317910  15.955  17.553   7.013  0.0195 -0.0127 -0.0113
 1312ERGO    R417911  15.729  17.662   7.165 -0.2689 -0.4063 -0.1493
 1312ERGO    R517912  15.939  17.668   7.223 -0.3095 -0.0349 -0.0211
 1312ERGO    C117913  15.794  17.479   7.520 -0.1588 -0.2900 -0.1070
 1312ERGO    C217914  15.854  17.409   7.902 -0.1997  0.0383 -0.0239
 1313ERGO   ROH17915   9.963  17.977   6.097 -0.0315 -0.0025  0.1128
 1313ERGO    R117916   9.883  17.961   6.368 -0.0543  0.0530  0.1102
 1313ERGO    R217917  10.057  17.890   6.570 -0.1161 -0.0956  0.1165
 1313ERGO    R317918   9.974  18.124   6.680  0.0692 -0.0294  0.1172
 1313ERGO    R417919  10.054  17.958   6.909 -0.3293 -0.2017  0.1372
 1313ERGO    R517920   9.862  18.058   6.882 -0.1874  0.0389 -0.0003
 1313ERGO    C117921   9.974  18.218   7.209 -0.2794 -0.2013  0.1500
 1313ERGO    C217922   9.951  18.294   7.460 -0.0464  0.5213  0.1097
 1314ERGO   ROH17923  15.350   0.755   6.134  0.1383  0.1115  0.1502
 1314ERGO    R117924  15.475   0.806   6.383  0.0656 -0.0709  0.2263
 1314ERGO    R217925  15.335   0.813   6.621 -0.0222 -0.1421  0.1784
 1314ERGO    R317926  15.520   0.629   6.697 -0.1250 -0.2578  0.1506
 1314ERGO    R417927  15.468   0.787   6.939  0.2362 -0.0218  0.0827
 1314ERGO    R517928  15.663   0.748   6.849  0.1228 -0.2720 -0.0642
 1314ERGO    C117929  15.719   0.599   7.196  0.2903 -0.0604  0.0009
 1314ERGO    C217930  15.621   0.457   7.414  0.0039 -0.0545 -0.1063
 1315ERGO   ROH17931   3.322  10.139   6.496 -0.2245  0.2009 -0.0945
 1315ERGO    R117932   3.273  10.045   6.758 -0.1485  0.1065 -0.1147
 1315ERGO    R217933   3.328  10.195   6.983 -0.0561  0.0133 -0.0775
 1315ERGO    R317934   3.068  10.144   7.042 -0.0430  0.0217 -0.0068
 1315ERGO    R417935   3.186  10.240   7.295  0.0736 -0.1594  0.0094
 1315ERGO    R517936   3.075  10.054   7.264  0.0290 -0.1220 -0.0657
 1315ERGO    C117937   2.859  10.219   7.532  0.1616 -0.2522  0.1264
 1315ERGO    C217938   2.841  10.257   7.947  0.0022 -0.1452  0.4803
 1316ERGO   ROH17939  15.455  16.893   6.273  0.0622 -0.1856 -0.0589
 1316ERGO    R117940  15.372  17.003   6.520 -0.0044 -0.1547 -0.0952
 1316ERGO    R217941  15.172  16.889   6.674  0.0422 -0.2060 -0.0756
 1316ERGO    R317942  15.363  16.895   6.868  0.0273 -0.0588 -0.0637
 1316ERGO    R417943  15.109  16.882   7.014  0.0155 -0.0163 -0.0757
 1316ERGO    R517944  15.268  17.029   7.041 -0.0108  0.0287 -0.1500
 1316ERGO    C117945  15.252  16.885   7.394 -0.0141  0.2322 -0.0647
 1316ERGO    C217946  15.238  16.949   7.817  0.1988 -0.2876 -0.1177
 1317ERGO   ROH17947   4.098  14.850   6.078 -0.1818  0.0903 -0.1476
 1317ERGO    R117948   4.260  14.964   6.281 -0.2010 -0.0977 -0.0237
 1317ERGO    R217949   4.341  15.228   6.275  0.1724 -0.2056 -0.0033
 1317ERGO    R317950   4.229  15.234   6.523 -0.0457 -0.0087 -0.1025
 1317ERGO    R417951   4.422  15.455   6.523  0.2094 -0.2294  0.0065
 1317ERGO    R517952   4.410  15.293   6.668 -0.1071 -0.1768  0.0441
 1317ERGO    C117953   4.364  15.593   6.899  0.0262 -0.0583 -0.0808
 1317ERGO    C217954   4.455  15.793   7.181 -0.1466  0.2658 -0.1606
 1318ERGO   ROH17955   9.301  11.234   6.083  0.1761  0.0444  0.0168
 1318ERGO    R117956   9.395  11.234   6.350  0.1178 -0.0838  0.0380
 1318ERGO    R217957   9.377  11.456   6.513  0.2866 -0.0922  0.0684
 1318ERGO    R317958   9.250  11.283   6.680  0.0891 -0.0023  0.0137
 1318ERGO    R417959   9.268  11.534   6.832  0.4352 -0.0827  0.1178
 1318ERGO    R517960   9.335  11.337   6.898  0.1945 -0.2013  0.0246
 1318ERGO    C117961   9.085  11.417   7.174  0.3364  0.0071  0.0951
 1318ERGO    C217962   8.941  11.360   7.384  0.1886 -0.3554 -0.0469
 1319ERGO   ROH17963   8.160  15.027   6.564 -0.2396 -0.0168 -0.2142
 1319ERGO    R117964   8.108  15.062   6.840 -0.0573  0.0754 -0.1897
 1319ERGO    R217965   7.853  15.048   6.946  0.0025  0.1856 -0.0270
 1319ERGO    R317966   7.966  14.862   7.110  0.0448  0.1938 -0.0467
 1319ERGO    R417967   7.759  14.990   7.274 -0.0385  0.0726 -0.0581
 1319ERGO    R517968   7.970  14.967   7.325 -0.0397  0.1460 -0.0219
 1319ERGO    C117969   7.810  14.782   7.618 -0.0228  0.0145 -0.0948
 1319ERGO    C217970   7.926  14.529   7.851 -0.0013  0.3549 -0.0157
 1320ERGO   ROH17971   5.355   1.857   6.513  0.1030 -0.0545 -0.0382
 1320ERGO    R117972   5.238   1.959   6.749  0.2663  0.0256  0.0095
 1320ERGO    R217973   5.023   1.837   6.873  0.0450  0.3278 -0.0686
 1320ERGO    R317974   5.186   1.843   7.090  0.0494 -0.0705 -0.0542
 1320ERGO    R417975   4.917   1.822   7.202  0.0179  0.1582 -0.0836
 1320ERGO    R517976   5.067   1.972   7.252  0.2023 -0.0681  0.0596
 1320ERGO    C117977   5.008   1.819   7.596  0.0062 -0.3145 -0.0788
 1320ERGO    C217978   5.105   1.750   7.897  0.0661  0.1777 -0.0058
 1321ERGO   ROH17979   2.934  14.160   6.635  0.0081 -0.0497 -0.0665
 1321ERGO    R117980   2.891  14.179   6.914 -0.0081  0.0068 -0.0724
 1321ERGO    R217981   2.639  14.166   7.027 -0.0218  0.1081 -0.0900
 1321ERGO    R317982   2.751  13.968   7.175 -0.1003  0.0929 -0.0510
 1321ERGO    R417983   2.529  14.065   7.338  0.0675  0.3632  0.0265
 1321ERGO    R517984   2.736  14.046   7.400  0.0898  0.2261 -0.0818
 1321ERGO    C117985   2.570  13.820   7.659  0.0458  0.4973  0.1310
 1321ERGO    C217986   2.428  13.728   7.986  0.1221 -0.0025  0.1087
 1322ERGO   ROH17987   7.604  15.850   6.429 -0.1287 -0.3433 -0.0360
 1322ERGO    R117988   7.681  16.022   6.640 -0.0311 -0.2207 -0.1701
 1322ERGO    R217989   7.629  15.964   6.906 -0.0305 -0.0006 -0.1247
 1322ERGO    R317990   7.897  16.000   6.932 -0.0116 -0.0983 -0.1729
 1322ERGO    R417991   7.786  16.093   7.185  0.0418  0.0945 -0.2080
 1322ERGO    R517992   7.919  16.204   7.054  0.0795 -0.0326 -0.2886
 1322ERGO    C117993   8.128  16.202   7.373  0.1016  0.0582 -0.3017
 1322ERGO    C217994   8.282  16.235   7.708 -0.1375 -0.2505 -0.1140
 1323ERGO   ROH17995   6.315  15.002   6.246 -0.3145 -0.1358  0.0070
 1323ERGO    R117996   6.419  15.017   6.509 -0.2357 -0.1155 -0.0253
 1323ERGO    R217997   6.412  15.250   6.658 -0.1630 -0.0972 -0.0536
 1323ERGO    R317998   6.288  15.091   6.840 -0.1286 -0.0577  0.0052
 1323ERGO    R417999   6.441  15.283   7.000 -0.0435 -0.0605 -0.0665
 1323ERGO    R518000   6.449  15.066   7.016 -0.0723 -0.0622 -0.0447
 1323ERGO    C118001   6.341  15.154   7.371  0.0584 -0.0020 -0.0188
 1323ERGO    C218002   6.362  15.370   7.611  0.0220 -0.0957 -0.0604
 1324ERGO   ROH18003  15.079  17.801   6.099  0.1329 -0.2536  0.0196
 1324ERGO    R118004  14.982  17.768   6.363  0.2518 -0.2378  0.0664
 1324ERGO    R218005  15.111  17.875   6.583  0.1475  0.1101 -0.0294
 1324ERGO    R318006  14.868  17.985   6.632 -0.0201 -0.2386 -0.0477
 1324ERGO    R418007  14.993  17.958   6.897  0.1310  0.2418 -0.0706
 1324ERGO    R518008  14.796  17.883   6.837  0.2293 -0.1450  0.0852
 1324ERGO    C118009  14.695  18.111   7.125 -0.0360 -0.0092 -0.1117
 1324ERGO    C218010  14.488  18.182   7.351 -0.0115  0.1036  0.1158
 1325ERGO   ROH18011  11.621  18.098   6.052  0.0532 -0.0934  0.0636
 1325ERGO    R118012  11.568  18.200   6.311 -0.1751  0.1341 -0.0664
 1325ERGO    R218013  11.312  18.230   6.410 -0.2582 -0.2660 -0.1297
 1325ERGO    R318014  11.408  18.080   6.615  0.0475  0.1815  0.0697
 1325ERGO    R418015  11.197  18.244   6.735 -0.4179 -0.2208 -0.1878
 1325ERGO    R518016  11.403  18.227   6.804 -0.3951  0.3697 -0.0815
 1325ERGO    C118017  11.220  18.110   7.118 -0.2239  0.2254 -0.0344
 1325ERGO    C218018  11.054  18.051   7.349 -0.1341  0.0270  0.0599
 1326ERGO   ROH18019   6.474   7.066   6.241 -0.0618  0.0754 -0.0387
 1326ERGO    R118020   6.516   7.001   6.513  0.0648 -0.2298 -0.1264
 1326ERGO    R218021   6.366   7.112   6.717  0.5145 -0.0309  0.1100
 1326ERGO    R318022   6.321   6.852   6.782 -0.0197  0.0084 -0.0538
 1326ERGO    R418023   6.216   7.005   7.009  0.5630  0.0844  0.1786
 1326ERGO    R518024   6.360   6.842   7.018  0.2055 -0.2665 -0.0989
 1326ERGO    C118025   6.086   6.698   7.240  0.0896  0.1885  0.0647
 1326ERGO    C218026   5.941   6.552   7.493 -0.3675 -0.0832 -0.0206
 1327ERGO   ROH18027  17.204  15.523   6.391 -0.1365 -0.0218 -0.0717
 1327ERGO    R118028  17.382  15.553   6.609 -0.0924  0.0079 -0.1115
 1327ERGO    R218029  17.304  15.509   6.871 -0.0326  0.0188 -0.0927
 1327ERGO    R318030  17.517  15.340   6.872 -0.0177  0.0374 -0.1253
 1327ERGO    R418031  17.431  15.354   7.152  0.1263  0.1620 -0.0836
 1327ERGO    R518032  17.632  15.390   7.076  0.0848  0.1442 -0.2073
 1327ERGO    C118033  17.704  15.104   7.317  0.2329  0.2630 -0.1088
 1327ERGO    C218034  17.711  14.925   7.611  0.1792  0.1398 -0.1401
 1328ERGO   ROH18035  11.123  16.989   6.230  0.2036 -0.0372  0.0191
 1328ERGO    R118036  11.118  17.168   6.449  0.0431 -0.0052 -0.0096
 1328ERGO    R218037  10.929  17.153   6.651  0.0279 -0.1131 -0.0314
 1328ERGO    R318038  11.148  17.144   6.811  0.0154  0.0742 -0.0022
 1328ERGO    R418039  10.929  17.221   6.989 -0.1199 -0.3489  0.0189
 1328ERGO    R518040  11.118  17.327   6.963 -0.2571 -0.0713  0.1223
 1328ERGO    C118041  11.135  17.253   7.337 -0.2177 -0.3105  0.0757
 1328ERGO    C218042  11.034  17.274   7.611 -0.2036  0.0919 -0.2972
 1329ERGO   ROH18043  10.453   3.970   5.869  0.1833  0.0571  0.1870
 1329ERGO    R118044  10.484   4.103   6.117 -0.0144  0.0147  0.2361
 1329ERGO    R218045  10.302   4.078   6.324  0.0005 -0.3020  0.2134
 1329ERGO    R318046  10.522   4.007   6.466  0.0877 -0.0566  0.2065
 1329ERGO    R418047  10.335   4.110   6.666 -0.0983 -0.4167  0.2344
 1329ERGO    R518048  10.541   4.175   6.636 -0.1792 -0.1045  0.2912
 1329ERGO    C118049  10.561   4.062   6.999 -0.0738 -0.2531  0.2403
 1329ERGO    C218050  10.592   4.114   7.308 -0.1124  0.2297  0.0159
 1330ERGO   ROH18051  11.838   3.354   5.575  0.3269 -0.0660 -0.0450
 1330ERGO    R118052  11.704   3.377   5.823  0.1842  0.0991 -0.1349
 1330ERGO    R218053  11.716   3.180   6.017 -0.2439  0.0508 -0.1494
 1330ERGO    R318054  11.799   3.386   6.175 -0.0452 -0.0904 -0.0656
 1330ERGO    R418055  11.731   3.170   6.363 -0.1500 -0.1366 -0.1574
 1330ERGO    R518056  11.656   3.375   6.367  0.0026 -0.0815 -0.0296
 1330ERGO    C118057  11.818   3.357   6.711  0.0912 -0.3783 -0.0834
 1330ERGO    C218058  11.988   3.301   7.030 -0.0815  0.0080 -0.1404
 1331ERGO   ROH18059   6.671   9.112   6.308 -0.1757  0.0040 -0.0812
 1331ERGO    R118060   6.573   8.988   6.543 -0.0475 -0.0076 -0.0320
 1331ERGO    R218061   6.712   8.790   6.675 -0.0661 -0.1653 -0.2342
 1331ERGO    R318062   6.680   8.955   6.889  0.2610 -0.2127 -0.1436
 1331ERGO    R418063   6.598   8.690   6.986 -0.1442 -0.1272 -0.2509
 1331ERGO    R518064   6.482   8.874   6.997  0.1573  0.0597 -0.1290
 1331ERGO    C118065   6.502   8.787   7.368  0.1173 -0.1497 -0.1755
 1331ERGO    C218066   6.394   8.588   7.617  0.0556  0.1126 -0.0224
 1332ERGO   ROH18067   2.664   7.898   6.486  0.0886 -0.0634  0.1615
 1332ERGO    R118068   2.871   8.027   6.631  0.0471 -0.0350  0.1964
 1332ERGO    R218069   2.866   8.053   6.906  0.0581 -0.1468  0.2092
 1332ERGO    R318070   3.110   7.935   6.890  0.1056 -0.0403  0.1404
 1332ERGO    R418071   3.099   8.047   7.161  0.0382 -0.2477  0.2249
 1332ERGO    R518072   3.255   8.081   7.012  0.0381 -0.0751  0.2631
 1332ERGO    C118073   3.464   7.932   7.294  0.0713 -0.2064  0.1695
 1332ERGO    C218074   3.763   7.946   7.464  0.1520  0.2249 -0.1111
 1333ERGO   ROH18075   4.899   2.753   6.167 -0.1283  0.1863  0.0361
 1333ERGO    R118076   4.972   2.800   6.437 -0.0073 -0.0212  0.0415
 1333ERGO    R218077   4.841   2.983   6.597  0.2602  0.0797  0.1464
 1333ERGO    R318078   4.814   2.770   6.763  0.0249  0.0417  0.0647
 1333ERGO    R418079   4.743   3.003   6.928  0.3087  0.0759  0.1609
 1333ERGO    R518080   4.892   2.850   6.975  0.1406 -0.1232  0.0912
 1333ERGO    C118081   4.662   2.814   7.277  0.1160  0.0379  0.0926
 1333ERGO    C218082   4.570   2.855   7.593  0.2224 -0.3190 -0.1293
 1334ERGO   ROH18083   5.317  15.095   6.087  0.0260  0.0874 -0.0030
 1334ERGO    R118084   5.272  15.121   6.365  0.0780  0.1285  0.0015
 1334ERGO    R218085   5.217  14.905   6.528 -0.0370  0.1698  0.0169
 1334ERGO    R318086   5.428  15.001   6.671  0.0421  0.0441 -0.0126
 1334ERGO    R418087   5.283  14.829   6.859 -0.1314  0.2575  0.0567
 1334ERGO    R518088   5.339  15.037   6.891  0.0562  0.2242 -0.0338
 1334ERGO    C118089   5.519  14.875   7.185 -0.1121  0.1906  0.0522
 1334ERGO    C218090   5.637  14.685   7.315  0.2648  0.0147 -0.5308
 1335ERGO   ROH18091   0.475  10.758   6.375  0.0349 -0.0169  0.1439
 1335ERGO    R118092   0.658  10.800   6.586  0.0091 -0.1972  0.2037
 1335ERGO    R218093   0.705  11.050   6.696  0.2459 -0.2359  0.1937
 1335ERGO    R318094   0.643  10.924   6.928  0.0259 -0.1458  0.1862
 1335ERGO    R418095   0.777  11.170   7.011  0.2092 -0.2485  0.2070
 1335ERGO    R518096   0.829  10.968   7.072  0.0020 -0.2884  0.2642
 1335ERGO    C118097   0.760  11.122   7.413 -0.0187 -0.1713  0.2077
 1335ERGO    C218098   0.770  11.286   7.714 -0.1236 -0.3998  0.2507
 1336ERGO   ROH18099   2.420   9.957   6.190  0.0074  0.2614  0.0455
 1336ERGO    R118100   2.232   9.852   6.375  0.0766  0.1164  0.0363
 1336ERGO    R218101   2.302   9.669   6.570  0.2170  0.1959  0.0700
 1336ERGO    R318102   2.189   9.852   6.736  0.0385  0.1223  0.0300
 1336ERGO    R418103   2.243   9.621   6.907  0.1281  0.1713  0.0504
 1336ERGO    R518104   2.052   9.723   6.883  0.0738  0.0419 -0.0149
 1336ERGO    C118105   2.102   9.766   7.259 -0.0913  0.0879  0.0014
 1336ERGO    C218106   2.016   9.824   7.618  0.5098  0.0365  0.1107
 1337ERGO   ROH18107   4.228  12.078   6.350  0.0929  0.1659 -0.0969
 1337ERGO    R118108   4.111  12.239   6.551 -0.2014 -0.1392 -0.0134
 1337ERGO    R218109   3.991  12.132   6.776  0.1468 -0.4736  0.0315
 1337ERGO    R318110   4.163  12.296   6.907 -0.1669 -0.0839 -0.0289
 1337ERGO    R418111   4.006  12.169   7.119  0.2123 -0.4650  0.0266
 1337ERGO    R518112   4.035  12.383   7.090 -0.2893 -0.3897  0.0306
 1337ERGO    C118113   4.176  12.345   7.442 -0.0441 -0.0943 -0.0330
 1337ERGO    C218114   4.141  12.127   7.718  0.1862  0.1037 -0.0652
 1338ERGO   ROH18115  12.385  13.982   6.373  0.1976  0.2006 -0.1044
 1338ERGO    R118116  12.194  14.016   6.579  0.1585  0.1057 -0.1243
 1338ERGO    R218117  12.196  13.865   6.810  0.1741  0.0684 -0.1510
 1338ERGO    R318118  12.199  14.109   6.931  0.0793  0.0481 -0.1068
 1338ERGO    R418119  12.143  13.919   7.148  0.2311 -0.0297 -0.1261
 1338ERGO    R518120  12.025  14.096   7.096  0.1247 -0.0767 -0.0644
 1338ERGO    C118121  12.114  14.179   7.457  0.1753 -0.1058 -0.0702
 1338ERGO    C218122  11.950  14.202   7.759 -0.5475 -0.2542 -0.1704
 1339ERGO   ROH18123   5.985   6.816   6.253 -0.0999 -0.0763 -0.1101
 1339ERGO    R118124   5.814   6.763   6.472 -0.1126  0.0746 -0.0824
 1339ERGO    R218125   5.903   6.754   6.733 -0.0672 -0.0517 -0.1007
 1339ERGO    R318126   5.707   6.938   6.773  0.1298  0.1506 -0.0390
 1339ERGO    R418127   5.704   6.771   7.015 -0.1968 -0.0659 -0.1905
 1339ERGO    R518128   5.534   6.815   6.885 -0.0782  0.2558 -0.2402
 1339ERGO    C118129   5.403   6.952   7.216 -0.0873  0.1156 -0.1850
 1339ERGO    C218130   5.455   6.873   7.492  0.1030 -0.2497  0.2080
 1340ERGO   ROH18131   8.195   9.279   5.953 -0.2833  0.0650 -0.0616
 1340ERGO    R118132   8.234   9.330   6.229 -0.2145  0.0228 -0.0622
 1340ERGO    R218133   8.282   9.128   6.412 -0.3566 -0.0288 -0.0710
 1340ERGO    R318134   8.500   9.279   6.472 -0.2281 -0.2038 -0.0953
 1340ERGO    R418135   8.415   9.167   6.729 -0.4408  0.0799 -0.0499
 1340ERGO    R518136   8.448   9.378   6.683 -0.2100  0.0090 -0.1933
 1340ERGO    C118137   8.696   9.332   6.970 -0.3692 -0.0211 -0.0603
 1340ERGO    C218138   8.750   9.378   7.252 -0.0178  0.0064 -0.2146
 1341ERGO   ROH18139  10.907   7.904   6.107 -0.0132 -0.1797 -0.0271
 1341ERGO    R118140  10.766   7.868   6.350 -0.0453  0.0001 -0.0179
 1341ERGO    R218141  10.688   7.618   6.441 -0.1670  0.0805  0.0937
 1341ERGO    R318142  10.822   7.693   6.665 -0.1475  0.1209  0.0692
 1341ERGO    R418143  10.584   7.556   6.764 -0.1994  0.2339  0.1139
 1341ERGO    R518144  10.651   7.756   6.819 -0.1346  0.2355  0.0412
 1341ERGO    C118145  10.650   7.591   7.163 -0.1999  0.3611  0.1027
 1341ERGO    C218146  10.459   7.639   7.400  0.3055  0.3123  0.0299
 1342ERGO   ROH18147   4.467  18.494   6.217  0.0129 -0.1105 -0.0847
 1342ERGO    R118148   4.391  18.512   6.489 -0.0042  0.0739 -0.0997
 1342ERGO    R218149   4.422  18.302   6.666 -0.2325  0.1089 -0.0080
 1342ERGO    R318150   4.556  18.488   6.812 -0.0641  0.0383 -0.0731
 1342ERGO    R418151   4.547  18.252   6.984  0.0308  0.0063 -0.1260
 1342ERGO    R518152   4.482  18.453   7.037  0.1241  0.0031 -0.0192
 1342ERGO    C118153   4.747  18.397   7.306  0.3421 -0.1199 -0.2557
 1342ERGO    C218154   4.862  18.181   7.508  0.0413  0.0853  0.0250
 1343ERGO   ROH18155   9.259  17.244   6.034  0.0419 -0.2064 -0.2136
 1343ERGO    R118156   9.316  17.107   6.275  0.1156 -0.1082 -0.1749
 1343ERGO    R218157   9.561  17.124   6.401  0.0591  0.1764 -0.1008
 1343ERGO    R318158   9.409  17.197   6.615 -0.0869  0.0462 -0.1575
 1343ERGO    R418159   9.660  17.099   6.731 -0.0389  0.2659 -0.0638
 1343ERGO    R518160   9.458  17.032   6.782 -0.0026  0.0879 -0.1384
 1343ERGO    C118161   9.575  17.153   7.124 -0.2330  0.1957 -0.0956
 1343ERGO    C218162   9.570  17.184   7.494 -0.0943 -0.0698 -0.1928
 1344ERGO   ROH18163   3.871   6.043   6.333 -0.0869  0.1406  0.0374
 1344ERGO    R118164   3.984   5.945   6.573  0.1174  0.0880 -0.0766
 1344ERGO    R218165   4.211   6.056   6.687  0.1246  0.1723 -0.1536
 1344ERGO    R318166   4.052   6.076   6.906  0.2333 -0.0329 -0.0545
 1344ERGO    R418167   4.318   6.017   7.013  0.3321  0.1655 -0.2217
 1344ERGO    R518168   4.134   5.908   7.056  0.4563 -0.0020 -0.1490
 1344ERGO    C118169   4.231   6.014   7.409  0.5550 -0.0312 -0.1683
 1344ERGO    C218170   4.226   6.029   7.744  0.0356  0.0675  0.0051
 1345ERGO   ROH18171  17.360   5.572   6.445  0.1079 -0.2190 -0.1448
 1345ERGO    R118172  17.428   5.414   6.670  0.0745 -0.1202 -0.0635
 1345ERGO    R218173  17.415   5.510   6.929  0.0565  0.0026 -0.1040
 1345ERGO    R318174  17.259   5.291   6.968  0.0344  0.0336 -0.0240
 1345ERGO    R418175  17.392   5.333   7.225  0.1486  0.0154 -0.0896
 1345ERGO    R518176  17.389   5.149   7.109  0.0642  0.0151 -0.0767
 1345ERGO    C118177  17.232   5.025   7.434  0.1815  0.0519 -0.0062
 1345ERGO    C218178  17.284   4.891   7.767 -0.0002 -0.1032 -0.3834
 1346ERGO   ROH18179  14.246  10.924   5.941 -0.2203 -0.0259  0.0003
 1346ERGO    R118180  14.181  11.005   6.205  0.0225 -0.0696  0.0766
 1346ERGO    R218181  13.920  11.045   6.288  0.1110  0.1670  0.2515
 1346ERGO    R318182  13.989  10.869   6.483  0.0480  0.0095  0.1334
 1346ERGO    R418183  13.776  11.032   6.601  0.0928 -0.0038  0.2370
 1346ERGO    R518184  13.974  10.996   6.685  0.0789 -0.1241  0.2215
 1346ERGO    C118185  13.757  10.859   6.967  0.0230 -0.2510  0.1176
 1346ERGO    C218186  13.581  10.917   7.265 -0.3186 -0.4895  0.1571
 1347ERGO   ROH18187   4.864   5.959   5.907 -0.0165  0.0515 -0.2696
 1347ERGO    R118188   4.863   5.776   6.123 -0.1724  0.2033 -0.1395
 1347ERGO    R218189   5.090   5.642   6.207 -0.3125 -0.0397 -0.1418
 1347ERGO    R318190   5.024   5.749   6.448 -0.0739  0.2192 -0.1862
 1347ERGO    R418191   5.144   5.490   6.512 -0.3831  0.0984 -0.0591
 1347ERGO    R518192   4.950   5.562   6.578 -0.2667  0.4013 -0.0243
 1347ERGO    C118193   5.115   5.501   6.916 -0.2003  0.4221 -0.0526
 1347ERGO    C218194   5.144   5.505   7.305 -0.2920 -0.0227  0.1371
 1348W        W18195  10.748   7.233   0.199  0.0941  0.0124 -0.3747
 1349W        W18196  17.520   3.996  15.135  0.1038  0.0242  0.1303
 1350W        W18197   8.623   2.693  11.602  0.2795 -0.1018  0.0044
 1351W        W18198  10.442  10.416  11.402 -0.1680  0.1013  0.0217
 1352W        W18199   1.631  13.871  11.704  0.0871  0.0879  0.0747
 1353W        W18200  12.121  17.054   3.491 -0.1567  0.1142 -0.0581
 1354W        W18201   2.685   7.271  14.429  0.0141 -0.4170 -0.0225
 1355W        W18202  10.258   8.516   2.867  0.3442 -0.3367  0.1824
 1356W        W18203  12.652   9.574  12.837  0.0927 -0.2426 -0.0863
 1357W        W18204   3.844  10.330   5.551 -0.1058  0.2231  0.1127
 1358W        W18205   5.702   8.454   0.885  0.0509 -0.0032  0.0278
 1359W        W18206  17.492  16.478   4.186 -0.2921  0.1712 -0.2972
 1360W        W18207  12.114   5.090  13.495 -0.2013 -0.1156 -0.0820
 1361W        W18208   0.437   3.536   2.621  0.0700 -0.0150 -0.1673
 1362W        W18209   0.489   9.829   6.106  0.1022 -0.0164 -0.0418
 1363W        W18210   1.912   2.406   1.991  0.0504 -0.1979  0.0390
 1364W        W18211   9.817  13.392   2.478 -0.0466  0.0636 -0.2569
 1365W        W18212   6.533  15.669  12.937  0.1558 -0.0307 -0.0561
 1366W        W18213   6.357   0.172   1.699 -0.1776  0.0860 -0.0591
 1367W        W18214  17.746   7.721   2.162 -0.1111  0.0406  0.1719
 1368W        W18215   5.321  17.784   0.470 -0.1858  0.0855 -0.2297
 1369W        W18216  16.850   4.818  14.363 -0.0440  0.0180 -0.1172
 1370W        W18217  12.631   7.171   0.355  0.0830 -0.0254  0.2879
 1371W        W18218  15.682   4.619  13.232  0.2910  0.1553  0.2363
 1372W        W18219   3.855   6.709  15.303  0.2741 -0.0225  0.0693
 1373W        W18220  13.132   3.578  14.952  0.1493 -0.0153  0.0612
 1374W        W18221  17.387   4.704   1.000 -0.0937  0.5714 -0.1687
 1375W        W18222  13.599   0.388  13.191 -0.1098 -0.1481 -0.0348
 1376W        W18223   3.468  14.954   5.319 -0.0256  0.3889  0.3601
 1377W        W18224   3.097  15.251   3.099  0.1993 -0.2072 -0.1699
 1378W        W18225  16.612  15.594   5.096  0.0064  0.0949 -0.3583
 1379W        W18226  16.905   5.276  14.636 -0.3509  0.1809 -0.0100
 1380W        W18227  11.538   1.545   3.963  0.3754 -0.1307 -0.0773
 1381W        W18228  12.061  17.020   1.863  0.0793  0.1992  0.3047
 1382W        W18229  11.677  14.485  14.389  0.1831 -0.0834  0.2300
 1383W        W18230  18.116   7.856  11.983 -0.0395 -0.4194 -0.0536
 1384W        W18231   7.597   4.859   4.443 -0.0249 -0.0804 -0.0182
 1385W        W18232  10.384  10.097  15.278 -0.1269  0.0022 -0.0564
 1386W        W18233   5.517  15.940  13.909 -0.3076 -0.0412 -0.0463
 1387W        W18234   3.215  12.226  11.913  0.1435  0.1843  0.2379
 1388W        W18235  17.801   4.074   2.204 -0.0989  0.2453 -0.0492
 1389W        W18236  18.164  10.885  14.506  0.0162  0.3081  0.0991
 1390W        W18237   4.512  17.903   3.545 -0.0446  0.1495  0.1747
 1391W        W18238  11.040  12.553   4.959  0.2368  0.1039 -0.1806
 1392W        W18239   1.659   1.024   2.672 -0.0993  0.2366  0.0871
 1393W        W18240   8.201   6.199   3.600 -0.1223 -0.0604 -0.0385
 1394W        W18241  14.817   5.976  10.418 -0.3188  0.1970  0.2587
 1395W        W18242  16.662   3.648   4.541  0.0138  0.1436  0.0859
 1396W        W18243  10.100   3.472  10.865 -0.0152 -0.0885  0.0742
 1397W        W18244  10.677   9.095   1.819 -0.4504  0.0242 -0.1027
 1398W        W18245   3.738   7.704  15.526 -0.0713  0.0909 -0.1622
 1399W        W18246  11.963   3.984   0.052 -0.2370 -0.0737 -0.3235
 1400W        W18247   8.692  10.185   3.557 -0.2024  0.2765  0.2250
 1401W        W18248   4.556   8.783   3.208 -0.2006  0.2844  0.1968
 1402W        W18249   3.715  12.716   3.190 -0.0859 -0.1090 -0.0861
 1403W        W18250   8.939  14.386  11.823  0.1882  0.1645 -0.2611
 1404W        W18251  15.383   7.244  13.053 -0.0524  0.1220 -0.1870
 1405W        W18252  16.853   5.383  14.103 -0.0461  0.0819  0.0302
 1406W        W18253   6.871  13.807   0.904 -0.0181 -0.0139 -0.1522
 1407W        W18254   8.402  15.507  14.258  0.2658 -0.2592  0.1370
 1408W        W18255  11.049  12.969   2.840 -0.1405 -0.0554 -0.0875
 1409W        W18256  17.631  17.060  14.525  0.1699 -0.2169 -0.0837
 1410W        W18257   8.682   1.610   0.391  0.3734  0.0655  0.0924
 1411W        W18258  14.671  16.171  13.236  0.4380  0.1650  0.1078
 1412W        W18259   8.681  17.067   3.066 -0.2290 -0.2433  0.0625
 1413W        W18260   1.319  14.049  13.039 -0.2393  0.1881  0.0692
 1414W        W18261   4.597   8.181   1.665  0.0410 -0.0993  0.0041
 1415W        W18262  16.108  15.233   5.516  0.0254  0.0526  0.2838
 1416W        W18263  18.237   9.336  12.375  0.0768 -0.0763 -0.2220
 1417W        W18264  18.464   8.523  13.962  0.3345  0.0423  0.2125
 1418W        W18265   4.433   7.595   2.453 -0.0889 -0.0602  0.1489
 1419W        W18266  15.177  11.040   4.954 -0.2285 -0.0607  0.4279
 1420W        W18267   2.099   1.481   2.179 -0.1025 -0.1513 -0.1326
 1421W        W18268   9.117   5.248  15.941  0.2825  0.1913  0.1413
 1422W        W18269  10.150   5.065   4.359 -0.0867 -0.0496 -0.1573
 1423W        W18270  15.975   9.673  13.293  0.0494 -0.0348  0.2078
 1424W        W18271  17.260  10.583  14.463  0.4142  0.1670  0.3744
 1425W        W18272  17.806   0.056   3.872  0.1884 -0.0084 -0.2208
 1426W        W18273   7.733  13.846   2.067 -0.2990 -0.0713 -0.1116
 1427W        W18274   5.595  17.561  15.534  0.0717  0.3076 -0.0369
 1428W        W18275  16.991  15.576   5.530  0.1400  0.0056  0.0531
 1429W        W18276   9.227   2.794  13.138 -0.0624 -0.2603  0.0044
 1430W        W18277  16.204  16.981  11.861  0.0168  0.2320 -0.1748
 1431W        W18278   8.780  10.173   5.111 -0.0832 -0.2698 -0.2758
 1432W        W18279  13.397  10.405  14.108 -0.2367  0.2303 -0.0922
 1433W        W18280  14.248   8.621   4.095  0.0860 -0.1399 -0.1076
 1434W        W18281   9.565  10.996   4.038  0.1433  0.3404 -0.0106
 1435W        W18282  12.756   0.277   2.624 -0.0252  0.1287 -0.2294
 1436W        W18283   4.125   4.582   1.656  0.0416 -0.1540 -0.0580
 1437W        W18284   5.859  14.833  12.109 -0.2961  0.0399 -0.1994
 1438W        W18285   0.351  11.699   1.732 -0.5680 -0.1878 -0.1369
 1439W        W18286   2.021   0.428   1.745 -0.0933 -0.2539  0.0613
 1440W        W18287  15.598  12.177   2.730  0.0352 -0.1431  0.0362
 1441W        W18288  13.968   8.383  11.740  0.2430 -0.3613 -0.1793
 1442W        W18289   9.794   6.861   1.730  0.0416  0.2020 -0.1699
 1443W        W18290   2.924  14.029   3.023 -0.3333 -0.1396  0.2350
 1444W        W18291   9.631   6.871   1.183 -0.0446  0.0765 -0.1982
 1445W        W18292   8.452  12.288  11.138  0.1344 -0.0021  0.0405
 1446W        W18293   0.682   6.990  15.441 -0.1386 -0.3052  0.1115
 1447W        W18294  12.791  16.179  11.733 -0.2781  0.3235 -0.1509
 1448W        W18295  11.694   9.094  12.983 -0.0164  0.0352 -0.0158
 1449W        W18296  15.365   8.078  13.455 -0.1003 -0.2943  0.1578
 1450W        W18297  11.447  10.012   1.524 -0.2533 -0.0643  0.3890
 1451W        W18298   5.201  13.921  13.832 -0.0045  0.0296  0.0902
 1452W        W18299   9.383   1.147  11.943  0.0175  0.0337 -0.0891
 1453W        W18300   1.607   5.045  13.000  0.0537 -0.1700 -0.0229
 1454W        W18301  10.643   5.978   0.163  0.0781 -0.0318  0.0258
 1455W        W18302  11.539   0.591  15.272 -0.0129 -0.0615  0.0074
 1456W        W18303   9.339  11.290   1.126  0.1895  0.0195 -0.1359
 1457W        W18304  16.249   1.566   3.956 -0.1026  0.0740  0.0800
 1458W        W18305   9.587   1.011   0.034  0.0696 -0.0661 -0.1880
 1459W        W18306  13.583   6.132  13.947 -0.3102 -0.1821 -0.0740
 1460W        W18307   2.089  14.027  12.334 -0.0786 -0.0962 -0.0185
 1461W        W18308  11.245  10.473   4.611 -0.2985 -0.0122 -0.2830
 1462W        W18309  11.861   4.575   2.243  0.0142  0.2461  0.1291
 1463W        W18310   1.440  12.094  12.354  0.0455 -0.3041 -0.1983
 1464W        W18311  17.090   4.029   1.626  0.2616 -0.0878 -0.4255
 1465W        W18312   0.193  17.272  14.317  0.0559  0.0190 -0.0537
 1466W        W18313  15.885   3.959  12.583 -0.0928 -0.2189 -0.1847
 1467W        W18314  17.227  16.355   5.065 -0.0855  0.2465 -0.0097
 1468W        W18315   5.756   6.396  13.606  0.0336  0.2428 -0.2265
 1469W        W18316  13.502  12.272   0.578  0.2844 -0.0460 -0.0459
 1470W        W18317   4.344   7.121   3.543 -0.0356 -0.0356  0.2718
 1471W        W18318   5.830   8.664  13.385  0.1131  0.1999  0.1133
 1472W        W18319   0.646   8.347   4.075 -0.0003 -0.0193  0.0160
 1473W        W18320  13.718   8.880  11.628  0.2113  0.0157 -0.0366
 1474W        W18321   4.879   4.419   3.993 -0.2931 -0.1445  0.1150
 1475W        W18322   6.758   4.932   4.017 -0.1551  0.0954 -0.1731
 1476W        W18323   9.621  10.304  10.919  0.0914  0.2424 -0.1367
 1477W        W18324   0.087   6.015   1.764 -0.1129  0.2133  0.2703
 1478W        W18325   1.011   9.886  15.269 -0.2628 -0.0397  0.0918
 1479W        W18326  14.023   6.743   3.356  0.0179 -0.1498  0.1672
 1480W        W18327   3.934  14.839  11.933  0.0766  0.2898 -0.2482
 1481W        W18328   5.337  18.307  12.818  0.1752  0.1107 -0.1185
 1482W        W18329   7.562   5.694   3.786 -0.1539  0.2412  0.2351
 1483W        W18330  17.496   4.963   2.465  0.3072  0.0604  0.0293
 1484W        W18331  11.011   4.728   3.569  0.0652 -0.0822 -0.0698
 1485W        W18332  14.879   5.612  15.315  0.1530 -0.3954  0.1212
 1486W        W18333   2.633  13.595  11.438  0.3187 -0.1037  0.3175
 1487W        W18334  10.131  12.572   0.532 -0.1266 -0.0952  0.4048
 1488W        W18335   4.077  16.064   3.254  0.2786  0.0767 -0.0322
 1489W        W18336  16.101   9.543   1.294 -0.0478 -0.0583 -0.0892
 1490W        W18337  11.576  13.995   2.120  0.0073 -0.3094  0.4092
 1491W        W18338  10.945  11.860  15.541  0.0928 -0.2466  0.1592
 1492W        W18339   6.634   2.905  13.513  0.1191 -0.1836  0.3518
 1493W        W18340  17.565  14.563  10.276 -0.0468  0.0199 -0.2104
 1494W        W18341  13.222   8.954   5.092 -0.3254 -0.1262 -0.1449
 1495W        W18342   2.981  16.804  15.926  0.2189 -0.1753 -0.0104
 1496W        W18343  17.592   6.778   5.547  0.2099  0.2964  0.2538
 1497W        W18344  11.267   4.460  14.416 -0.0454 -0.2137  0.1996
 1498W        W18345  17.096   8.667   2.463 -0.0963  0.0012 -0.1836
 1499W        W18346  17.049  14.753   0.450  0.1540 -0.1252 -0.5073
 1500W        W18347  12.988   5.118  13.359  0.2440 -0.0331  0.0013
 1501W        W18348  18.356  15.426   3.012 -0.1106 -0.2276 -0.1959
 1502W        W18349  11.930  10.417   1.350 -0.3478 -0.0745 -0.1086
 1503W        W18350   2.641  17.405  12.899 -0.2929 -0.2277  0.0867
 1504W        W18351   7.722  16.426  15.643  0.2680  0.1077  0.0756
 1505W        W18352   5.464   9.637  13.132  0.2439 -0.2515  0.4366
 1506W        W18353   0.063   7.369   4.867 -0.0697 -0.1551 -0.3344
 1507W        W18354  16.569   3.822  15.687  0.2360  0.2164  0.0003
 1508W        W18355  14.978  12.017   0.596  0.0499 -0.1237 -0.0807
 1509W        W18356   5.936  17.157  15.382 -0.0580  0.0707  0.4172
 1510W        W18357   9.608  15.685   2.275  0.1006 -0.1666 -0.0564
 1511W        W18358  15.137   1.107  15.307 -0.3128  0.0550 -0.0424
 1512W        W18359   5.422   2.097  15.685 -0.2002 -0.0581  0.0705
 1513W        W18360  12.172  15.806   2.360  0.3081 -0.0293  0.2063
 1514W        W18361   2.245  14.828   4.186 -0.1340  0.3395  0.1120
 1515W        W18362  11.118   0.207  11.938  0.0672 -0.0112 -0.0028
 1516W        W18363  10.655   5.264   9.707  0.0359 -0.1401 -0.0239
 1517W        W18364  13.210  17.144  14.308 -0.1759 -0.1468 -0.0323
 1518W        W18365  12.775   2.729   3.085  0.1066 -0.1447 -0.2747
 1519W        W18366  14.607  16.215  14.402 -0.2020 -0.1484  0.0063
 1520W        W18367   2.583  13.328   5.222 -0.1575 -0.1016  0.0564
 1521W        W18368   8.333  14.462  14.768  0.1506  0.1528  0.4001
 1522W        W18369   1.456  16.542  12.952 -0.0017  0.0604 -0.2106
 1523W        W18370   0.917  15.126   3.192  0.4179 -0.1490 -0.0090
 1524W        W18371  12.471  12.802  15.729 -0.0625  0.1631  0.0200
 1525W        W18372   7.902  17.684   0.406 -0.1070 -0.4368  0.1816
 1526W        W18373  15.785   9.791   0.109  0.0706 -0.3300 -0.4508
 1527W        W18374   2.602   6.342   4.610  0.1188  0.0957  0.2263
 1528W        W18375   0.175  15.719   2.770 -0.0626 -0.1253  0.1263
 1529W        W18376   8.067  17.697  12.015  0.2919 -0.2411 -0.2866
 1530W        W18377   8.413  13.943  10.401  0.0993  0.0605  0.2920
 1531W        W18378  13.544   6.409   1.180  0.0698 -0.0057  0.0061
 1532W        W18379  11.541  11.902   1.149  0.0565  0.0473 -0.1152
 1533W        W18380  14.994  15.681  15.420 -0.1481  0.1803  0.0465
 1534W        W18381  17.233   0.096   2.269  0.0783 -0.2065  0.1178
 1535W        W18382   7.361   9.367   1.072 -0.0354  0.2685  0.0497
 1536W        W18383   0.497   2.780   4.204  0.2397  0.1760 -0.3119
 1537W        W18384   0.371   3.185   0.892 -0.1771  0.1215 -0.1426
 1538W        W18385   4.485   1.116  12.231  0.0178  0.0619 -0.3718
 1539W        W18386  11.112   2.441  11.199 -0.0773 -0.0546  0.1787
 1540W        W18387   1.212  10.629  12.211 -0.4538 -0.1514  0.1590
 1541W        W18388   0.457  15.000   2.335  0.3230  0.3296  0.0065
 1542W        W18389  15.262   6.801   0.835  0.2554  0.3083 -0.0144
 1543W        W18390  18.497   8.130  13.659  0.0733 -0.2596 -0.2731
 1544W        W18391   6.227  15.224   3.121  0.2627 -0.1159 -0.0544
 1545W        W18392  10.128   5.702   4.126  0.0439  0.0123  0.0420
 1546W        W18393   1.714   6.141  11.348  0.2401 -0.3984  0.0402
 1547W        W18394   1.716  18.008   0.271  0.0051  0.0211 -0.0011
 1548W        W18395   1.848   7.892   0.301 -0.2182  0.3136 -0.1668
 1549W        W18396  18.299  11.757   0.669 -0.0566 -0.3186  0.1718
 1550W        W18397  17.383   1.553   2.814 -0.0365 -0.1499  0.0164
 1551W        W18398   2.668  17.931   0.845 -0.1220 -0.0069  0.2433
 1552W        W18399   7.729   4.666   2.675  0.1308 -0.2038 -0.1673
 1553W        W18400   2.968   1.765   1.213 -0.1053 -0.1365 -0.0836
 1554W        W18401   4.014   0.593   3.212  0.1656  0.1620 -0.0231
 1555W        W18402  17.542  12.857  14.538  0.0060  0.2282 -0.0475
 1556W        W18403  10.707   1.214   2.375  0.1814  0.1665  0.0111
 1557W        W18404   0.850   3.770  11.140  0.0145  0.0940  0.1283
 1558W        W18405   1.863   1.639   3.204 -0.3692 -0.3952  0.2067
 1559W        W18406   8.286   7.954   3.255 -0.2196  0.0673  0.1073
 1560W        W18407   4.695  16.289   1.333  0.3630 -0.1806  0.1922
 1561W        W18408   5.354   8.019   3.064  0.1625 -0.1538  0.2371
 1562W        W18409   3.747  13.391   3.433  0.0516 -0.2758 -0.0090
 1563W        W18410   7.436   8.324   0.296 -0.1354 -0.3678  0.0390
 1564W        W18411  15.613   8.963   3.918 -0.0339 -0.1629 -0.0818
 1565W        W18412  15.120  15.630  14.913 -0.1320  0.0672  0.0237
 1566W        W18413   0.602  17.575   5.102 -0.3205 -0.1834  0.2073
 1567W        W18414  14.568   2.804  11.168  0.1285  0.0956  0.1176
 1568W        W18415  13.467   1.632   2.060 -0.1170 -0.3451  0.0422
 1569W        W18416  11.567  12.960  12.444 -0.0318  0.1019 -0.0912
 1570W        W18417  10.574  14.420  12.190  0.1558 -0.1517  0.0547
 1571W        W18418   5.019   8.659   3.134  0.0122 -0.1366  0.0272
 1572W        W18419  10.912   6.584   0.994  0.1593 -0.0163  0.3429
 1573W        W18420  16.810   4.228  15.524  0.0085  0.0203  0.0583
 1574W        W18421  14.598   8.718   0.892 -0.2763  0.1313  0.0933
 1575W        W18422   3.927  10.290  15.059 -0.0480  0.1515  0.2789
 1576W        W18423   1.413  18.441  12.285  0.0589 -0.1218 -0.1668
 1577W        W18424   7.230  16.820   3.235  0.1677  0.0024  0.0751
 1578W        W18425   4.632   5.261  12.603  0.5350 -0.1170 -0.0602
 1579W        W18426  17.419   1.587  15.567 -0.2903 -0.1478  0.0463
 1580W        W18427   6.107   6.817  15.542 -0.1654 -0.1118 -0.0625
 1581W        W18428  14.608   9.855   4.510 -0.0113 -0.0271  0.1263
 1582W        W18429  15.246  12.764  15.388  0.0280  0.2377  0.2372
 1583W        W18430   6.289   0.869  14.021  0.1790 -0.0731 -0.0885
 1584W        W18431  17.073   9.176   0.027  0.2966  0.2665 -0.0722
 1585W        W18432  14.119  14.076  11.519 -0.3553  0.2899  0.2424
 1586W        W18433  17.253  15.971   0.199 -0.0229  0.2600  0.1151
 1587W        W18434   8.676   6.666   1.437 -0.2452  0.2503 -0.0558
 1588W        W18435  13.731   3.683  15.824 -0.0400  0.1776 -0.0372
 1589W        W18436  17.794  15.838  15.405  0.1254  0.1368  0.0155
 1590W        W18437   3.072   6.515   4.770 -0.0708  0.0667  0.1383
 1591W        W18438   1.676   2.815  11.765  0.0355  0.1719 -0.2543
 1592W        W18439  14.752  13.493  11.696 -0.0713  0.0976 -0.2072
 1593W        W18440  15.699  14.540  13.254  0.1106 -0.1284 -0.0466
 1594W        W18441   3.336   7.408   5.996  0.1141 -0.2988 -0.4183
 1595W        W18442  13.169   3.851  15.728 -0.2295  0.2031  0.0188
 1596W        W18443   0.137  11.802   0.356 -0.1428  0.0474  0.0249
 1597W        W18444  14.699  11.206  15.879 -0.1706  0.3870  0.0394
 1598W        W18445   6.746  14.463   1.383  0.1481 -0.0092  0.0409
 1599W        W18446   2.317   5.027   1.739  0.0694 -0.2342 -0.1948
 1600W        W18447   5.107  14.305  14.713 -0.1888 -0.2591  0.0428
 1601W        W18448   4.053   7.431  10.766 -0.2657  0.3766  0.0893
 1602W        W18449  12.963   0.306  10.324  0.1169  0.3057  0.0643
 1603W        W18450  13.819   3.307  11.189  0.2240 -0.1932 -0.0470
 1604W        W18451   3.355   5.581  15.459 -0.1311 -0.0493  0.0347
 1605W        W18452   0.294   3.737   0.341  0.0178  0.0117 -0.1321
 1606W        W18453   6.590  17.582   2.696 -0.1432  0.1199 -0.1619
 1607W        W18454  14.480   6.651   1.220  0.3324  0.0490  0.0985
 1608W        W18455   2.271  14.892  14.201  0.2103  0.3832 -0.0763
 1609W        W18456   9.991   7.482   0.578 -0.1425 -0.1293  0.1616
 1610W        W18457  17.557  10.363   5.680 -0.1566  0.0077 -0.3281
 1611W        W18458   7.676  11.849   1.078 -0.1391 -0.1142  0.3118
 1612W        W18459  14.137   1.668  11.430  0.2092 -0.1168 -0.0214
 1613W        W18460   1.209   8.447   1.932  0.0138  0.1746 -0.1274
 1614W        W18461  14.953  17.405   1.803 -0.3222 -0.3100 -0.1643
 1615W        W18462  16.742  12.640   1.416 -0.3301  0.0746 -0.0485
 1616W        W18463   0.606   2.121   0.258 -0.2005 -0.0736 -0.0291
 1617W        W18464   1.830  12.875   5.176  0.0657 -0.2318 -0.0521
 1618W        W18465  12.264  10.130  15.060  0.2198 -0.2257  0.3187
 1619W        W18466   4.573   4.109   9.966  0.2948 -0.1266 -0.2963
 1620W        W18467  12.246   6.007   4.950  0.1394 -0.0523 -0.1009
 1621W        W18468  14.251  11.627   2.421 -0.2212  0.1557  0.3891
 1622W        W18469   4.749   5.935  11.245  0.0233 -0.1490 -0.0171
 1623W        W18470   0.498  16.224  11.424  0.0162  0.2735 -0.2019
 1624W        W18471   8.605  13.740  14.038  0.3616 -0.0095 -0.3843
 1625W        W18472   1.292  13.976  14.551  0.0288  0.1267 -0.0796
 1626W        W18473  15.223  16.202   0.830 -0.0722 -0.0752  0.1133
 1627W        W18474  15.228  18.358  13.147  0.1710 -0.0612  0.0627
 1628W        W18475  16.886  10.259   1.156 -0.1306 -0.0185 -0.0911
 1629W        W18476   9.058   6.695  12.465 -0.0050  0.1363  0.0463
 1630W        W18477   7.242  17.582  12.015  0.1234 -0.1261 -0.0734
 1631W        W18478   4.908  12.201  13.804  0.1999 -0.2715 -0.1371
 1632W        W18479   5.403  13.784   3.897 -0.0986 -0.2139  0.0869
 1633W        W18480   8.379  17.542   0.576  0.0338 -0.0584  0.2642
 1634W        W18481  16.804   6.845   4.656 -0.3088 -0.0188 -0.0852
 1635W        W18482   2.337  10.096   3.480  0.2904 -0.0786 -0.2934
 1636W        W18483   6.804   7.187   2.925  0.2226 -0.1399 -0.0636
 1637W        W18484  11.188  14.357   1.846  0.0030  0.3343  0.2581
 1638W        W18485   2.498  13.937  14.097 -0.2419  0.2123 -0.0082
 1639W        W18486  10.411   3.015  14.982  0.0073 -0.0910  0.0759
 1640W        W18487   2.183   0.121   3.755 -0.4223 -0.3337 -0.2627
 1641W        W18488   5.318  11.472  12.032 -0.0705  0.0610  0.1142
 1642W        W18489  16.666   7.223  13.433  0.0341  0.2145  0.1506
 1643W        W18490  18.104   2.836   0.943  0.0152 -0.2742  0.0649
 1644W        W18491   2.156  17.837  12.882  0.1994  0.1486 -0.2164
 1645W        W18492   9.803  15.625   2.724 -0.2540  0.1302  0.1096
 1646W        W18493   6.987   7.972  15.686  0.3433 -0.2936  0.2764
 1647W        W18494  13.648   0.357   0.754  0.0913 -0.1986 -0.2913
 1648W        W18495  11.636  12.218   4.319 -0.1204 -0.0533  0.1137
 1649W        W18496  11.848  10.393  11.968 -0.1272  0.1385  0.0528
 1650W        W18497   0.809   3.448   0.133  0.0055  0.1496  0.1752
 1651W        W18498   9.889   8.871   3.757  0.0522 -0.1642 -0.1505
 1652W        W18499  13.178   9.128   3.693  0.0424  0.0693 -0.0910
 1653W        W18500  11.667   9.026   3.727  0.2383 -0.0168  0.0169
 1654W        W18501  18.305   2.152  15.271 -0.0693 -0.4400 -0.1058
 1655W        W18502   3.981   7.229  15.283 -0.1811 -0.0613 -0.1793
 1656W        W18503   1.992  18.537   1.152 -0.0636 -0.1124  0.1081
 1657W        W18504  17.490  15.317   0.999  0.0385  0.0771 -0.0957
 1658W        W18505  13.016   6.895   4.963 -0.2930  0.1122  0.0046
 1659W        W18506   7.352  14.141  11.636 -0.0110  0.1079 -0.1877
 1660W        W18507  12.819   0.749  12.944  0.0446 -0.2102 -0.0840
 1661W        W18508   3.778  14.438  13.356 -0.1120 -0.0286  0.0101
 1662W        W18509  17.943  11.678  13.494 -0.0238  0.2059  0.0766
 1663W        W18510   6.845   2.354  14.153 -0.1511  0.3077 -0.1721
 1664W        W18511  11.071  10.714   0.345 -0.1746  0.0178 -0.0286
 1665W        W18512   9.655   4.927  12.109  0.3128  0.1589 -0.1752
 1666W        W18513   8.095   2.815   4.401 -0.2100 -0.0459  0.1127
 1667W        W18514   4.974  13.825   4.611 -0.0274  0.1944 -0.0329
 1668W        W18515   9.550  14.213   4.556  0.3244  0.0600 -0.1974
 1669W        W18516  18.445  13.831  14.829 -0.1577  0.3431  0.0558
 1670W        W18517   2.383   0.850   1.086 -0.2418 -0.2150  0.0614
 1671W        W18518   7.560   7.850  11.461  0.0149  0.4269  0.3626
 1672W        W18519  16.720   2.461  13.499  0.0698 -0.0402 -0.2863
 1673W        W18520  15.196  14.071   3.406  0.0186 -0.1010  0.0475
 1674W        W18521   9.755   2.233  15.592  0.0475  0.0295 -0.1239
 1675W        W18522  13.001  14.874  15.723 -0.3232 -0.2148  0.1181
 1676W        W18523   6.932   2.186  10.237  0.0022  0.1530 -0.0491
 1677W        W18524   7.146   6.761   5.609 -0.2662 -0.1786  0.1141
 1678W        W18525   8.469  15.008   4.872 -0.1508 -0.0609 -0.0123
 1679W        W18526   0.485   8.340   1.433 -0.1429 -0.3551  0.0767
 1680W        W18527  18.529   9.533   1.003 -0.0113 -0.0325 -0.3069
 1681W        W18528   1.502  15.633   2.439  0.1409 -0.3175  0.2989
 1682W        W18529  18.352  17.192   2.712 -0.0670  0.3995  0.1337
 1683W        W18530   3.268   0.571   4.350 -0.1624  0.2585 -0.2486
 1684W        W18531   2.303   6.022  13.116  0.0858 -0.0026  0.0673
 1685W        W18532  18.016  17.755   1.325  0.1474 -0.3384  0.0174
 1686W        W18533   0.421   0.394  15.369  0.0487  0.1030  0.0735
 1687W        W18534   6.647  10.972   4.965 -0.0170 -0.2090  0.0527
 1688W        W18535  10.133  13.927  12.072 -0.0436 -0.1779  0.2976
 1689W        W18536  14.538   1.981   2.583  0.0666 -0.2656  0.0271
 1690W        W18537   1.988   0.644  12.124  0.1134  0.2532 -0.1434
 1691W        W18538   7.660  15.101  14.722 -0.0676  0.1779 -0.1259
 1692W        W18539   9.598  11.986  15.425  0.0135  0.0505  0.0860
 1693W        W18540   8.461   5.261   2.575 -0.0643  0.0872  0.0151
 1694W        W18541  12.116  12.724  11.616 -0.0422  0.3203  0.1652
 1695W        W18542   5.658   3.831  15.126 -0.1059  0.0110  0.1149
 1696W        W18543   9.781   5.219   0.897 -0.0244  0.0423 -0.2287
 1697W        W18544  15.681   2.668  13.034 -0.3700 -0.0580 -0.3174
 1698W        W18545  17.605  13.380   4.290 -0.2434 -0.3908  0.2828
 1699W        W18546   4.458  11.668  15.597  0.0666 -0.1221  0.0017
 1700W        W18547   6.911   1.248  12.860 -0.0871  0.0273 -0.1018
 1701W        W18548  13.333   5.048  15.472  0.0081 -0.1381  0.1500
 1702W        W18549  17.701  10.561  11.773 -0.0252 -0.0150  0.0829
 1703W        W18550   2.551  14.127   5.468  0.1714  0.2360 -0.2314
 1704W        W18551  13.968  14.943   2.144  0.1103 -0.0931  0.1683
 1705W        W18552   1.132  14.876  11.258  0.0690  0.2950  0.0257
 1706W        W18553   5.642  11.724   0.749  0.0643 -0.3025  0.0219
 1707W        W18554   5.111  15.108   1.798 -0.2977  0.1230  0.2185
 1708W        W18555  14.530  12.897   1.502  0.3007 -0.0380  0.4352
 1709W        W18556  15.224   1.100   4.804 -0.0396  0.1000 -0.1073
 1710W        W18557   1.985   4.968  14.446  0.1909  0.2262  0.0619
 1711W        W18558  12.446   6.669   4.238  0.1728 -0.1482  0.1334
 1712W        W18559  14.440   3.652   1.981 -0.2572 -0.2663 -0.0469
 1713W        W18560  10.579  16.273   4.776 -0.0060  0.1703 -0.0659
 1714W        W18561   0.430   2.144  13.964 -0.2563  0.0609 -0.0633
 1715W        W18562   1.051   9.027  13.645 -0.2522 -0.0266  0.0944
 1716W        W18563  12.380   0.275   3.456  0.0655 -0.0081  0.2409
 1717W        W18564  17.878  18.447   4.454 -0.2692  0.1440  0.1224
 1718W        W18565   5.337  15.245  14.490  0.2271 -0.1124  0.0125
 1719W        W18566  17.792  15.007  12.446  0.5055  0.0832  0.0154
 1720W        W18567   5.037   5.659  15.653  0.1646 -0.0267  0.3109
 1721W        W18568  14.096   8.059   4.154  0.0287 -0.0880 -0.0338
 1722W        W18569  16.027   7.898  15.909 -0.0495  0.0462 -0.0189
 1723W        W18570  11.402  11.879  15.286 -0.1084  0.0493  0.0137
 1724W        W18571  15.244  15.097   1.992 -0.1556 -0.0142 -0.1338
 1725W        W18572  17.838   0.204  13.468  0.2706  0.1176 -0.0876
 1726W        W18573   6.168   4.336   1.119  0.1770 -0.1326 -0.1204
 1727W        W18574   8.237   7.212   3.985  0.0191 -0.0256 -0.0244
 1728W        W18575  10.130  14.037  15.432  0.1114 -0.1693 -0.0107
 1729W        W18576   3.821   1.683  13.545 -0.2288 -0.0276  0.1395
 1730W        W18577   1.479   8.832   0.299 -0.1878 -0.2189  0.0274
 1731W        W18578  12.482   0.329  10.483  0.1381 -0.1834 -0.0086
 1732W        W18579  11.064  16.755   0.009 -0.1053  0.1892 -0.3237
 1733W        W18580   3.864  13.693   2.214  0.2631  0.0138 -0.1696
 1734W        W18581  14.308   5.093   2.803 -0.0103  0.3173  0.0251
 1735W        W18582  10.034   1.050  10.813 -0.0086 -0.2801 -0.0315
 1736W        W18583   6.666  17.353   4.029  0.0891  0.1572  0.2820
 1737W        W18584  15.167   6.291  11.702 -0.0675 -0.0222 -0.0092
 1738W        W18585   3.962  17.213   2.816  0.1965 -0.3488 -0.0334
 1739W        W18586   4.905   3.518   1.165 -0.2510  0.0982  0.0080
 1740W        W18587  17.993   2.904   0.460  0.0660 -0.0214  0.2635
 1741W        W18588   2.728  12.739   1.996  0.0295  0.3391 -0.1605
 1742W        W18589  12.144   5.044   2.430 -0.1467  0.1987  0.0176
 1743W        W18590  16.221   5.841   0.636  0.1640  0.1057 -0.2958
 1744W        W18591   6.081   1.247   2.844  0.1687 -0.0512 -0.2318
 1745W        W18592   3.673  11.231   1.811  0.0349  0.1172  0.1713
 1746W        W18593   3.019  12.888   1.601  0.3956  0.1197 -0.2843
 1747W        W18594  16.022  12.181  13.832 -0.1396 -0.1532 -0.0832
 1748W        W18595   7.205  12.686  12.123  0.0610  0.2223  0.0615
 1749W        W18596  12.026   1.812  14.381  0.3813 -0.2481  0.3291
 1750W        W18597   3.424   3.439   0.294 -0.1823 -0.1426 -0.3033
 1751W        W18598   2.392  18.102   2.594 -0.1951 -0.2366  0.1584
 1752W        W18599   5.716   8.306   2.314 -0.0875 -0.2357  0.0295
 1753W        W18600  15.439  12.684   0.662  0.2503  0.0893  0.0374
 1754W        W18601   1.653  15.100  13.745  0.2787  0.3676  0.1848
 1755W        W18602  17.994   3.057   2.246 -0.3160  0.1292  0.0467
 1756W        W18603  13.932   2.475  11.724  0.0086 -0.0947 -0.1588
 1757W        W18604   9.780   6.251  14.584 -0.0796  0.2066  0.0473
 1758W        W18605  13.613   9.131   2.036 -0.1628 -0.0626  0.2671
 1759W        W18606   0.360  11.386  14.260 -0.0886 -0.1326  0.0099
 1760W        W18607  17.041   9.809   1.535 -0.1287  0.0834  0.0003
 1761W        W18608  13.725  18.270  15.892  0.0404 -0.1105  0.1749
 1762W        W18609  12.414   4.374   0.647 -0.1384 -0.0797  0.3800
 1763W        W18610  11.472   2.834  13.090 -0.0389 -0.0592  0.0473
 1764W        W18611   3.958   6.234  11.781 -0.1394  0.0053 -0.3153
 1765W        W18612   9.209  12.095   1.965  0.0353  0.0001 -0.2232
 1766W        W18613  18.021  15.301   4.758 -0.3672  0.1857 -0.3930
 1767W        W18614   3.373  10.303  12.921  0.0394  0.0021  0.0351
 1768W        W18615  13.882  10.336   3.385 -0.0300 -0.1361  0.1162
 1769W        W18616   0.467  17.018   0.140 -0.0061  0.2210  0.1308
 1770W        W18617   3.824  17.921   1.478  0.1163  0.0518  0.1093
 1771W        W18618   5.163   2.055   3.400  0.0879 -0.0650 -0.0624
 1772W        W18619  15.491  18.418   3.981  0.3598  0.0657  0.1164
 1773W        W18620  10.122   2.782   4.423  0.1358 -0.0197 -0.0180
 1774W        W18621   5.453   1.749   1.540  0.2651 -0.1350 -0.2343
 1775W        W18622   6.592   2.445   5.711 -0.3122  0.1481  0.0670
 1776W        W18623   3.568   2.004  12.623 -0.1443  0.0574  0.1319
 1777W        W18624   7.245   8.050  14.533 -0.2939 -0.0507 -0.0041
 1778W        W18625   9.007   2.298  10.992  0.2726  0.3096  0.0683
 1779W        W18626   0.340  12.253   0.237  0.1247 -0.0231  0.0573
 1780W        W18627   6.281   7.660  12.858  0.5901 -0.1602 -0.0709
 1781W        W18628   4.858  16.687   3.462  0.0603 -0.0996 -0.1270
 1782W        W18629   2.370   6.661   4.929 -0.1374 -0.0155  0.3569
 1783W        W18630   9.809   9.306   4.600 -0.1077  0.0281 -0.2430
 1784W        W18631   8.852   1.419  14.011 -0.2591 -0.0353 -0.0583
 1785W        W18632  13.144   8.381  14.004 -0.3017 -0.0476  0.0645
 1786W        W18633   4.250   6.628   4.031  0.2415  0.0298  0.1285
 1787W        W18634   0.233  17.987   5.045 -0.2310 -0.0947 -0.0138
 1788W        W18635  16.043  14.763  13.620 -0.2792 -0.1027 -0.3834
 1789W        W18636   2.769  11.644   4.744  0.1726  0.0453  0.2490
 1790W        W18637   5.686   4.278  14.927  0.3663 -0.2074  0.1226
 1791W        W18638   8.439   4.681  12.719  0.0478 -0.1590  0.0456
 1792W        W18639   1.259  17.019  10.641 -0.1971  0.0393 -0.1526
 1793W        W18640  13.547  12.051  12.713 -0.0700  0.0726 -0.1664
 1794W        W18641  16.188  11.587  14.448  0.2413 -0.1328  0.0495
 1795W        W18642   8.313  12.863   0.358 -0.2797  0.0355  0.0235
 1796W        W18643  16.288   0.216   3.676  0.0117  0.0514  0.2764
 1797W        W18644   7.293  10.072  13.912  0.0565  0.2012 -0.1988
 1798W        W18645  12.824   1.999   3.330  0.0301 -0.1819  0.1988
 1799W        W18646  14.500  15.460   1.398  0.0755  0.3562 -0.0005
 1800W        W18647  12.471   8.714   0.964 -0.0476 -0.1467  0.0024
 1801W        W18648  18.408  13.651   3.476  0.3283  0.0497 -0.1406
 1802W        W18649  12.170  11.454  14.058  0.0517 -0.0535  0.2295
 1803W        W18650   6.371  16.646   3.771 -0.1951 -0.2381  0.2006
 1804W        W18651   8.979   9.683  13.257 -0.0994 -0.0484  0.0821
 1805W        W18652  13.336  10.245  12.114 -0.0818 -0.4340  0.3145
 1806W        W18653   3.772   9.059  14.997  0.1861  0.0557 -0.0099
 1807W        W18654   8.144   5.968  13.307 -0.1462  0.1989 -0.2386
 1808W        W18655   2.792   2.515   4.796  0.1084  0.1364  0.1198
 1809W        W18656  16.275   3.554  14.958  0.1505 -0.1090 -0.0001
 1810W        W18657  12.256  14.703  11.813 -0.0076  0.0340  0.0110
 1811W        W18658   2.148   3.948  15.010  0.1288  0.2372 -0.1302
 1812W        W18659   9.340   5.398  14.290  0.1684 -0.1490  0.3182
 1813W        W18660  16.869  16.073  14.089  0.2344  0.0918 -0.1535
 1814W        W18661  14.843   6.921   0.379 -0.0158  0.1741  0.1709
 1815W        W18662  18.461  13.532  13.003  0.0182  0.0567  0.1562
 1816W        W18663  18.469  18.186  15.048 -0.2767 -0.0692  0.0952
 1817W        W18664  14.872   9.091   0.733  0.4192 -0.0608  0.1307
 1818W        W18665  16.257   0.604   0.777 -0.1698 -0.1442  0.1388
 1819W        W18666   6.438   9.800   3.518  0.2743 -0.0379 -0.1726
 1820W        W18667  16.921   2.803   4.975  0.0776  0.0870  0.2903
 1821W        W18668   9.375  15.575   5.661  0.1241  0.0285  0.1808
 1822W        W18669  17.750  14.876   2.248 -0.1085  0.1833 -0.2286
 1823W        W18670   9.711  11.064   0.432  0.2789 -0.0659  0.1307
 1824W        W18671   3.510  10.652   3.008 -0.0141 -0.2313 -0.0124
 1825W        W18672  14.138  14.553   0.782  0.2049 -0.1173  0.0764
 1826W        W18673   9.263  13.890   1.310 -0.2416 -0.1332  0.0724
 1827W        W18674  17.502   2.423  12.750 -0.4045  0.1703  0.2528
 1828W        W18675  15.768   9.520   5.714 -0.0693 -0.0256 -0.0465
 1829W        W18676  16.982  10.194   5.995 -0.0043  0.1129  0.2015
 1830W        W18677  13.532   2.097   0.865 -0.0209  0.0795  0.1162
 1831W        W18678   3.847   6.740   3.774  0.0407  0.2882 -0.0432
 1832W        W18679  11.497   2.856  13.678 -0.2113 -0.0554 -0.0263
 1833W        W18680   6.040   8.603  11.963  0.0891 -0.0320  0.1362
 1834W        W18681   8.313   1.268   2.412 -0.0218  0.1971 -0.0777
 1835W        W18682   9.325  15.301  11.867 -0.1062  0.0567  0.1552
 1836W        W18683   6.289  17.493   5.956  0.0542 -0.0125 -0.0132
 1837W        W18684   5.981  15.030   0.428 -0.0440 -0.1035  0.0455
 1838W        W18685  14.919   9.775  10.844  0.0171  0.1057 -0.0890
 1839W        W18686   4.918   2.322   1.219 -0.0001 -0.0094 -0.2127
 1840W        W18687  17.933   4.489   0.248 -0.0549  0.3383  0.2970
 1841W        W18688   1.064   3.890   4.840  0.1602 -0.4103 -0.4762
 1842W        W18689   6.551   7.380   1.310  0.1103  0.0353 -0.1914
 1843W        W18690   6.554  12.463  10.643  0.1473  0.0837 -0.0318
 1844W        W18691   9.825   9.556   2.177 -0.1459  0.0046 -0.0761
 1845W        W18692   6.717   2.551  12.298 -0.2639  0.0438  0.2592
 1846W        W18693  10.688  10.180   4.604 -0.0609  0.0086 -0.0040
 1847W        W18694  14.764  18.112  13.908  0.2213 -0.1716  0.0588
 1848W        W18695  12.134   1.776  15.742 -0.1995 -0.0063  0.3830
 1849W        W18696   8.494  13.462   2.683  0.0844 -0.1875  0.1539
 1850W        W18697   9.457   7.412   4.165  0.1878 -0.0784 -0.0075
 1851W        W18698   1.473  10.820   5.425 -0.0235 -0.0396 -0.2834
 1852W        W18699  15.098   4.290  11.721 -0.1554 -0.1616  0.0517
 1853W        W18700   7.510   4.726  14.956 -0.1141 -0.0075 -0.0527
 1854W        W18701  13.833  13.640   2.245 -0.0412 -0.4793 -0.0769
 1855W        W18702   6.673  10.358  14.639 -0.0432 -0.0779 -0.1212
 1856W        W18703   5.326   0.296   1.641 -0.1885 -0.0961 -0.0470
 1857W        W18704  16.958   1.525  11.508  0.1218  0.0545  0.0192
 1858W        W18705  11.014  11.503  12.908 -0.1421  0.0413 -0.1502
 1859W        W18706  13.411  17.697   4.766 -0.1799 -0.1891 -0.3270
 1860W        W18707   2.204   8.839  14.668  0.0366  0.1435 -0.1516
 1861W        W18708  15.518   6.483   5.837 -0.2059 -0.0646  0.1483
 1862W        W18709   8.028   1.053   2.898 -0.2261  0.0666  0.1183
 1863W        W18710  10.498   5.762  12.915  0.0964  0.2694  0.3118
 1864W        W18711   9.334   2.739   1.485  0.2508  0.4004  0.2993
 1865W        W18712   5.999   4.081  15.377 -0.1424  0.1081  0.3088
 1866W        W18713   8.330  15.562  13.312 -0.0971 -0.1444 -0.0277
 1867W        W18714  11.321  11.947   3.155 -0.1743 -0.0550 -0.1844
 1868W        W18715  18.236   9.339   1.466  0.3105  0.3895  0.2235
 1869W        W18716   8.558  16.759   5.490  0.2495  0.0349  0.3386
 1870W        W18717  10.451   3.645  13.859 -0.0704  0.2633  0.0114
 1871W        W18718   6.387   8.766   1.491  0.0667  0.1949  0.1873
 1872W        W18719   5.420  11.675  15.697 -0.2035  0.0316  0.0623
 1873W        W18720  15.807  14.461   2.494 -0.0448 -0.0740 -0.0724
 1874W        W18721   0.836   7.644   0.501 -0.0045  0.2113 -0.0790
 1875W        W18722  12.639  11.804   1.041 -0.1375 -0.0876 -0.0470
 1876W        W18723   4.252   2.543  11.432 -0.0072  0.0737  0.1971
 1877W        W18724   8.654  13.492   5.829 -0.2950  0.0386  0.3462
 1878W        W18725  11.943   6.635   4.037  0.4461 -0.2937 -0.1511
 1879W        W18726  14.002   6.285  12.444 -0.0403 -0.1849 -0.2385
 1880W        W18727  16.220  16.435  15.774  0.0433  0.0353  0.0863
 1881W        W18728   1.670   5.838   3.783  0.1003 -0.0747 -0.1649
 1882W        W18729   0.259   0.124   5.818  0.0401  0.1718 -0.1305
 1883W        W18730   1.985   1.959   4.512 -0.3510 -0.0163  0.2134
 1884W        W18731   4.620   1.146  14.559 -0.0216  0.0515  0.1167
 1885W        W18732   1.982  12.759  12.761 -0.2132  0.1336  0.1017
 1886W        W18733  10.575   3.462  11.015  0.0310  0.2012 -0.2163
 1887W        W18734  13.004   7.937  14.715  0.0208 -0.2004  0.5428
 1888W        W18735   0.879  14.430   2.701  0.2503  0.1940  0.2573
 1889W        W18736   3.503  17.384  11.939  0.1496  0.0689 -0.0590
 1890W        W18737  14.570   5.930   0.766 -0.2837  0.1007  0.1589
 1891W        W18738  14.007   2.318  15.430  0.2446  0.0489 -0.0367
 1892W        W18739  13.951  14.734  15.878  0.3750 -0.1529 -0.2410
 1893W        W18740   3.343   6.440  12.529 -0.0122  0.0587  0.1102
 1894W        W18741   2.927   2.231   5.208  0.3059  0.2212 -0.1113
 1895W        W18742   2.475  15.508  13.251 -0.0747 -0.1793  0.1139
 1896W        W18743  13.182   4.349   1.049 -0.1430 -0.0422  0.1200
 1897W        W18744   4.753  14.962   0.253 -0.0472  0.0537  0.2503
 1898W        W18745   7.431   2.543   0.764  0.2899 -0.1082  0.0523
 1899W        W18746   2.181   0.375   5.192 -0.0671  0.0962 -0.3437
 1900W        W18747   8.396   4.359  14.016 -0.1159 -0.1896 -0.4593
 1901W        W18748  12.081  10.723  14.349  0.0266 -0.0471  0.0456
 1902W        W18749  16.966   8.715  12.147  0.0512  0.0036 -0.3411
 1903W        W18750   9.868   1.888  12.698  0.3062 -0.0477  0.0717
 1904W        W18751   0.646  11.671   2.184  0.0072  0.3004 -0.1853
 1905W        W18752   7.636  12.695   1.504 -0.0520  0.1548 -0.0125
 1906W        W18753   8.559   1.479  10.846  0.0926 -0.5481  0.0999
 1907W        W18754   8.591   4.913   0.130 -0.0055  0.0729  0.0169
 1908W        W18755   8.911  13.903   0.524  0.3079  0.1355 -0.1928
 1909W        W18756   8.025  16.755   1.994 -0.2750  0.2922 -0.2133
 1910W        W18757  13.690  16.346  10.217 -0.1484 -0.1087 -0.0500
 1911W        W18758  12.671   2.433  12.596  0.1489 -0.1038  0.0483
 1912W        W18759  18.447  12.962   1.177 -0.0005  0.2736 -0.0324
 1913W        W18760   9.837   8.059  15.740  0.4863 -0.0965 -0.2838
 1914W        W18761  15.174  10.165   2.841  0.0542  0.3643  0.1545
 1915W        W18762   4.563  12.858   2.269  0.2370  0.0059 -0.1173
 1916W        W18763  10.322   2.074  12.125 -0.1621 -0.0159  0.0658
 1917W        W18764  15.204  17.291   2.945 -0.0948  0.0910  0.0823
 1918W        W18765   5.078   0.053  11.884  0.3100 -0.0972  0.1577
 1919W        W18766  13.927   1.733   5.343  0.0474 -0.4367  0.2232
 1920W        W18767   5.978  11.027  15.067 -0.1644 -0.4233 -0.4027
 1921W        W18768  16.569  13.106  15.866 -0.0127  0.1459 -0.0774
 1922W        W18769   8.863   8.186  12.848  0.1087  0.2459 -0.1416
 1923W        W18770   6.423  16.448  11.286  0.0705  0.0171 -0.0750
 1924W        W18771   9.416   6.225   5.237 -0.0884 -0.1031 -0.1031
 1925W        W18772   6.038  10.414  14.396 -0.0337 -0.2843  0.4054
 1926W        W18773  16.836   4.190   2.226 -0.3375  0.2185 -0.1510
 1927W        W18774   4.571   3.995   2.381  0.1864  0.1423  0.0091
 1928W        W18775   9.938   8.009   4.176  0.0614  0.1809  0.0106
 1929W        W18776   8.530   3.202   1.052 -0.1744  0.2716  0.0416
 1930W        W18777  15.828   3.831   2.281 -0.1454  0.1088  0.1601
 1931W        W18778   3.243  15.766   3.796 -0.1510  0.0442  0.0088
 1932W        W18779  14.240  17.411   5.199  0.1797  0.1227  0.1351
 1933W        W18780   3.251   2.195  12.945 -0.1561 -0.0097  0.1417
 1934W        W18781   8.150   7.938  13.257  0.2211 -0.2947 -0.1416
 1935W        W18782   8.231   3.581  14.517  0.1066  0.1218  0.1596
 1936W        W18783  18.105  17.651   2.668 -0.4400  0.1653 -0.2142
 1937W        W18784   0.772   4.868   3.070  0.2560  0.0111 -0.1102
 1938W        W18785   6.372   8.032  11.341  0.0374 -0.2190 -0.2668
 1939W        W18786   3.882  13.130   1.034 -0.2663 -0.1267  0.0105
 1940W        W18787   3.421   7.922   0.904 -0.1091 -0.3330  0.1001
 1941W        W18788   2.290   4.984   2.286  0.3430 -0.0788 -0.0162
 1942W        W18789   0.008  12.571  15.895 -0.4078  0.1173 -0.1044
 1943W        W18790  16.509   9.494   3.978 -0.2439  0.2236 -0.0216
 1944W        W18791   6.881   3.914  13.514  0.3636 -0.1073  0.0191
 1945W        W18792   3.954   5.297  12.202  0.0700  0.3761 -0.0764
 1946W        W18793   5.489  15.364   2.153 -0.0220  0.3523  0.0646
 1947W        W18794   5.565  17.118   2.177 -0.0541  0.1621 -0.1584
 1948W        W18795  16.344  16.763   5.167  0.2047 -0.0205 -0.1810
 1949W        W18796   0.081  12.858   2.376  0.2693  0.0588  0.0389
 1950W        W18797  16.905   5.868   2.319  0.3364  0.0535  0.0666
 1951W        W18798  13.734  17.000   0.597 -0.1830 -0.1632  0.0098
 1952W        W18799   9.054  11.760   5.958  0.1996 -0.0672  0.5072
 1953W        W18800   7.101  14.395   2.801  0.3129  0.1361  0.0949
 1954W        W18801  11.135   3.487   2.459  0.0202 -0.1610  0.1152
 1955W        W18802  15.774   5.477  13.575 -0.2454  0.0252  0.0206
 1956W        W18803  15.976  14.539   3.488  0.2163 -0.1540 -0.3257
 1957W        W18804   5.697  18.067   4.825 -0.0235  0.4040 -0.0164
 1958W        W18805   5.964  15.014  12.926  0.0143 -0.1201 -0.3210
 1959W        W18806   4.466   3.136  13.272 -0.1382 -0.0235  0.1817
 1960W        W18807   1.898   6.801  12.101 -0.0089 -0.0156 -0.2670
 1961W        W18808  16.886  17.880  13.558 -0.1782 -0.1529 -0.1096
 1962W        W18809  16.171  15.921  15.392  0.6244 -0.0191  0.1423
 1963W        W18810  13.242   5.733  14.599 -0.0240  0.0116 -0.2873
 1964W        W18811  10.659  14.656   5.342  0.2898  0.0104  0.0743
 1965W        W18812   4.089   0.819  13.018 -0.1062  0.2702  0.0725
 1966W        W18813   2.182   9.311   0.482 -0.1871 -0.1023 -0.0345
 1967W        W18814  10.314   1.435   5.383 -0.1814 -0.1503 -0.0006
 1968W        W18815  12.026  10.878   2.621  0.0310  0.0991 -0.2558
 1969W        W18816   7.892   9.697  12.307 -0.1007  0.0412 -0.1015
 1970W        W18817   6.820  12.959   4.816  0.2208  0.1064 -0.0589
 1971W        W18818   6.423  14.815   2.175  0.2704  0.1973  0.0271
 1972W        W18819   8.884   2.289  10.474 -0.0542  0.0894  0.0874
 1973W        W18820  18.156   5.605  12.890 -0.0661  0.0531 -0.0329
 1974W        W18821  14.013  18.375  11.729  0.0073 -0.1743 -0.0536
 1975W        W18822  12.887   1.548  13.070 -0.0612 -0.0283  0.1503
 1976W        W18823  17.156  11.736   2.269  0.1826 -0.1361  0.1575
 1977W        W18824   3.501  17.220   1.120 -0.0132 -0.0252  0.1951
 1978W        W18825   1.893   3.468   2.073  0.0113  0.0634 -0.2185
 1979W        W18826   6.153   8.915   2.051 -0.0210 -0.1069 -0.4322
 1980W        W18827  12.855   9.526  13.438 -0.1303 -0.2769 -0.1557
 1981W        W18828  14.569   9.514   0.844 -0.2036  0.2668 -0.1644
 1982W        W18829  10.093   0.004  13.464  0.3290  0.0847 -0.0230
 1983W        W18830   0.380   1.339   3.169  0.1480 -0.1145  0.1941
 1984W        W18831  11.224  17.476   0.493  0.1299 -0.1032 -0.1055
 1985W        W18832   6.638   7.765   3.265 -0.1121  0.0860 -0.1283
 1986W        W18833   5.513  13.704  13.027  0.0010  0.0467 -0.0552
 1987W        W18834   4.428  10.876   2.869 -0.2190 -0.0477  0.1097
 1988W        W18835  12.698   9.109   4.963  0.2147  0.0181 -0.1345
 1989W        W18836  10.498  17.171   0.112 -0.1311 -0.2743  0.1677
 1990W        W18837   4.453  12.114  15.834 -0.1201  0.3042  0.1429
 1991W        W18838   2.315  15.436   3.035 -0.1838 -0.2328  0.3043
 1992W        W18839  17.135  11.922   0.043 -0.1319 -0.2304  0.0538
 1993W        W18840  13.418  17.580   1.922 -0.2438  0.0734  0.1099
 1994W        W18841   0.579  12.693   3.306 -0.0829  0.0379  0.1575
 1995W        W18842   6.089   0.361  11.043  0.2502  0.2881 -0.1007
 1996W        W18843   2.420  12.395  15.568 -0.1628 -0.2262  0.1671
 1997W        W18844   9.407   0.506  15.310 -0.3046  0.4237  0.2615
 1998W        W18845  13.056   7.776  12.166 -0.0412  0.4144  0.0957
 1999W        W18846   8.714   8.794  12.127  0.1116  0.2041  0.0464
 2000W        W18847  11.375   5.875   1.618 -0.1575 -0.0255 -0.0176
 2001W        W18848  11.807  14.669   5.077  0.0889  0.0669 -0.0591
 2002W        W18849   3.106  10.174   4.409 -0.0789  0.3295  0.1327
 2003W        W18850  16.944   6.061  12.767 -0.0168  0.2815  0.1868
 2004W        W18851  13.115  15.374   1.114  0.0352 -0.1570  0.0577
 2005W        W18852  18.462   4.612  12.978  0.1259 -0.0137 -0.4855
 2006W        W18853  18.346  15.454   3.788 -0.1350 -0.2711  0.0510
 2007W        W18854  18.277   1.160   3.525 -0.1732  0.1370  0.1152
 2008W        W18855  13.260   7.024  10.986  0.0618  0.1008  0.0636
 2009W        W18856  13.616  13.470   3.165  0.2229  0.0854  0.1012
 2010W        W18857   7.904   0.360   9.892 -0.2506  0.1518  0.0848
 2011W        W18858  11.311   0.930  14.887 -0.0235 -0.1384  0.3827
 2012W        W18859   0.917   2.389   3.961  0.3565  0.1266  0.1334
 2013W        W18860   8.998   2.862  12.254  0.0759  0.1341  0.1983
 2014W        W18861  17.651   2.406  13.242 -0.1723  0.0371  0.0746
 2015W        W18862  15.291   2.326  14.993  0.0934 -0.0336 -0.1697
 2016W        W18863  11.775   2.780  15.368  0.2657  0.1738 -0.2443
 2017W        W18864   8.624   8.108   2.139 -0.0301  0.2679  0.0817
 2018W        W18865   2.682  10.446  11.714 -0.0423 -0.1100  0.0455
 2019W        W18866  15.685   8.818   2.784 -0.1135 -0.0009 -0.2858
 2020W        W18867  10.274   1.467   4.686  0.0144 -0.1630 -0.2459
 2021W        W18868   9.443  12.087  11.444  0.1932  0.1209  0.1839
 2022W        W18869   3.632   4.372   2.640 -0.1749  0.0031  0.3065
 2023W        W18870   1.764   5.555  11.335  0.1454  0.1263  0.2101
 2024W        W18871  10.888   2.143   0.895  0.1709  0.0462  0.4648
 2025W        W18872  14.120  16.136  15.730 -0.1402  0.5046  0.0947
 2026W        W18873  11.365   8.819  12.664 -0.1415 -0.2716  0.0050
 2027W        W18874  13.007  13.112   5.731 -0.1146  0.0831  0.0341
 2028W        W18875  12.371   2.050  11.511 -0.1565  0.0953  0.0305
 2029W        W18876   4.404   5.360  14.190 -0.1554  0.3659 -0.1320
 2030W        W18877  13.086   8.031  13.468  0.0302  0.2393  0.2283
 2031W        W18878   7.223  15.352  13.484  0.5179 -0.1392  0.2650
 2032W        W18879  10.050   8.580  11.556 -0.0168 -0.0097 -0.0509
 2033W        W18880  18.026  13.055   2.027  0.0019 -0.0780 -0.2483
 2034W        W18881  10.941  10.690  15.737 -0.1389  0.0658 -0.1302
 2035W        W18882  14.166  10.995  14.055 -0.0197  0.1711  0.1074
 2036W        W18883   1.245  12.203   0.968  0.0623  0.1315  0.0733
 2037W        W18884  16.347  15.418  12.994  0.2391  0.2019  0.0505
 2038W        W18885   2.514  10.149   4.840 -0.0856 -0.1673 -0.0569
 2039W        W18886  11.592  15.425  15.654  0.1811  0.0581 -0.2943
 2040W        W18887   0.644   6.601   2.181 -0.0344  0.1430  0.2055
 2041W        W18888   4.261   5.241  15.527 -0.1411 -0.2125 -0.1973
 2042W        W18889   2.659   3.156   4.027 -0.1789  0.1312  0.1366
 2043W        W18890   6.022  18.235   3.342  0.0826  0.1019 -0.2645
 2044W        W18891  12.002   8.579  14.927 -0.2586 -0.0070 -0.1338
 2045W        W18892   0.043  13.261   4.438  0.0396  0.0983 -0.2252
 2046W        W18893   3.286  13.703   4.514  0.0619 -0.1569  0.2944
 2047W        W18894   5.918   9.081  11.904 -0.0103 -0.1026 -0.0210
 2048W        W18895   5.961   9.860  14.446 -0.0643  0.0859 -0.1136
 2049W        W18896   4.826   9.736   1.251  0.1032  0.2019 -0.1151
 2050W        W18897   1.610   6.180   1.377 -0.2985 -0.0498 -0.0419
 2051W        W18898   2.193   6.970   5.745  0.0172  0.0451  0.1804
 2052W        W18899   3.047  16.606   0.556  0.0392 -0.4617  0.0265
 2053W        W18900   5.433  16.484  14.061  0.0436  0.1764  0.0768
 2054W        W18901   2.445   7.680   4.782  0.1086  0.1202 -0.0884
 2055W        W18902   8.039  13.497  14.764 -0.0151 -0.2477  0.1621
 2056W        W18903  15.654  17.255   3.194 -0.0301  0.0716 -0.1046
 2057W        W18904   3.921  12.002   3.082  0.3829 -0.2390 -0.0915
 2058W        W18905  15.998   2.446   4.212 -0.0627  0.0905 -0.2584
 2059W        W18906   6.269  12.897   2.938 -0.0751 -0.0024 -0.1619
 2060W        W18907   1.291   0.952  11.146  0.0534 -0.1676 -0.3932
 2061W        W18908  14.885  11.061   0.432 -0.1363 -0.1206 -0.0173
 2062W        W18909   7.202   2.175  15.235 -0.1924 -0.0416 -0.0857
 2063W        W18910   4.213  12.444  12.102  0.1506  0.3620 -0.1112
 2064W        W18911   0.316   1.016  12.378 -0.2225  0.1150  0.3098
 2065W        W18912   4.186   8.062  14.876  0.1610 -0.0892  0.0779
 2066W        W18913  15.639  16.954   1.236 -0.3746 -0.2060  0.4081
 2067W        W18914  17.551  16.534   1.984  0.0694 -0.1611  0.0806
 2068W        W18915   9.027  12.628   2.536 -0.0942 -0.0970 -0.1084
 2069W        W18916  14.072  11.883   5.772 -0.0778  0.0049 -0.0952
 2070W        W18917   0.026   8.103  12.965 -0.0101 -0.1589  0.3172
 2071W        W18918  15.126  18.387   0.151  0.0180  0.0647 -0.1075
 2072W        W18919  11.195   7.138   2.888  0.0355 -0.3132 -0.1997
 2073W        W18920   5.245   6.221  13.584  0.0445 -0.0891 -0.1278
 2074W        W18921   1.973  17.705   2.735  0.2054 -0.2221 -0.1156
 2075W        W18922   3.414  12.645  11.851 -0.1794 -0.3339  0.1854
 2076W        W18923   1.114  18.293   1.500 -0.0898 -0.1831 -0.5103
 2077W        W18924   1.113  15.368   0.848 -0.1569  0.0271 -0.2949
 2078W        W18925  17.857   8.338   0.944 -0.2263  0.3857 -0.0273
 2079W        W18926   9.588  16.643  15.169 -0.0008  0.3330  0.0509
 2080W        W18927  12.727   9.528  12.317  0.2231 -0.2263  0.0566
 2081W        W18928   7.091   9.774   2.753 -0.3543 -0.0712 -0.3489
 2082W        W18929   9.490  17.032  14.426 -0.0319 -0.2579  0.1150
 2083W        W18930  18.125  12.506  15.035 -0.1387  0.1856  0.1426
 2084W        W18931   4.564   2.154   3.152  0.0640  0.0053 -0.1684
 2085W        W18932  13.173  11.149  14.377 -0.3323  0.0302  0.1127
 2086W        W18933   8.446  16.364  11.694 -0.0396  0.1512  0.0499
 2087W        W18934  15.758   7.377   3.117  0.2487  0.0477  0.0194
 2088W        W18935  15.606   1.197   2.204 -0.0748  0.2174 -0.1470
 2089W        W18936   7.813  18.321  12.238 -0.1805 -0.0688  0.2960
 2090W        W18937   5.910  10.740   0.965 -0.1787 -0.1755  0.2623
 2091W        W18938   6.451   3.319   2.054  0.0084  0.1340  0.0512
 2092W        W18939   8.888  12.089  10.419  0.0971  0.2387  0.0016
 2093W        W18940  11.896   6.337  12.091 -0.1164 -0.4791 -0.1297
 2094W        W18941   6.645   9.864  11.883 -0.1458  0.0660 -0.1123
 2095W        W18942   0.275  14.201   4.196  0.0026 -0.0159 -0.0877
 2096W        W18943   2.698   3.097   1.794 -0.0945  0.2989  0.1278
 2097W        W18944   5.554   4.317   1.230 -0.0161 -0.2725  0.0814
 2098W        W18945  12.493   5.550  13.063  0.2011 -0.0142  0.0586
 2099W        W18946   5.003  13.231   3.238 -0.0016 -0.3218  0.0683
 2100W        W18947   8.831   7.763  11.589  0.0500  0.4960  0.1979
 2101W        W18948  18.455   3.327  13.402 -0.1348 -0.0496  0.0636
 2102W        W18949  12.031   2.591   2.290  0.1613  0.3363 -0.0612
 2103W        W18950  13.449  11.592   3.726 -0.2522  0.0545  0.4197
 2104W        W18951  10.798  10.187  11.664 -0.0049  0.0022 -0.1972
 2105W        W18952   8.035  15.358   1.549 -0.0659 -0.1967  0.0324
 2106W        W18953   0.628  10.808  12.608  0.0111  0.1452  0.0890
 2107W        W18954  10.429  14.478   4.535  0.1811  0.2085 -0.1755
 2108W        W18955   1.159   6.140   1.665 -0.2011 -0.0295  0.1063
 2109W        W18956   6.056  14.429  14.541 -0.4141  0.0580  0.0791
 2110W        W18957   6.310   2.339   2.584 -0.2059  0.3222  0.0258
 2111W        W18958   9.776   4.315  14.837 -0.3620 -0.2064  0.0268
 2112W        W18959   5.509  14.073  11.659  0.0574  0.2160 -0.1257
 2113W        W18960   4.144   0.067   2.201 -0.0335 -0.1192 -0.0275
 2114W        W18961   9.344   3.996   5.351 -0.1032  0.1645 -0.1675
 2115W        W18962  16.587  16.275   4.304 -0.2053  0.3738 -0.3465
 2116W        W18963   3.607  14.153   0.087  0.0781  0.2157 -0.2585
 2117W        W18964   3.037  10.033   2.524  0.3232 -0.0109  0.1216
 2118W        W18965  10.514   3.169   5.017  0.0742  0.2111 -0.1568
 2119W        W18966   1.093  10.087   3.575 -0.2002 -0.0232 -0.1776
 2120W        W18967   5.919  13.551  12.315  0.0577  0.1638 -0.2270
 2121W        W18968  10.268   2.351   4.655 -0.0226  0.0623 -0.0635
 2122W        W18969  14.549  14.394   0.042 -0.2239  0.0486  0.2910
 2123W        W18970   4.217   1.888  10.949  0.0758  0.2536 -0.0914
 2124W        W18971  11.332  14.795  13.823  0.0776  0.3532 -0.4475
 2125W        W18972   1.400   2.105   4.651  0.2679  0.2634 -0.0336
 2126W        W18973   0.324   5.026  15.618  0.1634  0.2150 -0.2613
 2127W        W18974   6.487  18.033   2.547  0.0176 -0.3593  0.4679
 2128W        W18975  12.159   3.077  11.682  0.0366  0.1398 -0.0778
 2129W        W18976   4.266   0.341   3.554 -0.1559  0.2475  0.0437
 2130W        W18977   5.001  18.510   1.858 -0.3086  0.1892 -0.1366
 2131W        W18978   5.265   1.186  14.075  0.1186  0.1406  0.1690
 2132W        W18979   2.380  15.482   4.911  0.1248  0.2814 -0.1524
 2133W        W18980  14.121  13.720   4.453  0.1618 -0.0262  0.3865
 2134W        W18981   6.787   4.421  15.628  0.0494 -0.1245  0.1288
 2135W        W18982  15.274  10.916   1.836 -0.0834  0.0246 -0.1928
 2136W        W18983   7.555   5.419  14.051  0.0524 -0.0225 -0.0354
 2137W        W18984   1.820   4.566   3.932 -0.1382 -0.3549  0.2029
 2138W        W18985   9.074   2.234  15.369  0.3634 -0.1509 -0.1729
 2139W        W18986  11.307  13.954   1.101 -0.0640 -0.1466 -0.0307
 2140W        W18987   9.958   7.407   2.604  0.2307 -0.0842 -0.5242
 2141W        W18988  10.892   8.593   1.738  0.4088 -0.1797 -0.1045
 2142W        W18989  17.014   3.968  15.905 -0.0533  0.1297  0.0129
 2143W        W18990   6.659   4.858   1.959  0.0268 -0.1547  0.2522
 2144W        W18991   9.946  12.664   4.165 -0.2128  0.3279  0.1917
 2145W        W18992  17.256  17.969   5.654 -0.0666  0.0564  0.0216
 2146W        W18993  12.986  16.178  15.287 -0.3007  0.2752 -0.0169
 2147W        W18994   5.458   1.280  14.987  0.3246  0.3260  0.2008
 2148W        W18995   0.597  12.966   3.814  0.0072 -0.4538 -0.1843
 2149W        W18996  15.681   9.816  12.490 -0.0866  0.3341 -0.3796
 2150W        W18997  16.869  14.188  11.097  0.3545 -0.0567 -0.1386
 2151W        W18998   4.221  14.107  13.080 -0.2188 -0.1177 -0.2124
 2152W        W18999   6.618   7.494  12.418 -0.0015 -0.1993 -0.2409
 2153W        W19000  13.886  12.623   2.109  0.1253  0.1453 -0.1091
 2154W        W19001  15.471  15.914  14.264 -0.0730  0.0954 -0.2619
 2155W        W19002   3.537   7.106  11.349  0.0425 -0.1464  0.0116
 2156W        W19003   2.692   0.013  13.828 -0.2121 -0.0985  0.0382
 2157W        W19004   7.865  15.868   5.315 -0.0053 -0.2086 -0.1480
 2158W        W19005  17.464   0.274   2.711  0.0061  0.0849  0.1856
 2159W        W19006   1.815  17.074   3.480  0.1643  0.3101  0.1565
 2160W        W19007  18.044  13.906  11.891  0.0795  0.0454  0.0886
 2161W        W19008  10.368  12.134   3.249 -0.1042  0.0107 -0.1190
 2162W        W19009  12.295  15.809  12.501  0.0218  0.0427  0.1414
 2163W        W19010  14.594  10.201  12.343 -0.0962 -0.1856  0.1890
 2164W        W19011  14.012  14.450  14.442 -0.0184  0.0268 -0.2713
 2165W        W19012   7.330   9.754  11.032  0.1451  0.1667 -0.1185
 2166W        W19013   2.480  13.656   1.326 -0.1776  0.1234  0.1890
 2167W        W19014   3.258   8.367  15.508 -0.2032 -0.0852 -0.5655
 2168W        W19015  11.947   4.022  10.056 -0.3895 -0.1628 -0.2985
 2169W        W19016   4.468  10.361   2.786  0.1297  0.0407  0.0388
 2170W        W19017  17.805  14.835   4.713 -0.0612  0.1478 -0.1050
 2171W        W19018   5.322   4.856  12.467  0.0794 -0.1525  0.0296
 2172W        W19019   9.832  12.778  13.394  0.2283 -0.2649 -0.1096
 2173W        W19020   9.221   4.175  11.086  0.3742  0.1034 -0.1547
 2174W        W19021  17.125  17.425   2.554 -0.2317 -0.1874  0.1499
 2175W        W19022   3.994   5.319   0.921 -0.0931  0.0380 -0.0249
 2176W        W19023  15.812   0.441  13.452  0.0239  0.1532 -0.1466
 2177W        W19024   3.567  10.139  14.758  0.2250  0.0415  0.0648
 2178W        W19025  11.626  10.567   3.001 -0.1418 -0.0031 -0.0097
 2179W        W19026   7.146   1.396  12.409  0.1810  0.0469 -0.0926
 2180W        W19027   9.155   4.094  13.519 -0.1031 -0.3183  0.2890
 2181W        W19028   8.251   4.953  12.349  0.0279  0.0406 -0.3726
 2182W        W19029  16.885   8.019   5.050 -0.0151  0.0191  0.1930
 2183W        W19030   5.608  12.000  11.977  0.1009  0.1241 -0.0176
 2184W        W19031  15.871   5.553   3.246  0.1758  0.0572 -0.0762
 2185W        W19032  12.888  10.993  13.991  0.0503  0.2823 -0.0325
 2186W        W19033  13.894   7.865  15.728 -0.3976 -0.0750  0.0536
 2187W        W19034   5.357   7.542   2.770  0.2034 -0.1301  0.1141
 2188W        W19035   6.354   9.512   2.724  0.1883  0.0863 -0.1972
 2189W        W19036  15.162   9.068   5.100  0.0746  0.2375 -0.0353
 2190W        W19037  10.399  13.610   4.298  0.2875  0.2555 -0.0988
 2191W        W19038   7.467   4.164   3.468 -0.1160 -0.0421  0.0905
 2192W        W19039   7.138   8.428   3.954 -0.2098  0.1123 -0.1183
 2193W        W19040  15.084   6.731  13.808 -0.3954  0.0325 -0.0588
 2194W        W19041  12.024  11.740  11.530  0.1971  0.1789  0.0269
 2195W        W19042   8.068  12.567  11.508 -0.0830 -0.1677 -0.1449
 2196W        W19043   0.741  11.173   0.093 -0.1501  0.2278 -0.2809
 2197W        W19044   0.529  13.222  14.116  0.2647 -0.0196  0.0655
 2198W        W19045   2.017   5.672   4.053 -0.0804 -0.0063 -0.2007
 2199W        W19046  15.938  10.269   5.010 -0.3907  0.2043 -0.0719
 2200W        W19047  10.182  12.943   3.761 -0.1788  0.1010  0.1484
 2201W        W19048   3.116   0.858  13.303  0.3251  0.1165  0.0095
 2202W        W19049   5.755   9.234   1.143 -0.2269  0.2661 -0.0674
 2203W        W19050   5.552   0.066   2.793 -0.0342 -0.0359  0.2388
 2204W        W19051  13.192  11.462   2.109  0.3705 -0.0101 -0.0400
 2205W        W19052  13.755   4.357   2.297  0.3549 -0.0481 -0.0794
 2206W        W19053   4.990   8.436   3.914  0.1211 -0.0765 -0.0649
 2207W        W19054  13.064   4.946  11.278  0.3862 -0.0953  0.4035
 2208W        W19055   3.979  15.982  14.764  0.2763  0.0784 -0.0558
 2209W        W19056  14.596   5.799   3.203 -0.5629 -0.0865  0.0527
 2210W        W19057   1.060  15.865   0.765 -0.0493  0.1104 -0.3498
 2211W        W19058   8.245  16.542  14.480  0.2038 -0.1371  0.0902
 2212W        W19059  15.210   4.859   2.203 -0.2056 -0.1597 -0.0001
 2213W        W19060  17.451   2.388   2.297  0.1458  0.2508  0.1411
 2214W        W19061   6.098   3.954  14.866 -0.1558 -0.0728 -0.0921
 2215W        W19062  14.485   2.751   4.873 -0.1124 -0.0600  0.3584
 2216W        W19063  16.629   1.419   2.958 -0.1426 -0.3744 -0.1029
 2217W        W19064   1.563  11.164  13.418  0.0716  0.3861 -0.1137
 2218W        W19065  18.177   8.527  13.499  0.4160 -0.3800  0.2906
 2219W        W19066  10.661   9.632  11.771  0.4059 -0.0835 -0.0712
 2220W        W19067  14.506  10.854  15.601 -0.1867  0.2786  0.1183
 2221W        W19068  10.633  17.934  11.804  0.0958 -0.0214 -0.0579
 2222W        W19069   8.621  16.205   0.926  0.1992 -0.0356 -0.5037
 2223W        W19070   9.746   1.798  14.823  0.1435 -0.1291 -0.2760
 2224W        W19071   6.095   8.342   2.725  0.0938  0.0386  0.4060
 2225W        W19072  18.213   7.165   1.692 -0.0231  0.0386  0.2504
 2226W        W19073   1.918  12.905   0.281  0.2212 -0.0610 -0.0154
 2227W        W19074   3.973  17.289   1.217  0.0167  0.3465  0.0140
 2228W        W19075   4.705  11.244   2.337  0.0330  0.1396 -0.1176
 2229W        W19076   0.628   2.504  14.242 -0.2697  0.1834 -0.1863
 2230W        W19077   3.611  11.565   4.638  0.0159  0.1251 -0.1474
 2231W        W19078  17.251  18.144   3.945  0.0174  0.1669  0.0982
 2232W        W19079  18.228   3.201  15.589  0.1709 -0.1254 -0.1109
 2233W        W19080   3.320  14.117  15.573 -0.1265 -0.4206  0.1138
 2234W        W19081   2.302  14.442  13.341 -0.2233 -0.1279  0.0009
 2235W        W19082  17.259  10.478   5.068 -0.2305  0.1755 -0.1462
 2236W        W19083   3.092   8.787   2.655 -0.0138 -0.0708 -0.1006
 2237W        W19084   0.148   3.136  14.512  0.2260 -0.0874  0.0030
 2238W        W19085  13.547   2.004   2.347  0.0845 -0.0500  0.0276
 2239W        W19086   4.518  11.993  13.108 -0.0704  0.1352 -0.0460
 2240W        W19087   6.506   7.576  14.837 -0.0490  0.1402  0.0167
 2241W        W19088  18.355   5.106  13.538  0.2093 -0.2235  0.2653
 2242W        W19089   2.773  12.700  14.659  0.1239  0.2041 -0.0366
 2243W        W19090  12.335   4.380   2.391  0.2169 -0.1939 -0.1855
 2244W        W19091   1.748   5.883  11.846  0.2669  0.1033 -0.0844
 2245W        W19092   0.349   8.848   1.894 -0.0159 -0.2074  0.1940
 2246W        W19093   5.101  17.186   3.434  0.1434 -0.1141  0.0794
 2247W        W19094  10.422   7.771   5.368 -0.0288 -0.1706  0.0644
 2248W        W19095  13.457   7.755  14.556 -0.1772  0.1574  0.0085
 2249W        W19096  17.522   4.924   4.161 -0.2707  0.2008 -0.4828
 2250W        W19097   6.861  14.265   0.611 -0.0580 -0.1920  0.2559
 2251W        W19098  16.988   3.270  11.850 -0.1407  0.2222 -0.1839
 2252W        W19099  16.389  12.146  14.947  0.2338  0.0343  0.1379
 2253W        W19100   0.268   1.780   2.926 -0.1574  0.2365 -0.1881
 2254W        W19101  13.464   7.545   4.217 -0.0313 -0.1770  0.1353
 2255W        W19102   1.753   7.160   5.780 -0.0866  0.2528 -0.0203
 2256W        W19103   0.919  16.462  14.426 -0.0902  0.2041  0.1612
 2257W        W19104   2.002  12.461   1.381 -0.0161  0.0146  0.1252
 2258W        W19105   0.559   2.625   3.240 -0.0114  0.4291  0.2591
 2259W        W19106   3.596   2.909  11.645  0.2975 -0.2163 -0.1752
 2260W        W19107   3.208  10.541   1.112 -0.1535  0.0967 -0.4558
 2261W        W19108  15.921  18.264  10.418 -0.1450  0.0731 -0.3470
 2262W        W19109  14.569   5.732   2.193 -0.0225 -0.0972  0.0446
 2263W        W19110   1.386   9.837  14.781  0.0978 -0.1651  0.2278
 2264W        W19111  14.102   4.644   5.626 -0.2064  0.0308  0.2310
 2265W        W19112  13.331  16.524  11.714 -0.0866  0.1740 -0.1104
 2266W        W19113  13.192   9.749  10.908  0.1442  0.0209  0.0603
 2267W        W19114   6.153   4.473   4.664  0.3172 -0.2520 -0.0320
 2268W        W19115  10.808   6.544   1.729  0.1703 -0.1425 -0.0089
 2269W        W19116  13.689   5.401   1.209 -0.0557 -0.0553 -0.2124
 2270W        W19117   3.875   2.935  15.936  0.0154 -0.2327  0.3486
 2271W        W19118   1.474  14.170   0.656  0.0674 -0.1962 -0.0023
 2272W        W19119  18.020  17.172   2.311 -0.1615  0.0015 -0.1426
 2273W        W19120  10.937   0.929   1.553 -0.0948  0.0336  0.0606
 2274W        W19121   2.703  13.178  14.311  0.1269 -0.0403  0.0352
 2275W        W19122   8.838  14.662   2.496 -0.0821  0.0621 -0.1494
 2276W        W19123   0.731  13.463   4.923 -0.1570 -0.2209  0.2192
 2277W        W19124   6.052   2.259  13.960  0.1851 -0.5218 -0.0477
 2278W        W19125   6.110  18.360  10.753 -0.2497  0.0690  0.1484
 2279W        W19126   8.188  13.114  15.075 -0.0587  0.2453  0.0766
 2280W        W19127   2.076  13.271   4.926  0.0316 -0.0733  0.1470
 2281W        W19128   4.690  18.397  10.707  0.2464  0.1411  0.0004
 2282W        W19129   8.632  17.007  11.010  0.1214  0.2516  0.0159
 2283W        W19130  14.761   3.233   5.423  0.1955 -0.1493  0.0694
 2284W        W19131   9.526  17.197  15.363 -0.1729 -0.1388  0.2227
 2285W        W19132   1.527   5.705   2.721 -0.1412  0.0868 -0.3902
 2286W        W19133   7.391  18.090   5.819 -0.0675  0.0023 -0.1776
 2287W        W19134   2.023   0.911   1.436  0.3250 -0.1836 -0.1169
 2288W        W19135   6.695  11.474  12.958 -0.1812 -0.2475  0.2834
 2289W        W19136   1.126   9.126  12.454 -0.0153 -0.0715 -0.0336
 2290W        W19137   5.437  10.044  11.392  0.1798  0.3911  0.4569
 2291W        W19138   1.991  14.523   1.267  0.0251  0.2387 -0.2855
 2292W        W19139   5.156  12.567   0.290  0.1163  0.0243 -0.0707
 2293W        W19140  17.132   4.795  10.854 -0.0109 -0.3291  0.1460
 2294W        W19141  16.968   3.804   5.187 -0.1532  0.2649  0.2138
 2295W        W19142  10.324   0.364  10.947  0.2611 -0.1684 -0.0120
 2296W        W19143   2.888   1.374  15.511  0.0716 -0.0585  0.0680
 2297W        W19144   1.677   0.781  12.579  0.2100 -0.0967 -0.1328
 2298W        W19145   7.984   6.818  10.201 -0.0942  0.1197 -0.1733
 2299W        W19146   7.864  14.134   5.379 -0.3225  0.0019 -0.3496
 2300W        W19147  13.560   1.449  14.644  0.1760 -0.0987  0.0577
 2301W        W19148   7.473   4.475   2.239  0.2072  0.0231  0.2263
 2302W        W19149  17.455  14.438   5.142  0.2102  0.1457 -0.2017
 2303W        W19150  12.459  10.295   3.697  0.2106 -0.3159 -0.0928
 2304W        W19151  11.614   4.197  14.023  0.0077  0.2413  0.1480
 2305W        W19152   2.574  18.118  11.541  0.2599 -0.1894  0.1413
 2306W        W19153   1.440  10.852   3.685  0.0712 -0.1921 -0.0343
 2307W        W19154   5.262   1.566  14.487  0.0116 -0.2055  0.2819
 2308W        W19155  13.750   6.344   2.086  0.2499 -0.0855  0.3550
 2309W        W19156   3.368   3.491   1.543  0.3149  0.1783 -0.3885
 2310W        W19157   7.529   5.579   4.647  0.0227  0.0168 -0.1296
 2311W        W19158   2.942   5.730   2.146  0.1444  0.1294  0.0982
 2312W        W19159   8.413  12.538   3.216 -0.1310  0.0672  0.0735
 2313W        W19160   6.941  15.840   2.163  0.0120 -0.1053 -0.1398
 2314W        W19161  12.968   8.541  13.413 -0.1644 -0.2631 -0.3185
 2315W        W19162   2.189  10.291   1.273  0.0963  0.0998 -0.0044
 2316W        W19163  17.050   4.921   3.789 -0.0855  0.1112 -0.0860
 2317W        W19164   2.577  10.295  13.280 -0.2707 -0.0587  0.0582
 2318W        W19165  17.521  18.205  12.669 -0.0593  0.1585 -0.1675
 2319W        W19166  16.632   5.115   0.540 -0.4676  0.1587 -0.0971
 2320W        W19167  14.383   5.359  13.009  0.0852  0.0541  0.1860
 2321W        W19168  17.052   0.595   5.680 -0.0256  0.0716  0.2452
 2322W        W19169   6.383   5.141  13.610  0.1322 -0.4040 -0.5342
 2323W        W19170  11.805   9.887  14.901 -0.0057  0.2266  0.1409
 2324W        W19171  12.780   3.287   0.288 -0.1327 -0.1699  0.1312
 2325W        W19172   1.368  16.472   4.280  0.0134 -0.0296 -0.4227
 2326W        W19173   0.616  17.533  13.494 -0.0331  0.1865 -0.2751
 2327W        W19174  17.284  15.982   5.496 -0.0384 -0.1429  0.3369
 2328W        W19175   0.027  13.017  11.337 -0.1359  0.0407 -0.0800
 2329W        W19176  15.141   2.648   1.703 -0.0176 -0.3970  0.0459
 2330W        W19177   4.977   3.509  12.669 -0.0111 -0.2094  0.0561
 2331W        W19178  17.731   8.518  12.631 -0.0507  0.0090 -0.1440
 2332W        W19179  14.339   5.467  10.590  0.1287  0.0468 -0.2760
 2333W        W19180   7.797   3.436   2.749 -0.3390  0.0701  0.0333
 2334W        W19181   1.638  10.875  15.620 -0.1599 -0.1449 -0.0361
 2335W        W19182  13.947   5.667  13.489 -0.0036 -0.0615 -0.3092
 2336W        W19183   4.303   6.885  12.067 -0.1962  0.1885  0.1152
 2337W        W19184   8.661   6.185   0.985 -0.1972 -0.2591  0.0056
 2338W        W19185   0.529  15.008  13.802 -0.3105  0.0820 -0.0443
 2339W        W19186   3.919  13.514   0.713 -0.0925  0.2071  0.1588
 2340W        W19187   4.957   3.761   3.788 -0.1154 -0.3253 -0.1822
 2341W        W19188  10.377  11.095  15.654 -0.1458  0.0321 -0.0510
 2342W        W19189   6.026  11.054   1.812  0.0807 -0.0306 -0.3185
 2343W        W19190   1.952  13.311   3.472  0.3856  0.1697  0.1711
 2344W        W19191  17.907   0.059   5.903 -0.0405 -0.1752  0.2175
 2345W        W19192  13.061  15.214   5.412 -0.0016  0.1852  0.2099
 2346W        W19193  14.643  15.621  13.160 -0.0398 -0.0799  0.2095
 2347W        W19194   3.820   8.882   1.188  0.1814 -0.2011 -0.3651
 2348W        W19195  12.347  13.270  13.021  0.0041 -0.0153  0.0434
 2349W        W19196   6.400   1.337   5.687  0.2493 -0.0893  0.1405
 2350W        W19197  16.644   1.868   1.281 -0.6225  0.1662 -0.2588
 2351W        W19198  12.801  16.000   5.114 -0.2332 -0.1154 -0.0348
 2352W        W19199   8.077   3.395  10.016  0.0094  0.0336 -0.3165
 2353W        W19200   3.687   8.220  15.675  0.1800  0.1253 -0.0977
 2354W        W19201  16.664   1.207  11.813  0.4058 -0.1091  0.0192
 2355W        W19202   7.189   8.565   3.458  0.1345  0.1926 -0.0695
 2356W        W19203  16.078   6.905   1.793  0.2939 -0.2165  0.2137
 2357W        W19204  16.474  10.458  13.902 -0.2959  0.0980  0.1484
 2358W        W19205  18.168  13.929   1.339 -0.1114  0.2720 -0.1317
 2359W        W19206  11.604   8.904  13.854  0.1660  0.0855  0.0146
 2360W        W19207   4.811   4.682   4.649  0.3049  0.0238  0.0001
 2361W        W19208  17.990  13.533   2.082 -0.1313 -0.1009 -0.3277
 2362W        W19209  13.062  11.124   1.594  0.0603 -0.0704  0.0970
 2363W        W19210   2.254  13.336  10.654  0.3553  0.0661  0.0437
 2364W        W19211   1.377  12.889   2.092  0.1342  0.1455  0.0302
 2365W        W19212   5.619   5.005   0.062  0.1682  0.1784 -0.1463
 2366W        W19213  13.754  12.333  12.272 -0.0218 -0.2317 -0.1692
 2367W        W19214   7.860  10.332  13.116  0.3017 -0.0091  0.2018
 2368W        W19215  17.981  13.480  15.803 -0.4165 -0.0779 -0.2874
 2369W        W19216  16.770   3.520  12.245  0.0979 -0.0242 -0.0044
 2370W        W19217  13.529   9.421  14.098  0.1178  0.1417  0.0093
 2371W        W19218  16.741  12.525   1.926 -0.0489  0.0590  0.0188
 2372W        W19219  14.956   6.098   3.039  0.1840  0.1264 -0.1158
 2373W        W19220   7.758  10.884  14.759  0.4277 -0.0583  0.0608
 2374W        W19221   3.320   4.897  10.350  0.1054 -0.2211 -0.0723
 2375W        W19222  11.648   7.309  12.489 -0.0727 -0.0952  0.1009
 2376W        W19223   7.718  14.518   4.094  0.1985  0.2067  0.3029
 2377W        W19224   8.801  15.234  14.530 -0.0236  0.0342  0.0320
 2378W        W19225   4.973  12.571   4.917 -0.1280  0.1222 -0.0085
 2379W        W19226  10.533   3.506  10.159  0.0042 -0.2022  0.1186
 2380W        W19227   4.004  13.258   2.542  0.0312  0.0143  0.1710
 2381W        W19228  11.473  16.384  12.114  0.1390  0.1665  0.0300
 2382W        W19229  17.696  12.879  12.656  0.0341  0.0487 -0.0882
 2383W        W19230   1.050   0.943   3.176 -0.0144  0.2970 -0.1485
 2384W        W19231   8.496   3.842   2.900  0.0173  0.0078 -0.2415
 2385W        W19232   7.263   8.389  15.713  0.4334  0.1539 -0.0086
 2386W        W19233   6.268  10.253   2.559  0.1666 -0.1611 -0.0732
 2387W        W19234   0.575  18.211  15.750 -0.0768  0.0567 -0.3263
 2388W        W19235   0.099   2.163   6.149 -0.2581 -0.2001  0.3587
 2389W        W19236   6.034   9.767   2.429 -0.4823  0.1444  0.0214
 2390W        W19237  16.825  13.647  13.072 -0.0909  0.2805 -0.0406
 2391W        W19238  10.029   3.298  12.644  0.0492  0.2306  0.0404
 2392W        W19239  12.609   3.570   3.957  0.1325  0.4649  0.3216
 2393W        W19240   3.424  17.343   3.156 -0.0864  0.1541 -0.0781
 2394W        W19241   7.804   1.856  10.920 -0.1383 -0.0202  0.4800
 2395W        W19242   3.746  17.817  15.803  0.0363 -0.1098 -0.0086
 2396W        W19243   6.173  10.607   2.163  0.2827  0.0245  0.0970
 2397W        W19244   8.896  17.926   3.208  0.0701  0.0711 -0.0367
 2398W        W19245   2.467  14.499   4.810 -0.1549 -0.1897  0.1585
 2399W        W19246  12.105  10.713   0.333 -0.1416  0.0723  0.2832
 2400W        W19247  14.044  12.328  13.904 -0.1383  0.1852  0.0335
 2401W        W19248   8.681   7.384  14.979 -0.1632  0.3183 -0.2794
 2402W        W19249   0.451   3.866  14.641 -0.3383  0.0671 -0.0153
 2403W        W19250   5.112  13.200   5.399  0.1828  0.4144  0.1122
 2404W        W19251   3.456   7.257  15.425  0.0252  0.0304 -0.0737
 2405W        W19252   9.710  16.163  15.047  0.0978 -0.0499 -0.3411
 2406W        W19253  13.514   6.496   2.570 -0.0929 -0.1424  0.1964
 2407W        W19254  15.836   3.972  11.627 -0.3420  0.0891  0.2880
 2408W        W19255   6.891  13.833  13.483  0.0882  0.0001  0.2306
 2409W        W19256  15.657   3.214  14.546  0.4338 -0.2694 -0.0884
 2410W        W19257   8.492   8.008  15.688 -0.0269  0.0686  0.0590
 2411W        W19258   5.547   6.546   0.824  0.0650  0.0760 -0.1218
 2412W        W19259  10.953  15.704   0.823  0.4196 -0.2006  0.0917
 2413W        W19260  13.922   7.472   0.782  0.0536  0.0484 -0.0772
 2414W        W19261  12.938   0.856  14.185 -0.0254  0.0290  0.1812
 2415W        W19262   1.598   4.275  13.199  0.3702 -0.0951 -0.1856
 2416W        W19263   3.508   3.665   4.859  0.2113  0.2382  0.3130
 2417W        W19264   9.184   9.312  15.125  0.0150  0.0740 -0.1383
 2418W        W19265  17.312  10.958  11.688  0.0974  0.1504 -0.0872
 2419W        W19266   4.473  17.562  13.282  0.1610 -0.3341 -0.0082
 2420W        W19267   7.392  17.127   4.511  0.0923  0.0815 -0.2208
 2421W        W19268   5.544  15.255   3.199  0.0364 -0.2230 -0.0719
 2422W        W19269   2.180   6.693  12.552  0.0712  0.1605  0.4008
 2423W        W19270   6.684  15.326  15.943 -0.0089  0.0112  0.2044
 2424W        W19271   7.401   6.551  13.299 -0.0975 -0.0139 -0.0540
 2425W        W19272   1.414  14.882  13.376  0.0471  0.3521  0.1830
 2426W        W19273  17.354   2.710   0.526  0.0840  0.1474  0.3720
 2427W        W19274  17.753  10.487   3.221  0.1509  0.3782 -0.2056
 2428W        W19275   2.264  18.537   2.742  0.1222  0.0328  0.0057
 2429W        W19276   2.418   2.154  13.260  0.0920  0.0672  0.1066
 2430W        W19277  17.875   7.185  11.375 -0.0460  0.0690 -0.0372
 2431W        W19278   7.493  15.338   0.448  0.1974  0.2434 -0.0373
 2432W        W19279  13.346  14.552   2.017 -0.1265 -0.2780  0.2718
 2433W        W19280  10.900   3.386  13.232  0.1135  0.0631 -0.1811
 2434W        W19281  10.297  14.534   2.047 -0.1743  0.2661 -0.0586
 2435W        W19282  12.991   6.960  10.502  0.0133  0.0582 -0.1974
 2436W        W19283  11.167   1.926   0.138 -0.0884  0.0191  0.1510
 2437W        W19284  15.903   1.489   0.609 -0.1430 -0.1147 -0.1281
 2438W        W19285  11.914   7.932   2.604  0.2323 -0.1740  0.1044
 2439W        W19286  11.174  13.215  15.931  0.2345  0.2636  0.0766
 2440W        W19287  18.309  12.033   5.216 -0.0123  0.5640 -0.2307
 2441W        W19288   6.742   8.540   0.937  0.0622  0.0848  0.0277
 2442W        W19289  12.277   4.297  10.907 -0.1521  0.2168  0.1962
 2443W        W19290  10.028  14.821  14.008  0.1650  0.0776  0.0640
 2444W        W19291   0.235   9.357   6.307 -0.1641  0.1751  0.0495
 2445W        W19292   4.240  11.002  11.148  0.1341 -0.0864  0.1997
 2446W        W19293  15.463   9.166   1.916 -0.2360  0.1062 -0.0519
 2447W        W19294   8.969   0.954  13.880  0.0630  0.0296 -0.1015
 2448W        W19295   2.260  11.600   1.179  0.1767 -0.3619 -0.0462
 2449W        W19296   9.804   6.930  12.903  0.3108  0.1525 -0.1195
 2450W        W19297   4.566   6.566   2.565 -0.0419  0.1277 -0.0409
 2451W        W19298  17.051  14.966  11.114 -0.1257  0.3277 -0.1024
 2452W        W19299  10.297   8.989   3.095 -0.2938  0.3145  0.2321
 2453W        W19300  12.784  10.209   1.557 -0.0416  0.0269  0.0985
 2454W        W19301   5.471   8.823  13.752  0.2237  0.1988  0.1248
 2455W        W19302  13.643   8.011   4.007  0.0566 -0.1922 -0.1783
 2456W        W19303   4.094   7.608   3.361 -0.3072  0.1015  0.1776
 2457W        W19304   9.448   3.497   3.282  0.2983 -0.0419 -0.2513
 2458W        W19305   4.494   2.090  11.290 -0.0607  0.0179 -0.0962
 2459W        W19306   3.271   5.472   5.211 -0.0024 -0.0970 -0.3793
 2460W        W19307   1.259  10.845  13.217  0.2252 -0.0762  0.0945
 2461W        W19308  15.352   9.069   4.659  0.1151 -0.0642 -0.0492
 2462W        W19309  11.328  17.072   3.597  0.2203  0.0190  0.2917
 2463W        W19310   6.268   8.182   2.253 -0.3182 -0.2444 -0.0058
 2464W        W19311   9.756   8.783   2.257  0.3033 -0.0075  0.1719
 2465W        W19312  11.621   9.552   2.798  0.0850 -0.2511  0.0156
 2466W        W19313   7.897   3.273   2.190 -0.0241 -0.3529 -0.0491
 2467W        W19314   9.841  15.976   0.622 -0.1562  0.1161  0.1335
 2468W        W19315   1.312   7.784   0.296 -0.1622 -0.2587 -0.1776
 2469W        W19316  10.472   3.738   2.967 -0.0094 -0.2344  0.4125
 2470W        W19317   4.887   2.403   4.039 -0.0740 -0.1619 -0.1157
 2471W        W19318  13.117  12.773   1.835  0.2283  0.2895  0.1313
 2472W        W19319   3.950   1.010   2.924 -0.3156  0.0867  0.1143
 2473W        W19320   5.502  18.025  11.093  0.2552 -0.1217 -0.1143
 2474W        W19321   2.568   0.872  12.070 -0.0914 -0.1317 -0.2945
 2475W        W19322  10.575  17.198   5.154  0.2369 -0.2667 -0.0985
 2476W        W19323   1.516  14.284   4.711  0.1892  0.1363 -0.0802
 2477W        W19324   4.343   7.187   5.168  0.0378 -0.3516  0.0257
 2478W        W19325  15.031  12.836   2.918  0.3549  0.2259  0.2181
 2479W        W19326   7.115  14.223  15.115  0.0238  0.2751  0.0862
 2480W        W19327   6.668  14.349  10.494  0.0740 -0.0217  0.2814
 2481W        W19328   7.762  14.861  15.421  0.1604 -0.4022  0.4850
 2482W        W19329   1.421  12.675  12.563 -0.2641  0.1639 -0.0876
 2483W        W19330  18.502   1.608   0.417 -0.0033 -0.0003  0.1323
 2484W        W19331  16.227   8.631   4.112 -0.1165 -0.0196 -0.3327
 2485W        W19332   0.504   9.606   4.275 -0.1181 -0.3157  0.1165
 2486W        W19333  11.268   1.096   3.810  0.1857 -0.0307  0.3905
 2487W        W19334  12.646  10.965   1.746 -0.0650 -0.2220 -0.5345
 2488W        W19335  13.681   5.724  11.287  0.3074 -0.0901 -0.3220
 2489W        W19336   6.914  11.755  11.625  0.1696  0.0303  0.2088
 2490W        W19337  11.806   9.450  12.184  0.1617  0.2091  0.1374
 2491W        W19338   1.326   6.450   4.765 -0.2804 -0.0716  0.1755
 2492W        W19339   6.140  11.934  15.152 -0.2092 -0.0127  0.2829
 2493W        W19340  11.150   4.241   0.089 -0.0625 -0.3171 -0.2810
 2494W        W19341   3.831   2.477  11.631 -0.1416  0.0289 -0.1845
 2495W        W19342   7.074  10.467   2.109 -0.0933 -0.2955  0.0941
 2496W        W19343  17.295   2.954   5.223 -0.1296 -0.0556 -0.0402
 2497W        W19344  12.593  18.232  11.604  0.0659  0.0603  0.0330
 2498W        W19345   5.574  10.095  13.356  0.0423  0.0251 -0.1815
 2499W        W19346   7.193   2.135  15.794  0.1528  0.1055 -0.4452
 2500W        W19347   3.599   0.108  15.259  0.0707 -0.0147  0.1525
 2501W        W19348   1.914  15.228   1.750  0.0791  0.2115  0.0665
 2502W        W19349  18.206  15.614   4.277  0.3149  0.1799  0.1620
 2503W        W19350  17.118  10.865  15.560 -0.2597 -0.0572 -0.1605
 2504W        W19351   0.536  15.594   1.529 -0.4851 -0.2172 -0.0432
 2505W        W19352   0.328   7.566  14.376  0.1427  0.1132 -0.0214
 2506W        W19353   6.241  15.926  12.554  0.1538  0.0471  0.0960
 2507W        W19354  11.767   7.185   1.530 -0.1149  0.0535  0.2125
 2508W        W19355  17.795   4.220   4.607  0.2524 -0.0149 -0.0182
 2509W        W19356   3.857  10.758   0.646 -0.1333  0.1629 -0.0616
 2510W        W19357   8.906   1.897   3.540 -0.1766 -0.1062 -0.0451
 2511W        W19358   4.448  17.153   4.161 -0.2327  0.3023  0.0508
 2512W        W19359   8.530   5.748  11.859  0.1529 -0.0802 -0.1798
 2513W        W19360   1.601   1.709  13.386  0.2058 -0.2799  0.1735
 2514W        W19361   4.347  14.216   0.599  0.1125 -0.1686 -0.1917
 2515W        W19362  16.971   3.198  15.417 -0.0898  0.3005 -0.0022
 2516W        W19363  11.440   6.258   0.341  0.1422 -0.2338 -0.1032
 2517W        W19364  12.468  10.576  11.825  0.1750 -0.1545 -0.2431
 2518W        W19365  11.796   3.052  10.695  0.2171  0.0058 -0.1475
 2519W        W19366   7.919   4.909  13.545 -0.1242  0.2268  0.2865
 2520W        W19367  13.816  13.503  11.360 -0.1934 -0.1146  0.0691
 2521W        W19368   8.323  12.047  15.748  0.2925  0.0107 -0.0252
 2522W        W19369  10.823  17.406   6.202  0.3620 -0.0507  0.3400
 2523W        W19370  12.114  14.078   3.642 -0.0326 -0.0565  0.0849
 2524W        W19371   2.839   4.309  11.925  0.0835 -0.0857 -0.0144
 2525W        W19372   1.639  16.545   5.141 -0.1597  0.0090 -0.1025
 2526W        W19373   5.479  11.702  13.407  0.0437  0.1265 -0.0851
 2527W        W19374   1.929   2.163   0.795 -0.0033 -0.0693 -0.0464
 2528W        W19375   6.578   2.080  12.985 -0.0466 -0.0683 -0.1395
 2529W        W19376  10.381   4.456  13.452  0.0753 -0.0313 -0.1053
 2530W        W19377   2.880  16.178  12.291 -0.1919 -0.1024 -0.1267
 2531W        W19378  18.433   8.910   4.287  0.2007  0.0844 -0.1514
 2532W        W19379  13.035  14.627   4.700 -0.0100 -0.3884  0.0971
 2533W        W19380   1.622  12.147   4.320  0.1317 -0.3310  0.0609
 2534W        W19381   9.168  12.906   4.586 -0.1865  0.2845  0.0715
 2535W        W19382   3.470  14.648  15.348 -0.1893  0.3227 -0.0739
 2536W        W19383  18.264   5.762  12.382  0.0825 -0.0023 -0.2422
 2537W        W19384   0.025  11.789   3.906  0.1897 -0.2658 -0.1722
 2538W        W19385  10.684   0.370  12.124  0.0969  0.2324 -0.1377
 2539W        W19386  15.580  14.553  13.764 -0.0519  0.1844  0.3430
 2540W        W19387   2.882   5.375   1.501  0.2938 -0.0872  0.1236
 2541W        W19388  16.070   3.927   0.655  0.2245 -0.1914 -0.0143
 2542W        W19389   0.060   8.811   5.296 -0.0921 -0.0835  0.0175
 2543W        W19390   1.738  16.900   5.535  0.1366 -0.0339  0.1528
 2544W        W19391   5.014   8.921  13.506 -0.1783  0.1961  0.0391
 2545W        W19392  12.558   4.361  15.145 -0.0155  0.1743 -0.2335
 2546W        W19393   3.878  13.745  15.124 -0.0084  0.2468  0.0827
 2547W        W19394  17.413  13.330   4.778  0.0859  0.0473  0.0439
 2548W        W19395  10.189   8.518  13.664  0.0456  0.2229  0.2550
 2549W        W19396   5.882  12.496   1.944  0.3102 -0.0265  0.1397
 2550W        W19397   6.226   5.627  15.526  0.0950 -0.1132 -0.0450
 2551W        W19398   1.700  11.054   4.122  0.2637  0.0609 -0.2871
 2552W        W19399  14.822   4.792  13.682  0.1941 -0.1094 -0.0268
 2553W        W19400  12.942   5.780  15.412 -0.1010  0.0530 -0.0113
 2554W        W19401   5.126   7.483   4.920  0.0470  0.1625  0.2501
 2555W        W19402  11.203   1.778  14.423  0.0873 -0.3135  0.1549
 2556W        W19403  11.784   5.874  12.224  0.1868  0.0800  0.2013
 2557W        W19404   2.937  12.374   1.539  0.1125 -0.1700  0.0147
 2558W        W19405  16.426   5.098  15.742  0.0063 -0.0507  0.0634
 2559W        W19406   2.700   2.251   5.696  0.2363 -0.3046 -0.1959
 2560W        W19407  16.545   5.134   1.450 -0.1110 -0.0484 -0.2072
 2561W        W19408   1.041  18.260   5.656 -0.2068  0.1371  0.1450
 2562W        W19409  12.471  11.175   2.640 -0.1869  0.2625 -0.1482
 2563W        W19410  10.653  13.295   0.104 -0.1367  0.0323 -0.3890
 2564W        W19411   8.401   9.181   2.768  0.0804 -0.1853 -0.0086
 2565W        W19412  14.542  16.006   2.936  0.0969 -0.0423 -0.0384
 2566W        W19413   0.257  11.484   1.250  0.1118  0.1673 -0.0272
 2567W        W19414   7.694  11.056  12.526  0.1190 -0.1786  0.2871
 2568W        W19415   1.256   2.468   4.339  0.3126 -0.0285  0.0876
 2569W        W19416   4.321  18.048  14.493  0.0619 -0.1535 -0.2720
 2570W        W19417   6.226   7.046   2.063 -0.0608  0.1665 -0.0983
 2571W        W19418  18.237   5.070  13.015 -0.1606  0.1313  0.1680
 2572W        W19419  18.273   0.619  11.470 -0.0890 -0.0946 -0.2457
 2573W        W19420   7.437   1.452  12.820 -0.0430  0.3405  0.1574
 2574W        W19421   6.660  14.730  12.213  0.2881  0.1693 -0.0503
 2575W        W19422   7.629   2.768  11.267 -0.0327  0.0545 -0.0341
 2576W        W19423   6.186   1.620  14.731  0.1176  0.0571 -0.1497
 2577W        W19424   3.640   3.790  12.080  0.1016  0.0363  0.0100
 2578W        W19425  13.316  16.268   3.430  0.2492  0.3493  0.1004
 2579W        W19426   0.485   8.447  14.787 -0.3317  0.1755  0.0847
 2580W        W19427   6.531  13.306   5.339 -0.1489 -0.2314 -0.0314
 2581W        W19428   1.374  10.689  15.118 -0.1873 -0.0840 -0.0785
 2582W        W19429   1.781   6.683   4.093  0.1182  0.0275 -0.1164
 2583W        W19430  18.267  13.311   1.699  0.0740 -0.1816  0.0725
 2584W        W19431  13.857  13.392   4.640  0.0570 -0.2488  0.2619
 2585W        W19432  14.335  15.672  12.437 -0.5103 -0.1914 -0.0256
 2586W        W19433  13.276  10.344  13.169 -0.1037  0.1652 -0.1662
 2587W        W19434   0.028  16.501   3.431 -0.1172  0.0789 -0.1398
 2588W        W19435  17.410   3.310   4.232 -0.1375 -0.0218  0.0051
 2589W        W19436  10.498   6.803  15.503 -0.0225 -0.0282  0.3263
 2590W        W19437   6.838   0.193   1.697 -0.0477 -0.3012  0.1903
 2591W        W19438  15.827   0.365  14.273 -0.1722 -0.0837  0.1082
 2592W        W19439   0.957   9.610   5.234  0.0373 -0.1555 -0.1435
 2593W        W19440  17.004  13.428   3.466  0.3583 -0.0566  0.3543
 2594W        W19441  10.048  13.035  15.446 -0.1839  0.1301 -0.3359
 2595W        W19442  17.214   7.090   0.045  0.0956 -0.0840  0.0821
 2596W        W19443   3.306   2.294   2.971 -0.0188 -0.1465 -0.0606
 2597W        W19444   2.630  10.622  15.900 -0.0289 -0.1503 -0.0520
 2598W        W19445  10.966  11.570  13.555  0.0678 -0.2039  0.2420
 2599W        W19446   9.076  12.597  12.265  0.0409 -0.1240 -0.1510
 2600W        W19447  14.595   5.059  12.329  0.2808  0.3616  0.2213
 2601W        W19448  14.492  16.775  14.381  0.0474 -0.0284 -0.2638
 2602W        W19449   7.394   5.919  11.454  0.2295 -0.1701  0.0023
 2603W        W19450  12.899   3.395   1.028 -0.1309 -0.0630 -0.1819
 2604W        W19451   3.951  15.971  12.672  0.0101 -0.3124  0.2117
 2605W        W19452   0.116   3.249   0.450 -0.0945  0.0853 -0.2580
 2606W        W19453  12.054  10.233  14.624 -0.0399 -0.1943 -0.0049
 2607W        W19454   7.836   6.242  12.180 -0.3551  0.0231 -0.1298
 2608W        W19455   5.575   4.256  14.082 -0.1386  0.0892 -0.0662
 2609W        W19456   2.502  11.500   5.181 -0.1347 -0.1929  0.1961
 2610W        W19457  13.402  10.108  10.613 -0.2392 -0.0427 -0.0909
 2611W        W19458   7.673   3.330  15.912 -0.1515  0.0548  0.1240
 2612W        W19459  16.288  10.270   3.754  0.0216 -0.2966 -0.1257
 2613W        W19460   6.725  14.253  12.203  0.4023 -0.1072  0.3110
 2614W        W19461  17.057   9.605  15.538  0.0289  0.0676 -0.2346
 2615W        W19462   8.292  10.370  11.811 -0.2350  0.2150 -0.2410
 2616W        W19463  13.408  13.181  15.417 -0.0756 -0.0497 -0.0208
 2617W        W19464  14.783  14.208   3.164 -0.2081  0.2631  0.0611
 2618W        W19465  11.918   0.661  14.169 -0.2533 -0.0296 -0.1184
 2619W        W19466  14.240   9.200  15.454  0.0941 -0.0334 -0.0938
 2620W        W19467   8.631   7.296  13.201  0.0342  0.0820  0.2579
 2621W        W19468  18.518   8.815  14.844  0.0515  0.4135 -0.0100
 2622W        W19469   8.905  15.514   2.733 -0.0288 -0.1158  0.0319
 2623W        W19470   9.720  10.676   5.347  0.0433  0.0325  0.1178
 2624W        W19471  15.599  16.842  14.998 -0.0274 -0.0445  0.0556
 2625W        W19472  12.154  10.483   4.744 -0.2231 -0.2142 -0.0058
 2626W        W19473  13.139   6.112  12.896  0.0798  0.0608 -0.2137
 2627W        W19474   6.340  17.964   6.243  0.0266  0.0636  0.0206
 2628W        W19475   0.397  17.560   1.338 -0.2064 -0.2562 -0.0558
 2629W        W19476  15.898   6.359  11.507 -0.2522 -0.1086  0.0601
 2630W        W19477  13.143   2.250  11.117 -0.1040  0.0749  0.0342
 2631W        W19478   5.096   6.250  10.980  0.2299 -0.0431  0.0720
 2632W        W19479   0.962   3.671  12.588 -0.1144 -0.1145  0.0651
 2633W        W19480   3.749   1.355  10.734 -0.0214 -0.1263 -0.0980
 2634W        W19481   8.891  13.992  13.696 -0.1649  0.1752  0.2053
 2635W        W19482   3.546   5.706  13.819 -0.0800  0.0373  0.1512
 2636W        W19483   0.971   3.837  15.749 -0.0705 -0.2389  0.0700
 2637W        W19484   1.595  16.149  11.207 -0.1369 -0.4168  0.2782
 2638W        W19485   1.887   8.479   1.185 -0.3020 -0.0914  0.2632
 2639W        W19486   0.642  17.771   2.313 -0.0933 -0.2712  0.2261
 2640W        W19487   8.363  18.037   0.389  0.2070  0.0615  0.1006
 2641W        W19488  18.524  14.662   3.455  0.0566  0.0265  0.0561
 2642W        W19489   0.317  10.573   4.459  0.2488 -0.3197  0.1436
 2643W        W19490  16.401   7.239  13.973  0.1860  0.0316 -0.0088
 2644W        W19491  17.457   4.694   2.893 -0.0398  0.0392 -0.2100
 2645W        W19492   8.379   0.290  13.290 -0.0392  0.0045  0.1412
 2646W        W19493   9.290  10.639   4.473 -0.0168 -0.1692  0.0247
 2647W        W19494   7.120   8.240   2.224 -0.0694  0.1029 -0.3964
 2648W        W19495  14.977   8.103   4.860  0.1623 -0.2837 -0.1748
 2649W        W19496   9.577   6.072   2.925 -0.2574 -0.0045 -0.0344
 2650W        W19497  18.484  16.622  10.440  0.2405  0.2574  0.0733
 2651W        W19498   2.836  13.747   5.351  0.0266 -0.0532 -0.0495
 2652W        W19499   7.021  11.793   4.266 -0.1360  0.1650  0.0486
 2653W        W19500  14.806  12.226   0.082  0.1340 -0.2266 -0.2042
 2654W        W19501  17.966   0.700   5.731 -0.3288 -0.0546  0.2332
 2655W        W19502  13.842  12.316  13.408 -0.1363  0.0917 -0.0921
 2656W        W19503   5.633  11.647  11.134  0.0015 -0.0072 -0.1651
 2657W        W19504   9.162   4.383   2.938 -0.2167 -0.0996 -0.0280
 2658W        W19505  17.601  10.272   3.713  0.0773  0.0271 -0.0260
 2659W        W19506   3.829   0.985  14.136 -0.0853 -0.3787 -0.1995
 2660W        W19507  13.375   6.686   1.609  0.0259  0.2310  0.2260
 2661W        W19508  10.780  12.266  15.255 -0.1739  0.1317 -0.1241
 2662W        W19509   8.218  10.818  10.590 -0.0593  0.2012 -0.1688
 2663W        W19510   8.071   3.481  12.083  0.1262  0.0752 -0.2449
 2664W        W19511   6.651   7.060  11.288  0.1542  0.1905 -0.0001
 2665W        W19512   4.344  10.697  12.967  0.1299 -0.0967 -0.1398
 2666W        W19513   0.947   9.562  13.798 -0.1534 -0.0340 -0.0853
 2667W        W19514  17.462   6.379  15.392 -0.0014 -0.0993 -0.1320
 2668W        W19515   0.443   0.759  13.585  0.2135 -0.1142  0.0571
 2669W        W19516  10.736   3.618   4.411 -0.0059  0.1760  0.3098
 2670W        W19517  17.291   4.816  15.553  0.2049  0.0255 -0.1611
 2671W        W19518  14.076   3.886   2.298 -0.3163  0.0837 -0.0074
 2672W        W19519   1.981  18.469  13.527  0.1794  0.1783  0.0729
 2673W        W19520  17.278  13.674   2.640  0.0646 -0.2124  0.1588
 2674W        W19521   8.510   1.601  13.017  0.2429  0.2174 -0.0708
 2675W        W19522  18.429  17.159   0.706 -0.0840 -0.1772  0.0074
 2676W        W19523   0.800   8.805   4.144 -0.1656 -0.1305  0.1044
 2677W        W19524   7.852  11.950  12.367  0.1216  0.0426 -0.0643
 2678W        W19525   3.977   9.164   2.510  0.1207  0.0848 -0.0903
 2679W        W19526   3.112  10.768  11.805  0.2067  0.1214 -0.2603
 2680W        W19527   2.416  12.712   4.159  0.2439 -0.0297  0.1638
 2681W        W19528  10.523  10.270   3.547  0.2150 -0.1080 -0.0454
 2682W        W19529   5.022   2.267  11.100 -0.1512 -0.2490  0.1660
 2683W        W19530  10.161   6.150   3.733  0.0366  0.0066  0.0086
 2684W        W19531   3.584   9.626  11.283  0.1344  0.3059 -0.0595
 2685W        W19532   2.031   7.898  15.391  0.0073  0.1492 -0.3669
 2686W        W19533  11.552  17.018   5.271 -0.2603 -0.0362 -0.1565
 2687W        W19534  11.796   4.855  15.016  0.1091  0.2120 -0.4017
 2688W        W19535  12.382  12.552  13.293 -0.0223  0.0812  0.0215
 2689W        W19536   3.895  17.448   0.194  0.1256 -0.0476  0.3359
 2690W        W19537  11.213   0.563   1.815  0.0527 -0.0508 -0.0570
 2691W        W19538   4.619   2.402   3.572 -0.0115  0.0440  0.1337
 2692W        W19539   4.251   2.081   4.471 -0.0332  0.3069  0.2809
 2693W        W19540  10.546   4.556  11.188 -0.0297 -0.1823  0.0667
 2694W        W19541  17.112  16.619  12.042  0.0173  0.3963 -0.2159
 2695W        W19542  10.406   5.464   0.078 -0.0653  0.1172 -0.0148
 2696W        W19543   8.926   9.482  12.330  0.0414  0.0016  0.3060
 2697W        W19544  14.874   9.220  10.947  0.0296 -0.0899  0.0748
 2698W        W19545   7.647  13.068   3.009 -0.0425  0.2193 -0.2733
 2699W        W19546   5.278   9.434  15.798 -0.0056 -0.0078  0.1301
 2700W        W19547  15.786   3.602  15.121  0.0214  0.2688 -0.1056
 2701W        W19548   2.870   1.834  13.172 -0.0964  0.0128 -0.0891
 2702W        W19549   1.156  13.200  12.742 -0.2644  0.3973  0.0100
 2703W        W19550   2.375  15.626   1.644 -0.1133  0.0446 -0.0883
 2704W        W19551   5.324   8.664  13.223 -0.1939  0.3321 -0.1325
 2705W        W19552   7.621  16.685  12.856  0.0333 -0.2509 -0.1143
 2706W        W19553  10.892   7.827   4.193  0.3309  0.1744  0.0545
 2707W        W19554   0.828   1.304  11.757 -0.0452  0.0422 -0.3396
 2708W        W19555   8.806   0.725   2.154  0.1631  0.1900 -0.1299
 2709W        W19556  14.818   0.619   1.119 -0.1509 -0.1667 -0.1470
 2710W        W19557  13.959  15.096   1.377  0.2281 -0.1297 -0.0155
 2711W        W19558  13.760  15.947   4.081  0.0734 -0.2003  0.2911
 2712W        W19559   1.631   6.388  13.727 -0.2312  0.0487 -0.0252
 2713W        W19560  13.867   3.393   2.092  0.4012 -0.1795  0.2037
 2714W        W19561   7.438  11.143   3.707  0.3090 -0.0909  0.1103
 2715W        W19562  17.660  12.476  12.308 -0.1391  0.2218  0.0887
 2716W        W19563   3.707   0.388   4.217 -0.0027  0.2603 -0.0935
 2717W        W19564   3.922   2.261  15.254  0.0434 -0.0706 -0.0744
 2718W        W19565   9.734  15.573   3.904 -0.2426 -0.0736 -0.1741
 2719W        W19566   7.345  10.311  11.819  0.0018  0.0783  0.1962
 2720W        W19567   8.649   5.283  12.239 -0.0290 -0.2200 -0.0597
 2721W        W19568   5.191   9.024   1.933  0.2255  0.1952  0.2231
 2722W        W19569  14.890   0.613   2.643 -0.0472 -0.0420 -0.0393
 2723W        W19570   6.744   2.339   3.760  0.1578 -0.3209  0.1831
 2724W        W19571  15.665  12.000  13.540  0.1282  0.2398 -0.0517
 2725W        W19572  13.614  16.202  12.433  0.1172  0.0682 -0.1732
 2726W        W19573   9.801   4.565   2.350 -0.2220  0.0319  0.0072
 2727W        W19574  12.299   3.519   1.960 -0.0147 -0.1668 -0.0463
 2728W        W19575   7.428   1.910  14.804  0.1029 -0.3205  0.0236
 2729W        W19576   8.772   4.101  14.595  0.1428  0.2137  0.1459
 2730W        W19577  13.587  12.609  12.701  0.0357  0.1098  0.0107
 2731W        W19578  10.596  13.087  15.380  0.2670 -0.0307  0.2270
 2732W        W19579   2.932  16.130  11.600  0.0148  0.1196 -0.1352
 2733W        W19580   4.699   5.541  12.215  0.5156 -0.0515  0.2965
 2734W        W19581  14.437  13.794   1.549 -0.0912  0.1469 -0.2455
 2735W        W19582   0.747   5.571  15.675 -0.4707  0.1112  0.0508
 2736W        W19583   2.906  12.310  12.736 -0.0169  0.0970 -0.2083
 2737W        W19584  11.753  18.205   1.771 -0.1155 -0.0328  0.0877
 2738W        W19585  12.794   6.802  13.968 -0.0718 -0.0755  0.0204
 2739W        W19586  16.243   0.889   3.269  0.4113 -0.0411 -0.2765
 2740W        W19587  10.706  10.054  15.690  0.0130  0.2325 -0.2304
 2741W        W19588  10.099  17.321  12.454  0.1735  0.0322 -0.1297
 2742W        W19589   6.386   5.225  11.429  0.1486 -0.1811 -0.0381
 2743W        W19590  11.616   6.507  11.341  0.2532 -0.1820  0.1763
 2744W        W19591  13.673  12.516  14.313 -0.2852  0.0506  0.0244
 2745W        W19592  11.189   3.050  14.052  0.0475  0.1104  0.2211
 2746W        W19593   3.985   2.928   2.077  0.1057  0.0201 -0.0493
 2747W        W19594   6.960   9.722   1.623 -0.3066 -0.1446 -0.0781
 2748W        W19595   0.141  15.953   2.317 -0.1571  0.2733 -0.1042
 2749W        W19596  18.152  11.971  11.236 -0.0652 -0.1889  0.1352
 2750W        W19597   7.311  14.722  14.934  0.2280  0.1312 -0.1476
 2751W        W19598  15.123   5.995  11.313  0.1134 -0.2723 -0.0433
 2752W        W19599   1.057  14.558  13.397 -0.0371  0.1987 -0.1979
 2753W        W19600   3.635  13.557  15.537  0.2241  0.2050 -0.0444
 2754W        W19601   1.529   1.744   1.531 -0.1432  0.1189  0.2488
 2755W        W19602   4.056   7.377  12.538  0.0941  0.0366 -0.1490
 2756W        W19603   6.804   0.678   1.435 -0.1600  0.2752 -0.1139
 2757W        W19604   9.026  17.742  11.905  0.1560  0.0306  0.1319
 2758W        W19605   9.384   0.172   2.798 -0.0246 -0.1336 -0.0701
 2759W        W19606  16.003   2.355   1.652 -0.0616  0.4399  0.2355
 2760W        W19607   6.487  17.623   0.878 -0.0229  0.0979 -0.2147
 2761W        W19608  12.867   4.502  14.192 -0.2163  0.0607 -0.0926
 2762W        W19609   9.073  18.032  12.339 -0.0106 -0.0534 -0.0912
 2763W        W19610   4.329  18.291  11.691  0.0345  0.0433  0.1920
 2764W        W19611   4.176   9.909  13.474 -0.2665 -0.0732 -0.0768
 2765W        W19612   3.274  10.356   3.871 -0.2564  0.0686 -0.0337
 2766W        W19613  11.742  17.404   3.655  0.1924 -0.0855  0.1102
 2767W        W19614  10.070  12.157  11.774  0.3748 -0.2883  0.0422
 2768W        W19615  14.833   3.497   4.945 -0.0144  0.3313  0.3503
 2769W        W19616   0.907   9.631  14.842  0.0019 -0.0432  0.1281
 2770W        W19617  10.692   9.444   2.798  0.0082  0.0385 -0.1260
 2771W        W19618   3.806   0.430  11.655 -0.0748 -0.0565 -0.1867
 2772W        W19619   6.511   2.450   0.499 -0.2778 -0.1443 -0.1381
 2773W        W19620   1.733   2.284  11.740  0.0618  0.0038 -0.3029
 2774W        W19621   9.603  12.272  11.877  0.0437  0.1206 -0.1208
 2775W        W19622   7.646   1.691   3.362  0.1132  0.0865  0.0861
 2776W        W19623   2.225   6.221   2.313  0.1409  0.1210 -0.1866
 2777W        W19624  17.532   1.720   3.286  0.1168 -0.0851  0.1662
 2778W        W19625  10.791   7.554   5.060  0.1832 -0.0248 -0.1211
 2779W        W19626  11.656  10.484   2.497  0.1810  0.0883  0.1800
 2780W        W19627  13.946  12.713  14.879 -0.0488 -0.1512  0.0502
 2781W        W19628   9.450  10.408   1.722 -0.0462  0.2035 -0.1003
 2782W        W19629   6.242   0.704  11.884 -0.0527  0.1265 -0.2231
 2783W        W19630  10.417   3.043   0.855  0.2456  0.0006 -0.0748
 2784W        W19631  15.759   8.462   4.703  0.1412  0.0935  0.1804
 2785W        W19632   6.615   1.520   1.914  0.1865 -0.0250 -0.1560
 2786W        W19633   0.527   3.172   5.074  0.0857  0.0730 -0.0265
 2787W        W19634   0.433  10.037   2.445 -0.1305  0.0145 -0.0700
 2788W        W19635  10.133   6.630  11.588 -0.3562 -0.2476  0.0130
 2789W        W19636  13.904  14.495   4.648  0.2639 -0.0173  0.0286
 2790W        W19637  11.833   3.262  15.550  0.0112 -0.0756 -0.1870
 2791W        W19638  17.790   1.532  14.586  0.0747  0.1719  0.0297
 2792W        W19639  11.821  11.726   3.240  0.0053 -0.1854  0.0403
 2793W        W19640   1.462   4.601   0.517  0.0462  0.1112 -0.4340
 2794W        W19641  14.463   7.614  11.114 -0.2505  0.1782  0.0215
 2795W        W19642  13.264  10.367  11.054  0.1855 -0.0058  0.0400
 2796W        W19643  12.602   6.388   5.156  0.2954  0.1641 -0.1966
 2797W        W19644  15.881   8.166  13.340  0.0197  0.1145 -0.0723
 2798W        W19645  12.796   8.073  15.618 -0.3790 -0.0970  0.1966
 2799W        W19646   0.905   6.921  14.429 -0.1802 -0.0017  0.0658
 2800W        W19647   8.973   3.253  15.441 -0.3710  0.2063 -0.0959
 2801W        W19648   5.061  11.918   1.457 -0.0992  0.2619  0.2618
 2802W        W19649   7.787  14.661   2.323  0.0018  0.0326 -0.5690
 2803W        W19650  15.603  13.565  11.189 -0.2034  0.0257  0.2209
 2804W        W19651  15.441  14.237  12.971 -0.1671 -0.2742  0.2901
 2805W        W19652  10.724   3.583  12.023 -0.0653 -0.0194 -0.0725
 2806W        W19653  16.804   2.792   0.706 -0.0020 -0.0831 -0.0812
 2807W        W19654  17.103   1.609   1.872 -0.0326  0.2393  0.2743
 2808W        W19655   5.348   2.253   2.988  0.0586  0.3068 -0.0013
 2809W        W19656   6.093  17.820   5.171 -0.0560 -0.1922 -0.0618
 2810W        W19657  12.565  13.230   1.652 -0.0680  0.1412 -0.3939
 2811W        W19658   5.101  13.077   3.957  0.0177  0.2078 -0.0307
 2812W        W19659  10.795  11.222   3.435 -0.0884  0.1120  0.0866
 2813W        W19660   1.023  12.897  12.347  0.3531 -0.2323 -0.0613
 2814W        W19661   7.563  17.290   1.060  0.1611 -0.1614 -0.0647
 2815W        W19662  13.417   6.537   3.452 -0.4314 -0.0986  0.0259
 2816W        W19663  11.934  17.466  14.226  0.0528 -0.1714  0.1464
 2817W        W19664   6.460   8.399   4.486  0.1562  0.0528  0.0922
 2818W        W19665   4.692   7.764   3.410  0.1872  0.1980  0.0853
 2819W        W19666   6.404   7.030  14.421 -0.3218  0.0680 -0.0028
 2820W        W19667   3.734   0.032   4.646  0.3033 -0.0276  0.0959
 2821W        W19668  11.968  15.392  13.671 -0.4194  0.1259 -0.2000
 2822W        W19669   2.189  18.019  15.324 -0.0550  0.0210 -0.4455
 2823W        W19670   7.604   8.308   1.269  0.3651  0.0464  0.4107
 2824W        W19671  18.001  17.336   3.091 -0.0512  0.1670 -0.0294
 2825W        W19672   1.276   0.450  13.862 -0.1155  0.0013  0.0677
 2826W        W19673   1.222   5.841  14.542 -0.2359  0.1138  0.0501
 2827W        W19674  14.376  13.910   0.144  0.5388 -0.0435  0.1631
 2828W        W19675  16.562   0.630   5.396  0.0633 -0.1922  0.0272
 2829W        W19676   5.303  16.820  12.985  0.3494  0.2266  0.1084
 2830W        W19677  16.112  13.529   4.042  0.0248  0.0984  0.1698
 2831W        W19678  18.228   5.846   4.503 -0.0354 -0.0525 -0.1827
 2832W        W19679  11.472   0.942   4.782 -0.0163  0.0222 -0.2392
 2833W        W19680   2.635  17.662   3.592  0.0611 -0.0693 -0.0760
 2834W        W19681  16.318  16.451   0.858 -0.2455 -0.1331 -0.2334
 2835W        W19682  15.918  14.847  15.644 -0.0554  0.1434 -0.0038
 2836W        W19683   9.379   6.028   0.366  0.2596 -0.0832  0.0121
 2837W        W19684  12.900   1.710  13.560  0.0671 -0.0473 -0.1843
 2838W        W19685  14.477   0.734   4.550  0.1415  0.0026 -0.1041
 2839W        W19686   9.713  11.681   1.277 -0.2211 -0.1312 -0.0994
 2840W        W19687  17.847  12.469  13.818 -0.1367 -0.3127 -0.2759
 2841W        W19688   9.347  15.470   3.511  0.0971  0.0656 -0.0690
 2842W        W19689  15.348   4.260   0.890 -0.4116  0.4048  0.0831
 2843W        W19690   0.841   4.930  10.064  0.0729 -0.1026 -0.1421
 2844W        W19691   9.755   9.414  14.862 -0.3149 -0.2463 -0.2471
 2845W        W19692   1.532  13.963  12.329 -0.0327 -0.1196 -0.1605
 2846W        W19693  12.458   0.202   0.134  0.0315  0.1202  0.0493
 2847W        W19694   8.537   3.200   5.086 -0.0364 -0.0405  0.1087
 2848W        W19695   0.238  13.591  13.963  0.2394 -0.1882 -0.0179
 2849W        W19696  17.731  12.689   5.406 -0.0680  0.0091 -0.1103
 2850W        W19697   7.652   6.492  11.312 -0.2502 -0.2193 -0.2226
 2851W        W19698  13.899   0.812   3.721  0.2740 -0.2958  0.0476
 2852W        W19699  11.046   1.076  12.781  0.0960 -0.1041  0.1263
 2853W        W19700   3.784  17.391  11.501  0.2787  0.2593 -0.0483
 2854W        W19701   7.518   8.490  14.473 -0.0380  0.0704 -0.1373
 2855W        W19702   7.914  15.952  13.169  0.0332 -0.2720 -0.3640
 2856W        W19703  10.891  17.718   3.404  0.1171  0.2199 -0.1691
 2857W        W19704   6.037  17.358   2.166 -0.0286 -0.0489 -0.1164
 2858W        W19705   7.724  10.742  15.241  0.0807 -0.0690  0.1196
 2859W        W19706   9.142   5.008  14.977  0.1179 -0.3173 -0.1225
 2860W        W19707  11.320  11.355  11.075 -0.0143 -0.0785  0.0537
 2861W        W19708  17.350   8.747  12.960  0.3503 -0.1327 -0.1607
 2862W        W19709   0.861   8.137   0.018 -0.3981  0.0613  0.2976
 2863W        W19710  18.048   3.742  11.065 -0.1413  0.0502 -0.1465
 2864W        W19711  17.869   1.829   4.654  0.3727  0.0403 -0.1152
 2865W        W19712   6.675  13.026  15.786 -0.1329  0.1338  0.1159
 2866W        W19713  14.904  18.069   0.870 -0.1342 -0.1868  0.0308
 2867W        W19714   7.122   2.149  13.171  0.1366  0.1673  0.0845
 2868W        W19715  17.888  12.427  14.395 -0.1430  0.1661 -0.0535
 2869W        W19716  16.327  15.189   0.842  0.0183 -0.1126  0.0633
 2870W        W19717   9.969  11.503  13.473  0.1211  0.0043 -0.1246
 2871W        W19718  17.644  11.706   1.146  0.0557 -0.0772 -0.1008
 2872W        W19719  16.033   9.330  11.826 -0.0376 -0.0616  0.1471
 2873W        W19720  11.289  14.063   4.167 -0.2636 -0.0377  0.0644
 2874W        W19721  15.169   7.571   2.056  0.0166  0.0299 -0.0644
 2875W        W19722  13.763  14.312  14.031 -0.1090 -0.2330 -0.1056
 2876W        W19723  10.060   7.983   0.649 -0.2269 -0.2271  0.1347
 2877W        W19724   5.861   0.780   4.334 -0.2515 -0.1657  0.0969
 2878W        W19725  16.976   6.497   1.513  0.0878 -0.1408  0.1576
 2879W        W19726  15.635  13.025   3.487  0.1612  0.0164 -0.1821
 2880W        W19727  14.489  17.537  11.833 -0.2439  0.2298 -0.2585
 2881W        W19728   8.760   1.163   0.504  0.2363  0.0495 -0.1624
 2882W        W19729   7.556  16.410  12.429 -0.0818  0.0890  0.1250
 2883W        W19730  12.644   8.582   0.197  0.1761 -0.0947  0.0983
 2884W        W19731   1.229  18.380  13.163  0.0205 -0.1060  0.1426
 2885W        W19732  14.264   1.192   3.666 -0.0992  0.0015  0.0668
 2886W        W19733   0.053  16.389   4.530  0.1062 -0.0703  0.0785
 2887W        W19734   0.071   7.699  13.947  0.0185 -0.1527 -0.0818
 2888W        W19735  18.373   7.663  13.149 -0.0768  0.0586 -0.1344
 2889W        W19736   6.243   0.912   4.601 -0.0281  0.2615  0.0294
 2890W        W19737  13.427   2.366  11.511 -0.3049 -0.3758 -0.0264
 2891W        W19738   1.744  18.293  13.031  0.0455 -0.0438  0.0734
 2892W        W19739   3.778  17.549  13.777 -0.1870 -0.2782 -0.0843
 2893W        W19740   5.549  17.532  14.908  0.1527  0.0470  0.3230
 2894W        W19741   6.621  14.696   4.197 -0.0108 -0.0572  0.3184
 2895W        W19742  13.687   6.959   3.783 -0.0255 -0.0304 -0.2135
 2896W        W19743   5.440   4.863   0.992  0.1974 -0.0960  0.0185
 2897W        W19744   3.265   3.365   3.481  0.1144 -0.0788 -0.1659
 2898W        W19745  12.122  12.124  12.484 -0.2126 -0.4471  0.0657
 2899W        W19746   1.907   6.178   4.058  0.1197  0.1568  0.1545
 2900W        W19747  12.114   4.561   3.601 -0.3531 -0.1970  0.1738
 2901W        W19748   0.992   3.299   4.806  0.0266 -0.4133  0.0617
 2902W        W19749  15.391   0.384   5.299  0.2539 -0.0487  0.0168
 2903W        W19750   2.173   8.183  13.809  0.2890 -0.0380  0.2036
 2904W        W19751   3.572  17.475   1.604 -0.0340 -0.0445  0.2309
 2905W        W19752   9.291  13.062   3.172 -0.0854 -0.1319  0.0627
 2906W        W19753   6.209  11.616   4.423  0.1095  0.1421  0.1602
 2907W        W19754  14.881  15.379  11.631 -0.0887 -0.1084  0.0512
 2908W        W19755   7.552  13.180   1.201 -0.0317 -0.1095  0.0312
 2909W        W19756  16.030  12.611   3.424  0.1210 -0.1396 -0.1220
 2910W        W19757  11.113   8.821  15.830 -0.2495 -0.3130 -0.1561
 2911W        W19758  12.720   1.234   3.845  0.1751  0.0267 -0.4570
 2912W        W19759   8.678  15.742   2.225  0.2406  0.0218  0.1337
 2913W        W19760   2.063   2.943   1.111  0.3709  0.1699  0.0361
 2914W        W19761  16.134  12.834   5.785  0.1805  0.0736 -0.0943
 2915W        W19762   7.447  10.066  13.054 -0.2829 -0.0220 -0.1257
 2916W        W19763   8.883  14.746   4.170 -0.0210  0.2944 -0.2156
 2917W        W19764   5.082  10.845   5.043  0.2366  0.0026  0.1720
 2918W        W19765  14.287   9.121   0.885  0.0150  0.0733  0.2213
 2919W        W19766   4.266  10.263  12.601  0.1947  0.2068  0.3597
 2920W        W19767   1.010   7.623   2.386 -0.0318  0.0643  0.1921
 2921W        W19768  13.783   2.371  14.990  0.1357  0.1264 -0.2320
 2922W        W19769   8.666   5.604   3.457  0.1105  0.2458  0.3019
 2923W        W19770   9.145  13.049   2.260  0.1346  0.1360  0.0983
 2924W        W19771  10.436  14.862  14.311 -0.2803  0.2991 -0.2214
 2925W        W19772   3.448   3.237   4.591 -0.0040  0.3608  0.1258
 2926W        W19773   9.165  15.133   4.381 -0.0449 -0.2026 -0.2901
 2927W        W19774   0.427  13.555   4.545 -0.0050  0.0560  0.0664
 2928W        W19775   8.471   4.536   2.236 -0.0278 -0.0744  0.1007
 2929W        W19776   2.597   1.454  10.308 -0.1910  0.1491 -0.0965
 2930W        W19777  17.723  11.815   6.013  0.0806  0.2451 -0.0674
 2931W        W19778   5.458   6.059   2.742  0.3039 -0.0364 -0.0802
 2932W        W19779  14.328   7.654   3.808  0.3514 -0.4525  0.0354
 2933W        W19780  15.308   2.798  14.707 -0.4676 -0.1722  0.1760
 2934W        W19781   5.830  16.782   2.852  0.2302 -0.3034 -0.1917
 2935W        W19782   1.875   3.403  11.111 -0.0703 -0.1613 -0.1439
 2936W        W19783   1.888  15.867   0.261 -0.0529  0.2345 -0.0266
 2937W        W19784   1.699  16.319  12.577  0.3073  0.4307  0.4246
 2938W        W19785   2.541   6.323  12.794  0.1945 -0.0425 -0.0223
 2939W        W19786   4.765  15.036   0.802 -0.0810 -0.2840  0.1537
 2940W        W19787  12.761   4.550  14.664  0.0529  0.1544  0.0780
 2941W        W19788  15.542   5.839   2.247 -0.0589  0.0754 -0.0141
 2942W        W19789  17.718   9.048  13.467 -0.1869 -0.0257  0.2439
 2943W        W19790  13.650   7.802  10.903  0.0935 -0.3549 -0.0720
 2944W        W19791  15.729   2.793   3.621 -0.1890 -0.3077  0.0388
 2945W        W19792  11.735  15.514  13.190 -0.1371 -0.0370 -0.0358
 2946W        W19793  17.823   4.760   6.362  0.0953  0.1734 -0.1712
 2947W        W19794   5.971   3.695   2.884  0.0457 -0.1770  0.1691
 2948W        W19795  10.343  12.159  13.862 -0.1901  0.1371 -0.0087
 2949W        W19796  11.412   8.094   3.480  0.2606  0.3501  0.0216
 2950W        W19797  17.769   8.066   2.815  0.1035  0.1150  0.4821
 2951W        W19798   8.039  10.358  10.510 -0.1435 -0.0350  0.0046
 2952W        W19799   0.513   7.995  14.552  0.1170  0.0184  0.2525
 2953W        W19800  18.020   5.510   5.872  0.1711  0.1050 -0.2215
 2954W        W19801  16.011   9.214  13.006  0.0827  0.2998  0.3344
 2955W        W19802  15.330   8.245  12.670  0.4121  0.0192 -0.3414
 2956W        W19803   2.601   2.794  11.878  0.1977  0.3243  0.1076
 2957W        W19804   0.154   4.796   5.708  0.0553  0.2698  0.0025
 2958W        W19805  10.447   1.678  11.761 -0.1189 -0.1825  0.1552
 2959W        W19806  12.299  17.466  15.128 -0.1206 -0.0469 -0.1280
 2960W        W19807  12.519   7.971  12.337 -0.0279  0.1024  0.1259
 2961W        W19808   0.619  10.710   2.428 -0.0643 -0.4064 -0.2560
 2962W        W19809   1.049  17.850  13.072 -0.1096 -0.1572 -0.2194
 2963W        W19810   3.362   1.286  13.322 -0.2988 -0.3501 -0.2123
 2964W        W19811  15.919   0.344  11.733 -0.0358  0.3659 -0.0164
 2965W        W19812  12.903   5.745   5.490 -0.0824 -0.1134  0.1107
 2966W        W19813  17.514   4.968   3.396 -0.0244 -0.1952  0.4015
 2967W        W19814   9.160   6.155   0.917 -0.4004 -0.0705 -0.2459
 2968W        W19815   6.954  10.155  15.240 -0.2990 -0.0285 -0.1441
 2969W        W19816   0.008  16.861  14.055  0.3508  0.0445 -0.1973
 2970W        W19817   3.374   5.488  14.945 -0.0921 -0.0118  0.1995
 2971W        W19818   1.648   4.147   4.123  0.3280  0.0942 -0.1562
 2972W        W19819   5.416  10.883   0.635  0.3202 -0.3818  0.0518
 2973W        W19820  18.374  15.069   1.260 -0.1594  0.0767 -0.2504
 2974W        W19821   5.694  18.316   5.206 -0.2297 -0.0676  0.0534
 2975W        W19822   3.724   4.562  11.482 -0.1566 -0.1833 -0.3263
 2976W        W19823  12.089   3.858   2.262 -0.2164 -0.0756 -0.2440
 2977W        W19824   9.220   8.209   3.227 -0.2339  0.0246 -0.2723
 2978W        W19825  11.200  18.189  12.292 -0.1918  0.1342  0.1547
 2979W        W19826   0.971  14.353  15.627  0.0866  0.0247 -0.2045
 2980W        W19827   0.779  18.357   4.427  0.0701 -0.0876  0.2064
 2981W        W19828  11.826  15.716  12.322 -0.0442  0.0398 -0.0553
 2982W        W19829  14.970   9.328  13.921 -0.1573  0.0536  0.1352
 2983W        W19830  16.488   8.420   0.231 -0.1484 -0.0606 -0.1288
 2984W        W19831   6.917  16.238  14.362 -0.1391 -0.0606  0.2297
 2985W        W19832  15.854   1.977   5.230 -0.1252 -0.1659  0.1189
 2986W        W19833   0.377   8.379  11.465 -0.1086  0.0435  0.0806
 2987W        W19834  14.509   8.453   0.006 -0.2278  0.3597 -0.0392
 2988W        W19835   2.999  11.467  12.501  0.1165  0.2893 -0.0403
 2989W        W19836  11.939  13.813   6.033  0.0747 -0.0122 -0.0742
 2990W        W19837   3.186  17.783  15.103  0.1899 -0.1045 -0.0936
 2991W        W19838  12.425   5.758  11.032  0.0762  0.0242 -0.0171
 2992W        W19839  17.851  16.911  13.293 -0.1641 -0.0920  0.0859
 2993W        W19840  11.806  18.516   2.192  0.1407  0.1942 -0.2369
 2994W        W19841  15.531  13.026   2.930  0.1373 -0.2336 -0.0241
 2995W        W19842  13.015   8.033  12.565  0.0443  0.0829 -0.0259
 2996W        W19843  16.949   4.040   2.750  0.0114  0.0112 -0.0848
 2997W        W19844  16.163   6.856  11.903  0.0846  0.2099 -0.0223
 2998W        W19845  16.903   0.090   0.078  0.0309  0.2617 -0.0072
 2999W        W19846   6.301  14.494   1.708 -0.2519 -0.0464  0.2109
 3000W        W19847   7.558  18.519   4.043 -0.2067 -0.1264 -0.1822
 3001W        W19848  15.645   9.299  10.945 -0.2164  0.1221 -0.2648
 3002W        W19849   5.270  17.296   3.840 -0.0516 -0.0434 -0.1640
 3003W        W19850  10.065   3.922  14.660 -0.0833  0.0302 -0.0499
 3004W        W19851   4.541   7.132  13.528 -0.0381 -0.2395  0.3603
 3005W        W19852  16.936  17.508  11.543 -0.1624 -0.3186 -0.2007
 3006W        W19853  18.432  10.543   0.030  0.1209 -0.2992  0.1930
 3007W        W19854   7.420   3.345  13.059  0.0103 -0.0246  0.0185
 3008W        W19855  13.588   4.168  13.773  0.1088  0.0846 -0.0465
 3009W        W19856  18.272   2.451  11.702 -0.2404  0.3626 -0.1001
 3010W        W19857   2.774  17.792   3.163  0.1866 -0.1991  0.0884
 3011W        W19858   1.460   9.115   3.199 -0.4971  0.1893 -0.1103
 3012W        W19859  11.518  15.088  15.286  0.0893 -0.2980  0.2447
 3013W        W19860   8.584  12.538  11.613  0.1597 -0.0097 -0.0984
 3014W        W19861   8.502  11.419  12.946 -0.1004 -0.1702  0.1554
 3015W        W19862  12.953   7.422  14.592 -0.1089  0.1767  0.0498
 3016W        W19863  14.178   0.334   1.957 -0.0023 -0.2457  0.0845
 3017W        W19864   1.221  17.004   4.269  0.2098  0.0862  0.0731
 3018W        W19865   9.536   3.961   3.115 -0.0574 -0.1163  0.0127
 3019W        W19866  14.896   9.816  14.005  0.0116  0.0606 -0.0401
 3020W        W19867   1.451  15.730   2.952  0.2486 -0.1272 -0.0941
 3021W        W19868   0.630   0.257   0.645  0.0983  0.2345 -0.0330
 3022W        W19869   8.761   4.852  10.794  0.0421  0.2573  0.4141
 3023W        W19870  16.337   1.057   4.675 -0.3221 -0.1996  0.1566
 3024W        W19871  11.957  14.635  13.324 -0.0694  0.0145  0.3269
 3025W        W19872   8.565  14.946   0.115 -0.0235  0.2075  0.1879
 3026W        W19873  14.462   7.721   2.451  0.0985 -0.1056  0.2211
 3027W        W19874  11.424  15.951   2.821 -0.1812 -0.1835  0.2118
 3028W        W19875  15.652   0.146   0.776 -0.0421 -0.1383 -0.3894
 3029W        W19876  14.211  18.500   4.806  0.0657  0.0298  0.1835
 3030W        W19877  12.995   9.210  14.522 -0.1680 -0.0009  0.0583
 3031W        W19878  15.222   8.675  11.560  0.1280  0.1022  0.1038
 3032W        W19879  18.350   0.005   3.800 -0.0089  0.0913  0.1084
 3033W        W19880  17.309  10.907   3.329 -0.1200  0.1964 -0.0844
 3034W        W19881  17.437   7.854   5.003  0.1168  0.1407 -0.0794
 3035W        W19882   2.538   9.433   6.200 -0.1864  0.0164  0.0141
 3036W        W19883   0.117  18.467  13.328  0.1109  0.1478  0.0431
 3037W        W19884  13.100  13.708  12.973  0.1391  0.2308  0.7211
 3038W        W19885   7.942   2.938  13.715 -0.0651  0.1136 -0.0195
 3039W        W19886   8.297  15.419  13.804 -0.3481  0.1881 -0.0040
 3040W        W19887  12.560  13.794   4.136 -0.0839 -0.0119 -0.1244
 3041W        W19888   7.189  17.376  10.766  0.0845  0.0708  0.1758
 3042W        W19889   2.943  13.589   0.713  0.0027 -0.2036  0.1516
 3043W        W19890   7.184  16.078  15.522 -0.2335 -0.0036 -0.0472
 3044W        W19891  18.538   2.597   4.017  0.1484 -0.2565 -0.0330
 3045W        W19892   5.955   2.624   4.760  0.2413  0.0793  0.0456
 3046W        W19893   1.326  15.290  15.547  0.1871  0.1127  0.0227
 3047W        W19894   6.155   0.347  15.816  0.0532  0.1201 -0.0010
 3048W        W19895   5.097  18.125   5.192  0.0249  0.0194 -0.1433
 3049W        W19896  12.540  10.583   4.436 -0.3305  0.1718  0.1100
 3050W        W19897  12.521   0.969   3.318 -0.1262 -0.3075 -0.1571
 3051W        W19898  16.306  14.405   4.342 -0.0136 -0.2153 -0.0190
 3052W        W19899   5.447   4.003  11.467  0.1962  0.0818  0.0371
 3053W        W19900  18.490   7.330  15.913  0.0327  0.0368 -0.2215
 3054W        W19901   1.509  16.184   0.694  0.4138 -0.1268  0.0098
 3055W        W19902   1.083   3.938  11.591 -0.1479  0.0086 -0.1427
 3056W        W19903  12.658  11.417  14.243  0.2462  0.3098  0.4061
 3057W        W19904  16.264   6.060   1.147 -0.2536  0.0193  0.0343
 3058W        W19905   7.308  13.865   3.447  0.3932 -0.0522 -0.2451
 3059W        W19906   9.431   4.569  15.088 -0.0687 -0.0331  0.0595
 3060W        W19907   8.709   5.907  12.717 -0.0618  0.0656 -0.2368
 3061W        W19908   5.798   5.205   1.689 -0.2472 -0.2272 -0.2249
 3062W        W19909  15.533  10.634  11.890  0.1890  0.1684 -0.0148
 3063W        W19910  12.826  15.695   4.551  0.1630  0.1181  0.1511
 3064W        W19911  15.793  15.842   2.009  0.2807 -0.0119  0.2281
 3065W        W19912  17.376  17.727   5.111  0.3247  0.0946  0.0180
 3066W        W19913  16.143   9.943  14.661 -0.3886  0.3531  0.2749
 3067W        W19914  13.096   8.609   3.374 -0.4280  0.1450  0.1733
 3068W        W19915   3.682  10.342  12.542 -0.1754  0.2311 -0.1343
 3069W        W19916  18.272  17.363   3.552  0.2271  0.2864 -0.0220
 3070W        W19917   9.515   5.113  14.663  0.2745 -0.0881 -0.3187
 3071W        W19918   3.148   6.888  11.631  0.0157 -0.1221 -0.2305
 3072W        W19919   6.076   3.182  13.542  0.1580  0.1069 -0.1775
 3073W        W19920  17.897  14.380  13.780 -0.2436 -0.0331  0.2050
 3074W        W19921   7.820  11.843  14.940  0.0667  0.0128  0.0962
 3075W        W19922  10.973   6.864   1.358 -0.1498  0.1050  0.1078
 3076W        W19923   3.627  14.450   2.538 -0.2351 -0.0743  0.1089
 3077W        W19924  18.121  11.906   1.083  0.4223 -0.1531 -0.2804
 3078W        W19925  15.565   0.609  13.943  0.1273  0.0557 -0.0952
 3079W        W19926   6.071  10.114   2.043 -0.0853  0.2027 -0.2076
 3080W        W19927  14.652   1.120   2.901 -0.3487 -0.4264  0.3508
 3081W        W19928  15.658   5.244  13.972  0.2408  0.1770 -0.0137
 3082W        W19929  15.439  15.566   1.500  0.2416  0.3207  0.4068
 3083W        W19930   0.287   1.603   0.035  0.0658  0.0773 -0.1060
 3084W        W19931  16.383  12.075   5.976 -0.0127 -0.0333 -0.0629
 3085W        W19932  11.108  15.389   4.200 -0.0302  0.0202  0.1533
 3086W        W19933  16.215  15.532   4.675 -0.1486 -0.2463 -0.1020
 3087W        W19934   9.693  13.176   3.663  0.2697  0.2738 -0.1097
 3088W        W19935  15.840  17.538  13.004 -0.1091  0.1939  0.1216
 3089W        W19936   5.834  14.916   2.964  0.2992  0.2081 -0.1472
 3090W        W19937   5.658   4.344  11.223  0.1280  0.0614  0.0850
 3091W        W19938   3.026  10.540   2.166  0.0682  0.0498  0.0015
 3092W        W19939   4.339   3.143   3.027  0.2093 -0.0546  0.0596
 3093W        W19940   7.489  10.088  15.394  0.4983  0.2976 -0.2793
 3094W        W19941  17.063  17.293   3.021  0.0175 -0.0514  0.1207
 3095W        W19942  13.190  14.159   0.247 -0.1043  0.1857 -0.1341
 3096W        W19943   6.850   0.910   3.251 -0.3343  0.4812  0.3061
 3097W        W19944  12.718   3.996   1.928  0.2132 -0.0037 -0.0532
 3098W        W19945  17.682   3.275   2.632  0.2063  0.0302 -0.0407
 3099W        W19946  15.905   7.785  15.239 -0.0682  0.2854 -0.0503
 3100W        W19947  11.078   8.905  11.628 -0.2278 -0.1467  0.1592
 3101W        W19948  13.217  16.444  15.930  0.0558  0.0775  0.0365
 3102W        W19949   7.849   5.764   0.608  0.1718 -0.2231  0.2784
 3103W        W19950  18.443   4.407  12.081 -0.1895 -0.4170 -0.1646
 3104W        W19951   9.649   4.582   5.031  0.2179  0.0752  0.0151
 3105W        W19952  16.383  10.829   0.625  0.0273  0.0070  0.2535
 3106W        W19953   1.354  11.758   5.757  0.1141  0.1012  0.0041
 3107W        W19954  15.356   0.148  14.079  0.2339 -0.0637 -0.0913
 3108W        W19955  11.253   8.336  12.283  0.1065 -0.1844  0.1485
 3109W        W19956  15.635  17.930  12.719 -0.1603  0.0598  0.0749
 3110W        W19957  13.580  17.484   0.785  0.0860 -0.1166  0.3106
 3111W        W19958  10.963   8.974   2.604  0.1687  0.1238 -0.0305
 3112W        W19959   0.145   7.231  13.116  0.2907 -0.0235 -0.0258
 3113W        W19960   3.625   9.473   3.639 -0.2012  0.2918  0.2009
 3114W        W19961  16.861   8.730  14.947 -0.0207 -0.0800  0.0831
 3115W        W19962   5.858  15.109  11.363 -0.0799  0.0562  0.4822
 3116W        W19963   8.178  15.388  15.922 -0.0613  0.1235  0.2695
 3117W        W19964   8.305  12.639  14.918  0.1253 -0.0396 -0.1636
 3118W        W19965   3.148  14.054  14.707 -0.0902  0.2118  0.2661
 3119W        W19966   9.574  16.410   4.638  0.1920 -0.0407  0.1044
 3120W        W19967   3.036   9.254   1.362 -0.1652  0.0342 -0.1651
 3121W        W19968   3.303   9.389   3.233  0.0839  0.0394  0.0691
 3122W        W19969   6.003  11.162   1.305 -0.0993 -0.2186 -0.4109
 3123W        W19970  13.699  17.911   2.534 -0.0644  0.1580  0.0025
 3124W        W19971   4.906  15.050   2.717 -0.0662 -0.1670  0.3907
 3125W        W19972  17.063  15.138   1.880  0.0758  0.1437 -0.1856
 3126W        W19973  17.941   6.553   3.856 -0.2389  0.2029 -0.2616
 3127W        W19974  16.082  17.126  13.261 -0.1215  0.0808  0.1215
 3128W        W19975  14.198  12.301   3.420 -0.1412  0.3926 -0.0929
 3129W        W19976  13.796   6.231  11.461 -0.0866 -0.3066 -0.2523
 3130W        W19977   7.752   0.412   1.264  0.3231  0.0970 -0.1328
 3131W        W19978  10.376  11.650  14.378 -0.2256  0.2111 -0.0319
 3132W        W19979  14.182  16.421  14.249 -0.4253 -0.1172 -0.1302
 3133W        W19980   4.031   3.252  12.923  0.0024 -0.2352  0.0986
 3134W        W19981  18.341  12.713  12.696  0.0332  0.0732  0.1862
 3135W        W19982   6.640  16.545   3.384 -0.1904  0.1286  0.0088
 3136W        W19983   8.281  14.544   6.069 -0.0252  0.2629 -0.0869
 3137W        W19984   4.284  12.949  15.502  0.0392  0.3656 -0.0577
 3138W        W19985   1.348   2.200  13.180  0.2282 -0.0257  0.1284
 3139W        W19986  15.782   3.006   5.345 -0.1076 -0.0127 -0.2084
 3140W        W19987  12.601   4.788  12.168  0.0986 -0.1727  0.4574
 3141W        W19988  14.009  17.928   0.203  0.1702  0.1493 -0.0580
 3142W        W19989   8.101  16.612   4.541 -0.0422  0.0443  0.1646
 3143W        W19990  15.643  13.806  15.047 -0.1599 -0.0721 -0.3320
 3144W        W19991   2.744  12.230  12.281  0.0886 -0.1427  0.0869
 3145W        W19992   5.103  16.535  12.153 -0.0879 -0.0722  0.2921
 3146W        W19993   6.974   7.372   3.340 -0.4162 -0.0776  0.1916
 3147W        W19994  10.109  10.365  11.756  0.1002  0.1780 -0.1336
 3148W        W19995   6.334   8.917   3.525  0.2728  0.0536  0.0434
 3149W        W19996  18.477   6.414   4.589  0.1427 -0.0771  0.0494
 3150W        W19997   2.670   3.729   4.095  0.2284  0.0291 -0.5722
 3151W        W19998  16.555  14.251  13.897  0.0451  0.0506 -0.2653
 3152W        W19999   5.029   9.862   2.255 -0.0140  0.1104  0.1905
 3153W        W20000  15.536  16.877  15.805 -0.3734  0.4817  0.0142
 3154W        W20001  15.632   3.378  13.646 -0.0493 -0.3573  0.0446
 3155W        W20002  11.198  16.098   1.856  0.1235 -0.4054  0.1664
 3156W        W20003  15.820  13.951   0.085  0.0090  0.2367 -0.2394
 3157W        W20004  14.291   0.607   2.423 -0.1426 -0.1801 -0.1295
 3158W        W20005  14.046   9.013  12.579  0.0168 -0.2610 -0.0371
 3159W        W20006   4.844   3.953   0.663  0.0233  0.0139 -0.2246
 3160W        W20007  14.238  13.900   2.011 -0.0015  0.1204  0.1017
 3161W        W20008   7.728   8.115   2.705 -0.0608  0.0178 -0.1812
 3162W        W20009  14.568   7.252  12.683  0.4642 -0.1635 -0.1259
 3163W        W20010   8.950   4.069   0.953  0.0255  0.0307  0.0723
 3164W        W20011   8.275   1.526  15.334  0.0767 -0.1960  0.1856
 3165W        W20012   4.941  12.680   5.422 -0.2530 -0.1402  0.2336
 3166W        W20013   8.415   7.091   1.245 -0.3866 -0.3810  0.2714
 3167W        W20014   7.708   3.335   0.428  0.2252  0.0003 -0.1973
 3168W        W20015  11.481  17.794  13.421 -0.2263 -0.0714 -0.0680
 3169W        W20016  17.372  10.855   2.763 -0.1536  0.1916  0.2103
 3170W        W20017  13.026   5.679  13.206  0.0815  0.1468 -0.1528
 3171W        W20018  13.215   7.752  10.758  0.4696 -0.0905  0.0334
 3172W        W20019  11.154   9.040   1.712  0.0658 -0.3842  0.0120
 3173W        W20020  16.353   3.767   5.303 -0.2784 -0.0945  0.0375
 3174W        W20021   7.065   3.512  10.958  0.0975 -0.2192 -0.0185
 3175W        W20022   9.659  16.005  13.820  0.0625 -0.2081  0.1486
 3176W        W20023  14.995  15.563   3.134  0.1038  0.2031  0.0584
 3177W        W20024   6.664  12.376   5.652  0.0961 -0.1650 -0.0779
 3178W        W20025   8.228  10.960   3.401  0.2392  0.0950 -0.1321
 3179W        W20026   1.096  13.151   2.442  0.1627  0.1751  0.4774
 3180W        W20027   5.845  15.717   1.487  0.1419  0.0060  0.1724
 3181W        W20028   7.983  13.197   4.383 -0.0854  0.0715  0.1495
 3182W        W20029   4.541  16.603   1.713  0.0937 -0.1362 -0.0276
 3183W        W20030   9.372   8.591   2.466 -0.0645  0.0162 -0.1180
 3184W        W20031  14.773   1.059  11.693  0.0974 -0.1552  0.0779
 3185W        W20032  16.992   9.621   4.126  0.2881  0.0375  0.1982
 3186W        W20033  10.187   7.186  10.715 -0.1233 -0.0630 -0.2801
 3187W        W20034  17.884  17.246  14.162  0.1086  0.0329  0.0404
 3188W        W20035   4.929   6.408   0.765  0.0172 -0.3708 -0.1230
 3189W        W20036   8.748   7.477   4.113  0.1907  0.1140 -0.0151
 3190W        W20037   0.829  14.105  13.147  0.1852 -0.1278 -0.1496
 3191W        W20038  13.535   1.537  12.729 -0.1583  0.3513 -0.1672
 3192W        W20039  12.557   4.767   2.626 -0.2233 -0.0404  0.1192
 3193W        W20040  17.443  17.239   3.878  0.1248 -0.0827  0.1803
 3194W        W20041   4.302   8.311  13.030  0.2432 -0.1027 -0.2958
 3195W        W20042  11.499   4.419   0.529  0.0107 -0.0675 -0.1590
 3196W        W20043   3.814  12.487  15.442 -0.2801  0.0607 -0.0668
 3197W        W20044   8.118   2.296   1.238  0.1914 -0.1747  0.0616
 3198W        W20045  13.247  16.608   5.587  0.0544 -0.1150  0.0459
 3199W        W20046   2.445  15.910  12.302  0.2019 -0.0680 -0.0321
 3200W        W20047   7.655   0.342   3.686 -0.0287  0.1812  0.2324
 3201W        W20048   0.524  15.414   2.007 -0.2930 -0.2431 -0.0411
 3202W        W20049  18.331  18.473   2.189  0.1936 -0.0838 -0.3288
 3203W        W20050  13.889   5.764   0.011 -0.1740 -0.0748 -0.1482
 3204W        W20051   1.515   6.649  11.367 -0.0485  0.0512  0.2812
 3205W        W20052  11.156  12.301  13.534  0.0562  0.0774  0.1428
 3206W        W20053   2.486   9.603  11.610  0.0140  0.0818  0.0533
 3207W        W20054   5.383  10.025  13.809 -0.4476 -0.1908  0.1883
 3208W        W20055  12.539   8.695  10.091  0.4876 -0.0015  0.0586
 3209W        W20056  13.261   0.760  12.020  0.0346  0.0662  0.2982
 3210W        W20057  11.955   9.306   5.480  0.0184 -0.1000 -0.4109
 3211W        W20058   0.633   4.655   1.119  0.2058 -0.3369  0.2209
 3212W        W20059  18.248  15.810   0.516 -0.1256 -0.1463  0.1870
 3213W        W20060  18.336  17.447  12.261  0.0267 -0.4483 -0.0734
 3214W        W20061   5.425  13.489   0.031 -0.0293 -0.0286 -0.0129
 3215W        W20062  14.939   2.502   4.056 -0.1872 -0.3411 -0.0917
 3216W        W20063  12.816   9.195  10.456  0.4111  0.1547  0.2589
 3217W        W20064  17.408  14.698   1.907  0.0333  0.0702 -0.0934
 3218W        W20065  16.629  13.680   0.722  0.1990 -0.2291  0.0368
 3219W        W20066   6.870   2.021  13.563  0.1723 -0.0432 -0.1327
 3220W        W20067   4.261  15.502  14.172  0.3599 -0.1112 -0.2970
 3221W        W20068  14.423  14.307   6.069 -0.0014  0.0836  0.1258
 3222W        W20069   0.664   1.232   0.141 -0.3780  0.0735  0.1745
 3223W        W20070  10.807   7.703  15.884  0.2238 -0.0509 -0.0072
 3224W        W20071   3.158  14.621  11.634  0.3769  0.0644 -0.2368
 3225W        W20072   2.573   8.685   2.506  0.0623 -0.3325 -0.0721
 3226W        W20073   5.196  18.213   2.592  0.2861 -0.1584 -0.0943
 3227W        W20074   9.142  16.175   1.012 -0.3243 -0.1004 -0.0535
 3228W        W20075  17.865   2.108  12.551  0.1592 -0.1010 -0.1439
 3229W        W20076   9.526  17.001  13.016 -0.2659  0.1744 -0.3115
 3230W        W20077  11.168  12.728  14.451 -0.0644  0.1901 -0.1943
 3231W        W20078   7.138   3.110  12.086  0.0216 -0.0576 -0.1264
 3232W        W20079   5.517   9.101   1.568 -0.3284 -0.0874 -0.2394
 3233W        W20080  15.886   9.122  11.309  0.0798  0.0586  0.3206
 3234W        W20081  14.170   2.209   5.313 -0.1393 -0.0127  0.1364
 3235W        W20082   5.167   7.889  12.838  0.2211  0.0561 -0.0431
 3236W        W20083  18.340   0.707   1.589 -0.3179 -0.1981 -0.2660
 3237W        W20084  13.030  12.695  11.170 -0.5353  0.1347 -0.0630
 3238W        W20085   3.562  12.897   1.833 -0.0644  0.1385  0.0200
 3239W        W20086   6.288  11.567   1.350 -0.0486 -0.1642 -0.3994
 3240W        W20087  12.186  18.269  15.390  0.0713 -0.1718  0.0263
 3241W        W20088  12.774   8.195   4.563  0.1127  0.0305  0.0511
 3242W        W20089  15.546   5.794   1.193  0.1776  0.2875 -0.0026
 3243W        W20090   6.219  12.999  15.600  0.1265  0.0720  0.1929
 3244W        W20091   0.365  12.485  14.407  0.2009  0.1556  0.0477
 3245W        W20092  16.968   4.619   5.575 -0.1742  0.0428 -0.2186
 3246W        W20093   4.235   6.019   3.357 -0.2744 -0.0539  0.0041
 3247W        W20094   5.996   5.257  14.551  0.1588 -0.2727 -0.0731
 3248W        W20095   2.549   9.451   4.220  0.0115 -0.0772 -0.2228
 3249W        W20096   5.564  13.403   2.890  0.2511 -0.0005 -0.2044
 3250W        W20097   5.884  18.303   1.291  0.1816 -0.0089  0.3408
 3251W        W20098  12.520  18.332   3.536  0.0965 -0.1700 -0.1203
 3252W        W20099  11.732  10.869   1.517 -0.1578 -0.1773 -0.0281
 3253W        W20100   2.335   0.025   5.559  0.2535  0.2288 -0.1634
 3254W        W20101  17.315  12.649   2.628  0.4096 -0.1901  0.0120
 3255W        W20102   3.381   5.130  15.726  0.0613 -0.0862 -0.4185
 3256W        W20103   2.694   3.428   5.895 -0.1136  0.2960  0.0381
 3257W        W20104  15.742  13.419   2.407 -0.0088 -0.0259  0.0451
 3258W        W20105  14.746  13.273  14.716 -0.0291 -0.0983 -0.4006
 3259W        W20106  18.278   8.046   3.747 -0.1434  0.1546  0.2675
 3260W        W20107  12.849   6.366  13.719 -0.4673 -0.1413 -0.0006
 3261W        W20108  16.203   0.093   0.810 -0.1461 -0.2798  0.0663
 3262W        W20109  15.481   4.049  15.096  0.0019 -0.1911  0.0553
 3263W        W20110  15.950  12.274  15.746 -0.3306 -0.1367 -0.1482
 3264W        W20111   8.146  14.938   5.853 -0.0146  0.1158 -0.1909
 3265W        W20112   9.018   1.866   5.403  0.0907 -0.1013  0.3449
 3266W        W20113  17.610  11.468  13.164  0.1658 -0.2018 -0.3313
 3267W        W20114   4.236   8.788   0.305  0.2542  0.3218  0.0673
 3268W        W20115  16.879   1.554   2.490  0.0975  0.1116  0.3617
 3269W        W20116  14.840  15.759   1.646  0.2547 -0.1207  0.1971
 3270W        W20117   4.271   2.718  15.105 -0.3187  0.2865  0.1945
 3271W        W20118   3.542  14.384   3.553 -0.0441  0.0004 -0.0335
 3272W        W20119  13.284   4.354  14.445  0.0201  0.0465  0.1143
 3273W        W20120  17.683   9.953   2.570  0.0083  0.0054 -0.3490
 3274W        W20121   4.797   0.336  14.578  0.1903 -0.0243  0.0544
 3275W        W20122  15.561   1.196  15.579  0.1567  0.3295  0.0915
 3276W        W20123  10.507   1.312  14.816  0.3541 -0.0304  0.0792
 3277W        W20124  12.156  13.451  12.422 -0.0886  0.0284  0.0624
 3278W        W20125   0.731   9.787  13.394  0.0029  0.1615 -0.0896
 3279W        W20126  17.015   9.276   1.271  0.0852  0.2843  0.2183
 3280W        W20127   8.981  13.403  13.756 -0.4579  0.0133 -0.5516
 3281W        W20128  15.584  10.424   5.321  0.2580 -0.0299  0.1304
 3282W        W20129   5.079  13.878   1.389  0.1339 -0.2218  0.1653
 3283W        W20130   1.198   2.865  13.213  0.0208  0.0974  0.2064
 3284W        W20131   1.869   5.545  13.883 -0.0225  0.0344  0.2370
 3285W        W20132   9.549   9.127  11.296  0.2257  0.1125  0.2495
 3286W        W20133  18.176  10.337   1.844  0.1829  0.0495  0.2352
 3287W        W20134  13.228  15.763  13.466 -0.1176 -0.1048  0.0097
 3288W        W20135  16.606  14.180   0.898  0.0502 -0.4135 -0.0574
 3289W        W20136  11.479   1.563   0.269 -0.3180  0.0236  0.0263
 3290W        W20137   0.038   7.892   4.789  0.0913  0.2357 -0.2659
 3291W        W20138  10.795   8.782   2.222  0.2639  0.0416 -0.2099
 3292W        W20139  16.813  15.047   3.754  0.0352 -0.0294 -0.1490
 3293W        W20140  18.159   8.845  12.576  0.0533 -0.0417  0.0011
 3294W        W20141  15.806  14.359   3.014 -0.2562  0.2355  0.3816
 3295W        W20142  15.407  16.014   2.387 -0.0110 -0.3426  0.2122
 3296W        W20143  16.879   7.664   4.051 -0.0586  0.0245 -0.0071
 3297W        W20144   3.732  15.668  15.101 -0.5035 -0.1570  0.1488
 3298W        W20145   0.292  18.438   3.032 -0.1358 -0.2266  0.3055
 3299W        W20146   8.598  15.066   3.391 -0.0991  0.1283  0.2208
 3300W        W20147  13.024   0.561  15.664 -0.1668  0.2506  0.0143
 3301W        W20148   3.606  13.281  14.453 -0.0050  0.0904  0.2084
 3302W        W20149  10.049  11.884   0.046  0.3680  0.1426 -0.1088
 3303W        W20150  13.291  15.126   4.217 -0.0287  0.1868  0.1959
 3304W        W20151   0.693  13.746   1.529  0.1375  0.1558  0.0456
 3305W        W20152   7.405   8.894   3.739  0.3550 -0.1741  0.0047
 3306W        W20153   0.628   4.363   3.616  0.5391 -0.2266 -0.0627
 3307W        W20154  17.296   8.769  12.487  0.0136  0.0770 -0.0415
 3308W        W20155   3.647  14.424   0.684  0.3530 -0.4719 -0.1818
 3309W        W20156   6.850  10.025   3.412 -0.1002  0.0203  0.1268
 3310W        W20157  11.693  13.439  14.024  0.0115 -0.1085 -0.2371
 3311W        W20158   2.258  17.525  15.492  0.0938 -0.3001 -0.1513
 3312W        W20159  17.847   0.740  14.146  0.0522 -0.1544 -0.0546
 3313W        W20160  13.908  14.480   1.232 -0.0427  0.1553  0.1390
 3314W        W20161   3.200  15.909  14.069  0.2209 -0.0857 -0.1802
 3315W        W20162   9.903  12.435   4.573  0.0415 -0.4347  0.2339
 3316W        W20163   8.511  10.908   4.721 -0.0906 -0.1863 -0.0382
 3317W        W20164   0.053  13.905   2.959 -0.3131  0.1541  0.2274
 3318W        W20165   6.180   0.190  14.716 -0.1597 -0.3991 -0.1611
 3319W        W20166   8.076   1.301   3.841  0.0531 -0.2756  0.0996
 3320W        W20167   2.989  13.261   3.041 -0.1772 -0.0529  0.4376
 3321W        W20168  13.473  14.307   5.625 -0.0106 -0.0520 -0.3769
 3322W        W20169   8.846  16.674   0.978 -0.0464 -0.0779 -0.0585
 3323W        W20170   9.235   9.490   1.446  0.1365 -0.0916  0.3917
 3324W        W20171   8.107  16.756   0.309 -0.0104  0.1428 -0.0222
 3325W        W20172  12.199   7.457   1.246 -0.1117  0.1037  0.0265
 3326W        W20173   4.269  16.610   3.326  0.2578  0.2549  0.2591
 3327W        W20174  15.218  11.246   1.393  0.1866 -0.1142  0.1497
 3328W        W20175  16.368   0.937   2.803 -0.0277 -0.1410  0.2268
 3329W        W20176  14.830   3.243  12.116  0.0131  0.1104 -0.0583
 3330W        W20177  14.275   1.701   0.031  0.2922  0.0300  0.0730
 3331W        W20178  12.367   8.290   1.765 -0.3871  0.0219  0.0036
 3332W        W20179   5.370   7.374  11.800  0.0999  0.0180 -0.0562
 3333W        W20180  11.515  16.481  14.800 -0.0558 -0.3132  0.0456
 3334W        W20181  12.519  16.845  14.114 -0.2012 -0.1013 -0.0614
 3335W        W20182   4.969   1.885  12.123  0.1759 -0.0489 -0.0300
 3336W        W20183   6.850   3.412  15.652 -0.0648 -0.0576 -0.1360
 3337W        W20184  14.225   1.027  14.206  0.0897  0.2318  0.0227
 3338W        W20185  18.041   4.183  14.863  0.2417 -0.1701  0.1065
 3339W        W20186  15.230   4.077  15.547  0.0273 -0.1210  0.2047
 3340W        W20187   1.637   1.602   2.001 -0.1475  0.2186 -0.1075
 3341W        W20188   0.704  14.817  15.664 -0.0795  0.1531 -0.2837
 3342W        W20189   8.435  15.981   2.692 -0.1670  0.0335  0.0584
 3343W        W20190   8.759   2.763  10.795 -0.1782 -0.0704  0.0650
 3344W        W20191   1.348   1.279  13.345 -0.1176 -0.0839 -0.1030
 3345W        W20192   2.358  15.968  12.773 -0.2516 -0.1256 -0.2119
 3346W        W20193   2.895  14.249  12.773  0.0281 -0.0220  0.0079
 3347W        W20194  16.646  14.651   1.030 -0.2570  0.2937 -0.1409
 3348W        W20195   5.073   0.636   0.667 -0.4641  0.0893 -0.1493
 3349W        W20196  13.700   6.426  15.321 -0.1188  0.0663  0.1446
 3350W        W20197  12.054  11.202  11.451 -0.1197 -0.1118 -0.2164
 3351W        W20198   9.056   7.553   2.137 -0.2770  0.0217  0.3232
 3352W        W20199   6.596   1.160  13.268 -0.2356 -0.3245 -0.3228
 3353W        W20200  13.254   0.208   0.059  0.1250 -0.2407 -0.0725
 3354W        W20201   9.029   0.375  12.200  0.1832  0.0903 -0.2293
 3355W        W20202   2.534  11.178   3.749  0.0206 -0.1539  0.0144
 3356W        W20203   1.398   4.574   4.170 -0.2422  0.0522 -0.1871
 3357W        W20204  13.469   7.854  15.443 -0.0934  0.1512 -0.0804
 3358W        W20205  16.034   1.456  15.530  0.0231  0.0515  0.0112
 3359W        W20206   1.248  13.214  13.724  0.0917 -0.0088 -0.0718
 3360W        W20207  16.505   0.623   2.482  0.1533  0.1155 -0.1799
 3361W        W20208  10.666  14.047  15.424  0.3554  0.0725 -0.1419
 3362W        W20209   7.832   4.845   0.496 -0.2616 -0.2298  0.0639
 3363W        W20210  11.110  10.459  13.827  0.0081 -0.0137  0.2587
 3364W        W20211   5.687   5.983  14.431  0.1108 -0.1199  0.1234
 3365W        W20212   3.235   4.191  15.693  0.0918 -0.1492  0.0357
 3366W        W20213   3.294   8.834  11.496  0.2000  0.0795  0.3020
 3367W        W20214   8.525   2.109  12.925 -0.2056 -0.0284  0.0636
 3368W        W20215  10.181  10.965   1.782 -0.1151  0.0473 -0.0562
 3369W        W20216  13.969   6.668   1.100  0.0355  0.1652 -0.0473
 3370W        W20217  16.806  11.998   3.618 -0.1407  0.1637 -0.0461
 3371W        W20218  17.609   4.329  15.825 -0.0189  0.0861 -0.0169
 3372W        W20219   5.854   9.304  13.059  0.0063 -0.1471  0.1950
 3373W        W20220   1.454  13.516  14.718  0.1733  0.2028  0.1265
 3374W        W20221  11.870   3.071  13.260 -0.0882 -0.2390 -0.1108
 3375W        W20222  10.772  17.633  15.319  0.1970  0.2438  0.1772
 3376W        W20223   2.704  18.017  12.153 -0.3259  0.1132  0.0883
 3377W        W20224  16.618  10.289   3.238  0.2173  0.0542  0.0135
 3378W        W20225  12.558   3.914  12.809 -0.0531 -0.0960 -0.1122
 3379W        W20226  17.011   0.025  15.025  0.0008  0.1038  0.0320
 3380W        W20227  10.350  14.372  15.830  0.1269  0.0337  0.1198
 3381W        W20228   6.347   1.924   1.085 -0.2635  0.3415 -0.0562
 3382W        W20229   3.273  14.446   0.352  0.1782 -0.0673  0.0154
 3383W        W20230   3.329  16.326  12.025  0.1300 -0.0261 -0.3026
 3384W        W20231  17.613   5.412   2.096  0.5480  0.0976  0.1054
 3385W        W20232   2.230  10.032  11.493 -0.1564 -0.1126  0.0203
 3386W        W20233   5.405  14.278   0.586 -0.0173  0.0456  0.1238
 3387W        W20234   5.427   9.307   2.881 -0.1473 -0.1387  0.0917
 3388W        W20235   6.141   7.641   4.932 -0.2304  0.2175  0.0627
 3389W        W20236  16.753  16.643   2.281 -0.2358 -0.0656  0.0908
 3390W        W20237   7.160  11.500   0.364  0.2333  0.0694 -0.0679
 3391W        W20238   3.164   9.060  13.858  0.1528 -0.0828  0.2766
 3392W        W20239  15.880  17.598   5.525  0.0994 -0.2234 -0.0231
 3393W        W20240   6.551   5.975  15.423  0.1262 -0.1498 -0.0757
 3394W        W20241  15.358  14.122   2.058  0.0988  0.0537 -0.0361
 3395W        W20242  13.854  12.879   2.905  0.0983 -0.2213  0.0522
 3396W        W20243  13.306   5.570  15.143 -0.1346 -0.0518  0.0936
 3397W        W20244   9.289  14.497   4.052  0.1843  0.1333 -0.2819
 3398W        W20245  13.966   5.320  11.357 -0.0002  0.0424 -0.2412
 3399W        W20246  17.056   0.336   1.651 -0.0363  0.1531 -0.0648
 3400W        W20247  15.301  17.250   1.040  0.0325 -0.1268 -0.1623
 3401W        W20248  12.185  16.764  13.724  0.0445 -0.1326  0.0260
 3402W        W20249  10.333   9.496   4.264 -0.1619  0.1394  0.0402
 3403W        W20250  16.125  17.388   3.350  0.1275  0.1879  0.0504
 3404W        W20251   5.430  17.017   3.110 -0.0436 -0.1862 -0.0464
 3405W        W20252  13.620  12.757  15.233 -0.1373 -0.0784 -0.0748
 3406W        W20253   6.057   8.051   0.358  0.0103 -0.1367 -0.2468
 3407W        W20254  11.160   9.324  15.495 -0.0463 -0.4065  0.1802
 3408W        W20255   5.343   6.309  14.748  0.2030 -0.2586  0.1700
 3409W        W20256   6.366   9.245   0.196 -0.0608 -0.4310  0.3308
 3410W        W20257   3.371  15.398   3.478  0.4227 -0.0875 -0.2925
 3411W        W20258  17.516  10.892  15.281  0.0406  0.3504  0.0492
 3412W        W20259  13.192   3.222  10.942 -0.0626  0.1231 -0.0529
 3413W        W20260  16.958   5.996  12.172  0.0770  0.0793 -0.2548
 3414W        W20261   3.600   0.233   0.153  0.1550 -0.4109  0.0530
 3415W        W20262   4.462  15.742  15.612 -0.0823 -0.2751 -0.0907
 3416W        W20263  11.185   0.188   1.433  0.3533 -0.1495  0.0625
 3417W        W20264   7.430   2.908   3.194 -0.0027 -0.0352  0.1175
 3418W        W20265  13.642  10.307  15.016  0.3510  0.0456 -0.3369
 3419W        W20266  12.278  15.490   1.347 -0.1958  0.1290 -0.1925
 3420W        W20267   1.449  13.473  13.102 -0.3675 -0.1999  0.2344
 3421W        W20268  16.917   4.114   3.260  0.0403  0.1996 -0.0677
 3422W        W20269  13.684   4.232   1.691  0.1276  0.0907  0.0945
 3423W        W20270   9.987   9.905  14.001  0.0717  0.2976  0.1983
 3424W        W20271  15.862   0.278  12.961 -0.3499  0.2031 -0.0309
 3425W        W20272   4.743  15.804  14.171  0.0070 -0.3512 -0.1291
 3426W        W20273  15.324   0.274  13.525  0.3279  0.3193 -0.1515
 3427W        W20274  10.276  13.807   0.752  0.0192  0.0866 -0.1621
 3428W        W20275  11.064   7.270  14.184  0.0411 -0.1057 -0.1477
 3429W        W20276  14.996  17.151  10.399 -0.1553 -0.0852  0.1043
 3430W        W20277  15.620   0.159   1.336 -0.1139  0.0110  0.3969
 3431W        W20278   3.829  11.774   1.185  0.1812 -0.1731 -0.0656
 3432W        W20279  11.400   5.265  10.890 -0.0874  0.1142 -0.1248
 3433W        W20280  10.848  11.711  14.584  0.1487 -0.1121 -0.0950
 3434W        W20281  13.467  17.621  12.497  0.2006 -0.3376 -0.0381
 3435W        W20282   7.873   6.862  13.226  0.0195  0.0681 -0.2138
 3436W        W20283  12.046   0.753  12.431  0.0534 -0.0487 -0.0260
 3437W        W20284  13.290   0.378  15.195 -0.0358  0.3594 -0.1696
 3438W        W20285   8.567   4.727  13.721 -0.0280  0.0985  0.0057
 3439W        W20286   2.175   8.697  15.666  0.1990 -0.0260 -0.2047
 3440W        W20287   7.466   2.702   1.686  0.1531  0.0113  0.1186
 3441W        W20288   6.394   1.639  15.448 -0.2833 -0.0677 -0.2772
 3442W        W20289   9.877   1.490   1.913 -0.0930  0.1892 -0.0193
 3443W        W20290   1.804   7.253  11.329  0.0018  0.1572 -0.1417
 3444W        W20291  10.445  15.618  14.844 -0.4029  0.2410  0.1922
 3445W        W20292   2.416   1.520  13.392  0.1216 -0.1315  0.0797
 3446W        W20293   2.677   9.240  12.389 -0.1685  0.2969 -0.2254
 3447W        W20294  10.869   7.995   3.484  0.2333 -0.0728  0.0567
 3448W        W20295  12.089  13.838  11.236 -0.0562  0.0895  0.0937
 3449W        W20296   6.069   4.281  13.996  0.0061  0.4013  0.0479
 3450W        W20297  13.918  16.809   1.612  0.2453  0.0320 -0.0119
 3451W        W20298  14.601   1.265   1.271  0.1974 -0.0927  0.1587
 3452W        W20299  11.191  15.248   2.151  0.0612  0.2072  0.3706
 3453W        W20300   6.254   7.877   1.411 -0.1887  0.0197 -0.0921
 3454W        W20301  12.293   8.987  11.144 -0.4677 -0.2313  0.0727
 3455W        W20302  10.876  10.877   5.052  0.1815  0.4430 -0.1044
 3456W        W20303   4.528   7.473  14.370 -0.0025  0.0397 -0.3002
 3457W        W20304   4.513   7.032   4.587  0.0216  0.2313  0.1375
 3458W        W20305   1.636  16.168   3.177 -0.2762 -0.1331 -0.3185
 3459W        W20306   8.087  13.773   3.499  0.0859 -0.0724 -0.1434
 3460W        W20307  10.883   6.472  14.015 -0.1312  0.1969  0.1457
 3461W        W20308  17.953   4.702   2.642 -0.0403 -0.0212  0.0174
 3462W        W20309   8.009  15.475  14.643  0.2660  0.0936  0.2174
 3463W        W20310   6.349   5.950   3.166  0.1029  0.1209  0.0256
 3464W        W20311   6.660  14.692   3.035 -0.1204  0.3227 -0.1491
 3465W        W20312   1.660  10.962   0.207 -0.4517  0.2711 -0.0005
 3466W        W20313   7.495  13.455  14.615 -0.1124 -0.1938  0.0719
 3467W        W20314  12.763  13.623   5.608 -0.0228 -0.4804 -0.0590
 3468W        W20315   9.046  12.168   1.195  0.0351 -0.3864 -0.0699
 3469W        W20316   2.890   6.800   1.235  0.0455 -0.1959  0.1315
 3470W        W20317  14.171   8.525  12.817 -0.5957  0.1084  0.3176
 3471W        W20318   7.106  17.277   3.471  0.0725  0.2218  0.1034
 3472W        W20319  17.181   8.267  13.006 -0.1307  0.1143 -0.0763
 3473W        W20320   6.748  17.100   1.500 -0.1492  0.0621  0.1424
 3474W        W20321  13.015   4.358  15.678 -0.1460  0.0222  0.1560
 3475W        W20322  11.314  14.161  11.852 -0.0745 -0.0791  0.0407
 3476W        W20323   5.331   8.273   6.134  0.1724 -0.1372  0.2540
 3477W        W20324  10.337  12.640  11.560 -0.1145  0.1134  0.2395
 3478W        W20325  14.245  13.950   5.175 -0.1276  0.1226  0.0649
 3479W        W20326  10.311  13.811  15.865  0.2343  0.1339 -0.0919
 3480W        W20327   7.748   6.593  12.551 -0.1476  0.0898  0.1165
 3481W        W20328   7.260   6.863  12.336  0.0202  0.2402 -0.1061
 3482W        W20329   1.085   4.401  15.153 -0.0159 -0.1770 -0.0583
 3483W        W20330   2.038   6.991   5.287 -0.0314 -0.1430  0.1138
 3484W        W20331   9.900  14.938  13.328  0.1516  0.2353 -0.0160
 3485W        W20332  16.020  10.984  11.853 -0.1141 -0.1011 -0.1038
 3486W        W20333   6.303   5.455   2.952  0.2189  0.0292  0.1482
 3487W        W20334  17.049   7.172  15.210  0.1194  0.2338 -0.2348
 3488W        W20335  17.710  17.365   1.635 -0.0196 -0.0484  0.1316
 3489W        W20336   3.552   6.000   3.769 -0.0665  0.0013 -0.0669
 3490W        W20337  17.330   9.157  12.145  0.1042 -0.0718  0.1259
 3491W        W20338   4.301   3.185  12.242  0.0789 -0.1523  0.0064
 3492W        W20339  12.717   5.042   5.097  0.0528  0.1366 -0.1059
 3493W        W20340  12.802  12.454  15.918  0.0723 -0.0897  0.0660
 3494W        W20341   1.560   0.542  13.061 -0.0031  0.3109  0.0424
 3495W        W20342  11.260  13.211   2.435 -0.0854  0.1730  0.0220
 3496W        W20343   6.815  16.148   1.736  0.0194 -0.1476  0.1527
 3497W        W20344   7.034   5.009  14.689 -0.1180  0.1250 -0.0455
 3498W        W20345   9.750  10.166   1.363  0.2091 -0.0703  0.0592
 3499W        W20346  15.097  16.851  13.303 -0.0878  0.0050 -0.0322
 3500W        W20347  16.612   9.760   3.271 -0.1154  0.0353  0.2849
 3501W        W20348  14.589   6.393  13.773  0.1397 -0.1526 -0.2241
 3502W        W20349   2.521  17.707  15.137 -0.2506  0.0403  0.0684
 3503W        W20350   7.510  14.964  12.076 -0.3052  0.0564  0.1776
 3504W        W20351   1.635  13.771   2.669  0.0689 -0.2008 -0.0644
 3505W        W20352  14.191  17.665   2.779 -0.1611 -0.0864  0.1295
 3506W        W20353   8.105  15.783  15.075 -0.1806  0.3185  0.1357
 3507W        W20354  18.045  15.965  13.121  0.0582  0.4556 -0.3278
 3508W        W20355  18.204  17.403  11.731 -0.1713 -0.1112  0.0797
 3509W        W20356   9.917   1.561   5.082 -0.1265  0.2445  0.2132
 3510W        W20357  16.910   4.313   0.948  0.2313 -0.1944  0.1918
 3511W        W20358   9.191   3.734   2.794 -0.1082  0.0066  0.0664
 3512W        W20359   6.465  16.645  14.179  0.0478 -0.0425 -0.1745
 3513W        W20360  17.373  16.030   2.021 -0.0900 -0.1246 -0.0969
 3514W        W20361   9.242   0.537  10.043  0.0545 -0.0443 -0.3928
 3515W        W20362  13.248   8.134   3.043  0.1373 -0.0275 -0.1324
 3516W        W20363   6.244  11.696   3.360  0.0558  0.1636 -0.0103
 3517W        W20364  14.090  10.672   0.717 -0.0599  0.2156 -0.1519
 3518W        W20365  11.908  16.214  12.359 -0.0234 -0.0086  0.4670
 3519W        W20366  18.113   9.544  14.962 -0.0795 -0.3548  0.0086
 3520W        W20367  18.211  11.077   4.099 -0.0278  0.1192 -0.2392
 3521W        W20368   6.612  16.096   5.494 -0.2153 -0.2524 -0.2442
 3522W        W20369  17.782   7.653  11.489  0.1924  0.0905  0.1856
 3523W        W20370  17.778   3.646   3.520  0.0909 -0.1172 -0.2484
 3524W        W20371   7.003   3.840   0.720 -0.1667  0.2907  0.1383
 3525W        W20372   1.700   2.613   0.948 -0.1108 -0.2361  0.0916
 3526W        W20373  13.504   6.133  11.034  0.0385 -0.2510 -0.0592
 3527W        W20374  11.029   2.269   2.292  0.0971 -0.0502  0.1837
 3528W        W20375  17.850   7.816  15.835 -0.2462  0.0842  0.0941
 3529W        W20376   3.539   5.214  12.514 -0.1099 -0.0285  0.0862
 3530W        W20377  12.834   9.954  15.453 -0.0719  0.0249 -0.4946
 3531W        W20378   4.136  10.915   5.352  0.0387 -0.1179  0.1664
 3532W        W20379  16.328  17.718   6.017  0.1510  0.1333 -0.2425
 3533W        W20380   5.907   7.774  11.477 -0.0648  0.2869 -0.0446
 3534W        W20381   0.943  11.550   5.445 -0.1794  0.0167 -0.1298
 3535W        W20382   2.346  18.529  15.883  0.2661  0.2013  0.2059
 3536W        W20383   1.043  17.665  14.152  0.0681  0.1504  0.0820
 3537W        W20384   6.012   9.097   1.590 -0.0878  0.2849 -0.0716
 3538W        W20385  16.129   1.836   0.880 -0.0801  0.2585 -0.0715
 3539W        W20386  14.186   4.516  12.377  0.1015 -0.2022 -0.1085
 3540W        W20387   9.248   3.081  13.942  0.1971 -0.0867  0.1487
 3541W        W20388  13.203  11.912  14.049  0.2423 -0.0286  0.1714
 3542W        W20389   2.840  18.438  13.288  0.1458  0.0213  0.2424
 3543W        W20390   6.242  14.580   5.090  0.1220  0.0188 -0.0301
 3544W        W20391   3.560  16.027   0.119 -0.0623  0.0328 -0.2304
 3545W        W20392   8.965   0.273  14.098  0.0299 -0.1500 -0.0167
 3546W        W20393   5.380   1.785   2.048 -0.2337 -0.0370 -0.0718
 3547W        W20394   3.803   8.119  15.136  0.2518 -0.1480 -0.0882
 3548W        W20395  14.906  16.408  12.480 -0.1297 -0.3961  0.0401
 3549W        W20396   1.440   0.519   0.852 -0.2414 -0.0386 -0.0145
 3550W        W20397   4.274   5.484   1.375 -0.1754  0.0981  0.0833
 3551W        W20398   9.813  17.961   3.199 -0.2431  0.1227 -0.0642
 3552W        W20399  13.918   6.404   1.517 -0.1933 -0.2910  0.0416
 3553W        W20400  16.234   5.608   1.870 -0.0125  0.3480 -0.0858
 3554W        W20401  11.806  17.843  14.930 -0.2054 -0.1577 -0.2415
 3555W        W20402  11.783   8.313  11.296 -0.1328 -0.0889  0.2601
 3556W        W20403   2.343  11.768  15.762  0.0256  0.2454 -0.1864
 3557W        W20404  18.091   1.637   3.371 -0.0854 -0.0225 -0.0907
 3558W        W20405   6.251   3.837   1.897  0.3518  0.0491  0.2571
 3559W        W20406  10.370   6.713   0.903  0.1403 -0.0410  0.1920
 3560W        W20407   4.967   1.865   1.567  0.0257  0.1275 -0.0181
 3561W        W20408  10.367   6.220   1.724 -0.1664 -0.2718  0.3572
 3562W        W20409  11.585  14.087   3.559  0.0948 -0.1857 -0.1047
 3563W        W20410   5.472   9.896   4.176  0.2844  0.1502 -0.5867
 3564W        W20411  12.657   1.150  11.627  0.1888 -0.1791 -0.0701
 3565W        W20412   5.755   0.377  14.380 -0.2078 -0.0776  0.1689
 3566W        W20413  18.225  17.856   3.769  0.2857  0.2808 -0.0239
 3567W        W20414   9.952   6.095   0.494  0.1024 -0.0785  0.3103
 3568W        W20415  10.039   9.146   5.103  0.0264 -0.2553 -0.2347
 3569W        W20416  16.918  14.569   3.602 -0.0132  0.2651 -0.0586
 3570W        W20417   5.238  13.643   0.543 -0.0808  0.1555 -0.1329
 3571W        W20418  17.250   8.435  14.071  0.1842  0.0949 -0.0425
 3572W        W20419  14.711   0.404   2.171  0.1422 -0.1775 -0.0970
 3573W        W20420   3.765   4.552   4.346 -0.0565 -0.0287 -0.0267
 3574W        W20421  12.702  15.914   3.301 -0.0909 -0.1453  0.1581
 3575W        W20422   7.704   3.823   0.089 -0.0553  0.0990  0.1130
 3576W        W20423   3.062   5.101   0.663  0.0309 -0.0976 -0.2892
 3577W        W20424   3.083   2.326  14.847  0.2697  0.0586  0.0852
 3578W        W20425  17.299  12.656   3.213  0.0640 -0.2125 -0.1223
 3579W        W20426   2.622   2.957  12.793  0.2261  0.0148  0.0409
 3580W        W20427  11.640   4.812  14.549 -0.2033  0.0111 -0.1278
 3581W        W20428  14.855  10.576  15.357 -0.1049 -0.2357  0.1156
 3582W        W20429   4.828   9.317  12.151 -0.0179  0.2527  0.2253
 3583W        W20430   7.192  15.301  14.758  0.0942 -0.2571  0.0462
 3584W        W20431   8.492   3.950  15.710 -0.0639  0.1886 -0.2239
 3585W        W20432  14.121   6.860  12.127 -0.0615 -0.0637 -0.1659
 3586W        W20433   8.623  10.733   0.120  0.1130  0.2747  0.0954
 3587W        W20434  10.721  17.455  14.828 -0.2501  0.0704 -0.0943
 3588W        W20435   1.476   8.050   0.712 -0.0698 -0.0939  0.1773
 3589W        W20436  16.391   2.822   4.936  0.0561  0.0126 -0.2216
 3590W        W20437  14.156   0.317   4.379 -0.2040 -0.1843 -0.1609
 3591W        W20438   6.447   1.599  10.879  0.0983 -0.3467  0.0410
 3592W        W20439   1.835  18.382  15.276 -0.1272  0.1296  0.2263
 3593W        W20440   3.472  16.644  15.794 -0.2631 -0.0045  0.4200
 3594W        W20441   6.253   4.807   2.759  0.1728 -0.0106  0.3208
 3595W        W20442   5.588   2.973  11.738 -0.0785  0.1355 -0.2630
 3596W        W20443  14.196   5.371  12.089  0.1523 -0.3752 -0.1895
 3597W        W20444   0.113  10.285   1.715  0.1763 -0.1802  0.1140
 3598W        W20445   8.565  16.172  10.833  0.0001 -0.2520  0.0824
 3599W        W20446   9.424   1.758   1.120  0.4711 -0.4002 -0.1745
 3600W        W20447   1.751   3.296  15.698  0.1543  0.0084 -0.0514
 3601W        W20448   4.486   0.036   9.794 -0.1406  0.0939 -0.0427
 3602W        W20449  14.095   5.313  12.568  0.1153  0.0062  0.0934
 3603W        W20450   9.449   7.713  15.432  0.0445  0.0191  0.0523
 3604W        W20451   4.711   0.328   2.954  0.0077  0.1176  0.1101
 3605W        W20452  13.733  12.010  14.374  0.1386  0.0615 -0.0088
 3606W        W20453   8.972  15.982  10.978  0.0983  0.3866 -0.0838
 3607W        W20454  10.255   4.603  11.629 -0.2518  0.2887 -0.1082
 3608W        W20455  14.968   8.790  14.884  0.0229  0.2224 -0.0587
 3609W        W20456   2.574   0.893   3.589 -0.0210  0.1313 -0.0077
 3610W        W20457   9.068  17.957  11.417  0.2137 -0.0637  0.0084
 3611W        W20458  10.283  14.804  12.348  0.2377  0.2048 -0.1795
 3612W        W20459  10.151  10.252   3.955  0.2960  0.1451  0.0750
 3613W        W20460  15.975   2.214   2.869  0.1511 -0.1910  0.1195
 3614W        W20461  16.329  14.765   2.292 -0.0299 -0.0644  0.1766
 3615W        W20462  13.574   9.245   4.368 -0.2605 -0.0197 -0.0548
 3616W        W20463  16.125   7.800  13.186  0.2177  0.0005 -0.0815
 3617W        W20464   5.599  13.597  11.374 -0.0919  0.0897 -0.0254
 3618W        W20465  12.083   0.423   4.867 -0.0640 -0.1135 -0.0629
 3619W        W20466  14.477  12.646  14.064 -0.1077  0.1105  0.0707
 3620W        W20467  12.886   2.830   5.578 -0.0708 -0.3862 -0.0543
 3621W        W20468   2.849   5.339  14.816  0.2382  0.0640  0.0846
 3622W        W20469   8.460  18.068  15.794  0.2351  0.0815 -0.1667
 3623W        W20470   9.923   1.856   4.689  0.0657 -0.0238  0.0528
 3624W        W20471   5.762  13.705   2.045 -0.1158 -0.2706  0.1416
 3625W        W20472   4.154   2.419  10.964  0.4355 -0.2762  0.0971
 3626W        W20473   2.749   0.369  11.211  0.0783 -0.0001  0.2021
 3627W        W20474   2.617   1.136  13.657 -0.4939  0.1076 -0.0142
 3628W        W20475  13.854  18.456   1.659  0.0209  0.1263 -0.0864
 3629W        W20476  11.953  16.569   0.199  0.2561 -0.0261  0.0656
 3630W        W20477  16.253   9.655  12.305 -0.0834  0.1156 -0.0669
 3631W        W20478  18.141  17.980  11.893  0.0746  0.2209  0.1425
 3632W        W20479   9.996  11.308  12.064 -0.0222  0.0032 -0.1626
 3633W        W20480   0.933  12.307  14.336 -0.0779 -0.0968  0.2845
 3634W        W20481   9.679   3.530   1.681 -0.0889 -0.1085  0.1378
 3635W        W20482   6.716  15.254   3.082  0.0753 -0.0689  0.1134
 3636W        W20483   1.017  10.568   3.663 -0.4760 -0.0808  0.1302
 3637W        W20484  18.187   1.487   4.988 -0.0071 -0.0497  0.1682
 3638W        W20485   4.886   1.009  15.775  0.1593  0.1378 -0.4217
 3639W        W20486   7.033   1.439   1.638  0.1385 -0.0235  0.1059
 3640W        W20487   5.079  18.229   0.804 -0.2655  0.0694  0.1748
 3641W        W20488  10.705   4.572  13.864 -0.3788 -0.3515 -0.2975
 3642W        W20489   4.011  18.531   0.249 -0.0987 -0.4251 -0.0597
 3643W        W20490   0.609   8.966   0.087  0.4131 -0.3589 -0.0459
 3644W        W20491  17.606   3.546  11.398  0.1082  0.0813  0.0599
 3645W        W20492   7.218  12.156  13.140  0.0833 -0.0428  0.2212
 3646W        W20493  11.254   7.864  10.952  0.0732  0.4166 -0.2045
 3647W        W20494   0.991  13.518  13.979  0.3608  0.3103 -0.1472
 3648W        W20495  14.744   1.860  15.260 -0.0181  0.1087  0.1103
 3649W        W20496   9.795   4.230   4.730 -0.2821 -0.0019 -0.0797
 3650W        W20497  10.756  12.959  14.608  0.0284  0.0243 -0.2430
 3651W        W20498   4.664  10.623  13.356 -0.4091  0.0987  0.1683
 3652W        W20499   2.155  16.674   4.380  0.3151  0.0889  0.1065
 3653W        W20500   9.798  16.925  15.829  0.1417 -0.3447  0.1428
 3654W        W20501   0.889  14.366  11.402  0.0540 -0.2357  0.1042
 3655W        W20502   9.502  10.613  15.258 -0.3907  0.1684  0.2704
 3656W        W20503   0.141  10.460  13.991 -0.0789  0.0915 -0.1119
 3657W        W20504  13.678   3.277  13.527 -0.0400 -0.0385  0.1442
 3658W        W20505   7.632   0.393   4.820 -0.0661 -0.1981 -0.1429
 3659W        W20506   4.763   7.825   2.798 -0.0983 -0.2273 -0.1392
 3660W        W20507   8.327  13.912  14.829  0.0925 -0.4279 -0.2964
 3661W        W20508  14.480  11.502   4.334  0.0442 -0.2095  0.1837
 3662W        W20509   7.605  17.678   2.805 -0.2390  0.2768 -0.0828
 3663W        W20510  16.006   8.277   0.346 -0.0990 -0.2534  0.1164
 3664W        W20511  12.927   6.271  14.629  0.0494 -0.0824  0.1552
 3665W        W20512  11.929   4.981   1.940  0.0691 -0.2969 -0.1120
 3666W        W20513   4.462   8.913  14.061  0.2672  0.2687  0.2368
 3667W        W20514  18.005  12.854  13.072  0.0688  0.0013 -0.0433
 3668W        W20515  10.681  10.094   1.263  0.4833 -0.0014  0.0430
 3669W        W20516  14.658   7.990  11.947  0.1979  0.0779  0.2448
 3670W        W20517   1.808  11.462   1.960  0.1711 -0.1058  0.2605
 3671W        W20518   7.180  12.925   0.768  0.1639 -0.2914 -0.1724
 3672W        W20519  16.225   6.096  11.274 -0.3832  0.1298  0.0357
 3673W        W20520  16.843  11.827   4.143  0.0073 -0.1886 -0.0660
 3674W        W20521   0.317   6.642   5.948 -0.0824 -0.1110 -0.0306
 3675W        W20522  10.822  14.348   0.421  0.0200 -0.3801  0.2849
 3676W        W20523  12.872  10.345   3.263 -0.1764 -0.0492  0.1314
 3677W        W20524   9.446   0.033  15.033 -0.0324  0.2450 -0.1086
 3678W        W20525   2.425   8.950   3.879  0.1520  0.0265 -0.0637
 3679W        W20526   3.822   7.136   0.997 -0.1695  0.1442  0.3683
 3680W        W20527   7.372   3.666  15.617 -0.0334  0.2757 -0.1630
 3681W        W20528  10.566   4.117   0.684 -0.2254 -0.0733  0.2451
 3682W        W20529  10.247  13.363   2.749  0.1676 -0.0829 -0.2014
 3683W        W20530   1.222   6.529  15.440  0.0139  0.1198 -0.1749
 3684W        W20531   7.716  15.408   3.964  0.2546 -0.3175  0.1414
 3685W        W20532   9.347   4.958  11.688  0.1607 -0.1003  0.0068
 3686W        W20533  16.494  15.534   0.161 -0.1196 -0.1755  0.0841
 3687W        W20534  16.348   1.811   2.893 -0.2285 -0.0526  0.0117
 3688W        W20535  17.503  15.282   2.084 -0.1398  0.1551 -0.1016
 3689W        W20536   9.119   1.981   2.522 -0.0244 -0.0756 -0.1482
 3690W        W20537   2.418   2.153   0.854 -0.0482 -0.0419 -0.0750
 3691W        W20538   2.983  10.320   4.860  0.0308  0.0260  0.2575
 3692W        W20539   6.997   1.231   1.161  0.2551  0.1713  0.4129
 3693W        W20540   7.958   3.919  10.270 -0.0641  0.2173 -0.2751
 3694W        W20541  13.130  16.697   3.580  0.0539  0.0095 -0.2664
 3695W        W20542   7.967   2.279  13.162 -0.0851 -0.0112 -0.0624
 3696W        W20543  17.233  13.142  13.552 -0.0908 -0.1080  0.0666
 3697W        W20544   9.079  16.475   3.913 -0.1942 -0.0325  0.1424
 3698W        W20545   9.529  11.043   4.583  0.1258 -0.0696 -0.0159
 3699W        W20546  14.677  16.809   2.401  0.0886  0.1540 -0.0441
 3700W        W20547  16.484  14.675  13.219 -0.0661 -0.1248  0.0469
 3701W        W20548  13.622  15.592   1.113 -0.1981 -0.1574  0.0997
 3702W        W20549  16.488   2.118   0.137 -0.0386  0.3117 -0.1974
 3703W        W20550   0.421  14.454  14.514 -0.0848  0.2291 -0.2254
 3704W        W20551   1.547   9.816   3.395 -0.2912 -0.0135  0.0655
 3705W        W20552  17.651  11.387   2.285  0.1411  0.2981  0.0800
 3706W        W20553  10.924  11.644   4.368 -0.0108  0.0592  0.0619
 3707W        W20554  11.681   7.314  11.990 -0.0890  0.1207 -0.2808
 3708W        W20555  15.734  14.900   4.702 -0.0231  0.1308 -0.1253
 3709W        W20556   8.725   6.675  13.661 -0.0506  0.2355 -0.0357
 3710W        W20557   6.212   3.775   3.916 -0.1939  0.0770  0.3735
 3711W        W20558   4.029  10.341   0.361 -0.0760 -0.4296 -0.0380
 3712W        W20559  18.369   1.674   5.467  0.0062  0.0069  0.1778
 3713W        W20560  15.831  13.187   1.340  0.1975  0.0745  0.3152
 3714W        W20561  16.651   9.973   1.811  0.0584 -0.2146 -0.1977
 3715W        W20562   2.566   3.962   3.269  0.2530 -0.0794 -0.1986
 3716W        W20563   9.739   3.280   2.260  0.0271 -0.2423  0.2007
 3717W        W20564  14.422   0.701   0.357 -0.0927  0.1694  0.3859
 3718W        W20565   5.136   7.776  11.927  0.0161  0.2858  0.1021
 3719W        W20566   9.611   5.787  14.418 -0.0190 -0.1068 -0.1931
 3720W        W20567  14.123  10.607  15.794  0.0686  0.0101  0.1105
 3721W        W20568  13.248   4.150  11.217  0.0823  0.0706 -0.1965
 3722W        W20569   9.598   6.337   4.791  0.4378 -0.1346 -0.0814
 3723W        W20570   4.493   7.298   2.061  0.1169  0.4026  0.1124
 3724W        W20571   1.360   3.251   0.491 -0.1056 -0.1912 -0.0206
 3725W        W20572   1.662   5.677   1.756 -0.1105 -0.1907  0.0896
 3726W        W20573   0.892  11.725   1.582 -0.0489  0.1351  0.1369
 3727W        W20574  11.296   6.714  13.811 -0.0283  0.0898  0.4730
 3728W        W20575   4.254   9.511  15.750 -0.1234  0.0403 -0.0482
 3729W        W20576   8.964  12.413  13.441  0.0790  0.0290  0.0782
 3730W        W20577   7.638   7.787  12.439 -0.2302  0.1487  0.1744
 3731W        W20578   6.831   2.160  14.585 -0.0273 -0.1847  0.0890
 3732W        W20579   8.214  13.405   3.208 -0.0457  0.0153  0.1188
 3733W        W20580  10.238   5.137   2.334 -0.1437  0.2190 -0.0120
 3734W        W20581   7.449   4.029   1.575  0.1569  0.1027 -0.0771
 3735W        W20582  13.986  18.523  15.504  0.0153 -0.2117 -0.3223
 3736W        W20583   1.246   7.516   5.254 -0.1822  0.1028 -0.0887
 3737W        W20584   5.041   6.447   3.912 -0.1960 -0.0729  0.2887
 3738W        W20585  15.664  10.185   3.016 -0.0625 -0.0293  0.2863
 3739W        W20586  10.412  10.293  13.117  0.1402 -0.0743 -0.0492
 3740W        W20587  15.252   6.258   0.733 -0.2036 -0.1295  0.1580
 3741W        W20588   2.484   4.666  15.507 -0.0922  0.0607 -0.2434
 3742W        W20589   3.080   3.852   3.369  0.3712 -0.0699  0.1821
 3743W        W20590   0.449   8.143  13.736 -0.0954 -0.0769  0.3248
 3744W        W20591  10.598  14.693   2.452 -0.3421 -0.0211 -0.0696
 3745W        W20592   2.056   2.694  12.187  0.1697  0.0413 -0.0145
 3746W        W20593   5.055   0.482   4.725 -0.1172 -0.1051  0.0442
 3747W        W20594  14.773  13.476   3.973  0.1898 -0.0087 -0.0407
 3748W        W20595   9.497  12.536   4.858  0.2804  0.2026  0.3258
 3749W        W20596  15.657   1.062   1.352 -0.2343 -0.3396  0.1510
 3750W        W20597   5.520   1.544   3.936 -0.2216  0.0391  0.0247
 3751W        W20598   7.211  14.783   5.161  0.1317  0.0240  0.3500
 3752W        W20599   6.000  10.944  15.577 -0.2087  0.0832  0.3764
 3753W        W20600   5.070   6.518   2.436 -0.0412  0.4635  0.1478
 3754W        W20601   8.433   3.534  12.435  0.1616  0.0298  0.1741
 3755W        W20602   8.352  14.883   2.330 -0.1811 -0.2853  0.0495
 3756W        W20603   9.261   5.894  15.405 -0.2781  0.1456  0.0467
 3757W        W20604   0.411  14.276   2.360  0.1171 -0.0276  0.2780
 3758W        W20605   4.550  18.074   1.825 -0.1139  0.2571  0.1405
 3759W        W20606   4.676  10.224   3.296  0.1069 -0.0336  0.3070
 3760W        W20607   9.344  13.471  15.846  0.2602 -0.0469  0.0711
 3761W        W20608   3.632  12.421  13.252  0.1200 -0.0052  0.1019
 3762W        W20609  14.591   0.022  14.876  0.0773  0.0188  0.1187
 3763W        W20610   7.804   4.361   4.464  0.1691  0.1578  0.0802
 3764W        W20611   3.920   9.167  13.234 -0.0146  0.3345  0.1499
 3765W        W20612  17.823  14.931   3.842  0.1496 -0.1715 -0.0309
 3766W        W20613  10.257  11.216   0.952 -0.1594  0.1431  0.1122
 3767W        W20614  13.980  12.202   0.884  0.1944  0.0719  0.0233
 3768W        W20615   5.770   3.351   2.590  0.1863  0.2646  0.2263
 3769W        W20616  11.827   4.140   2.556  0.2984  0.1522  0.1580
 3770W        W20617  18.367  13.647   2.387 -0.1798 -0.0007 -0.1431
 3771W        W20618  15.769  16.239  15.625  0.2248  0.2118 -0.0601
 3772W        W20619   7.647  18.097  13.205 -0.1782  0.0912 -0.0407
 3773W        W20620   7.668  17.992   4.694 -0.2792  0.1549 -0.2417
 3774W        W20621  13.523   8.974   3.966  0.1215  0.0292  0.0755
 3775W        W20622   7.207   2.924  11.597 -0.2512 -0.2285 -0.1811
 3776W        W20623   7.555   5.262   1.168 -0.1020  0.1200 -0.0203
 3777W        W20624   2.653  14.987   1.132  0.2249 -0.1341 -0.1094
 3778W        W20625  16.815  11.581  10.303 -0.0764  0.2128  0.1180
 3779W        W20626   4.671  16.602  13.218  0.1408 -0.0458  0.0257
 3780W        W20627   9.479  13.018  13.109 -0.0017  0.0856  0.0937
 3781W        W20628   1.485  16.761  12.421  0.0893  0.1042  0.0070
 3782W        W20629   2.097  17.891   1.611  0.0430 -0.0660  0.0653
 3783W        W20630  15.866   2.417  13.515 -0.1669  0.0338  0.0157
 3784W        W20631  11.017  13.246  15.447 -0.0549 -0.1810 -0.0339
 3785W        W20632  16.426   0.601   4.358  0.3892  0.0963 -0.0676
 3786W        W20633   9.963  13.690  14.249  0.3633  0.0754  0.1300
 3787W        W20634  10.071  12.000   4.273 -0.1692  0.2874  0.0069
 3788W        W20635  17.391   9.085  14.752 -0.0382 -0.0826 -0.3667
 3789W        W20636   1.428   2.590  12.675 -0.1725  0.0159  0.0862
 3790W        W20637   4.775   9.280  13.781  0.0340 -0.0006 -0.2681
 3791W        W20638   3.569   6.905   4.175  0.0577  0.3983 -0.0765
 3792W        W20639   2.546   5.382   3.031 -0.0645  0.1671 -0.2798
 3793W        W20640  16.839  14.753   2.178 -0.2299  0.1958 -0.1263
 3794W        W20641  17.328   3.401  12.258  0.0943  0.2681  0.2876
 3795W        W20642   3.959  13.950   0.425  0.0050 -0.0044  0.2133
 3796W        W20643  12.827  17.137   0.829  0.3693  0.1822 -0.0857
 3797W        W20644   6.222  13.957   1.912 -0.2417 -0.0651 -0.1841
 3798W        W20645   1.171   1.032   5.273 -0.3035 -0.1713 -0.0729
 3799W        W20646   6.353  13.005   5.928  0.1366 -0.0225  0.0767
 3800W        W20647  12.648   6.287  15.712 -0.2702  0.1245  0.2477
 3801W        W20648   1.415   6.094  14.134 -0.0750  0.0707  0.1863
 3802W        W20649  15.376   3.136  15.656 -0.0430  0.2359 -0.3827
 3803W        W20650  10.203  17.789  14.958 -0.0788 -0.1667  0.0751
 3804W        W20651  11.217   7.889  11.972 -0.1138  0.1783  0.2107
 3805W        W20652   5.736  15.609   0.238 -0.3285  0.3647 -0.2911
 3806W        W20653  11.751   0.893   3.603 -0.1186  0.0019  0.0130
 3807W        W20654  11.428   9.694   2.209 -0.0580 -0.0457 -0.1100
 3808W        W20655   1.832   7.938   5.358 -0.2135  0.0401  0.1554
 3809W        W20656  17.836   4.055   3.249  0.1437 -0.1556 -0.1426
 3810W        W20657   9.478   1.433  13.257 -0.0556  0.0296 -0.2709
 3811W        W20658  14.262  11.138   2.352 -0.1785 -0.0883  0.2817
 3812W        W20659  10.749   8.004  15.020  0.2613  0.1205 -0.1845
 3813W        W20660  10.380  15.000  15.329 -0.0420  0.0931  0.2992
 3814W        W20661  15.109   1.102   2.689 -0.0701 -0.0749 -0.3609
 3815W        W20662  10.603   8.533  11.820  0.4188  0.3789  0.1393
 3816W        W20663   6.624   0.401  14.804  0.1381 -0.2008 -0.0620
 3817W        W20664  14.400   9.623   3.033  0.2152  0.0463  0.1697
 3818W        W20665  18.000   5.864  14.321 -0.2652 -0.0033 -0.2976
 3819W        W20666  15.152  15.558  11.222  0.1899  0.0898  0.4885
 3820W        W20667   5.191  10.174   1.924 -0.4931 -0.0545 -0.1917
 3821W        W20668  12.190   4.258   3.259  0.0237 -0.0261 -0.3450
 3822W        W20669   9.816  10.181  13.465 -0.4625  0.0244 -0.1082
 3823W        W20670  15.219   8.225   0.965 -0.1528  0.2052 -0.1287
 3824W        W20671  14.206   4.836   1.211 -0.2084 -0.1364 -0.3685
 3825W        W20672  16.807  11.826   4.792  0.0033 -0.2593  0.2881
 3826W        W20673   6.607  12.180  11.406 -0.0085 -0.1438  0.1392
 3827W        W20674  13.627  10.761  11.610  0.1962 -0.1690 -0.0872
 3828W        W20675   6.461   3.405   1.105  0.0291  0.1941  0.0215
 3829W        W20676   8.330  13.079   1.875  0.2122 -0.0766  0.0487
 3830W        W20677   9.861  15.679  13.383  0.1669 -0.1105  0.2697
 3831W        W20678   8.518   5.961   5.098  0.0359  0.0935 -0.0430
 3832W        W20679  13.422   5.660  10.685  0.0147  0.1058 -0.4294
 3833W        W20680   4.995   0.015   1.244 -0.1484 -0.0812  0.1502
 3834W        W20681  12.325   4.363   0.151 -0.1312  0.1878  0.2777
 3835W        W20682   9.447   9.389  12.501  0.2036  0.0756 -0.2956
 3836W        W20683  12.453   8.775  14.816 -0.3249 -0.3736  0.1632
 3837W        W20684  12.031   5.131  11.574  0.1300  0.2699  0.2037
 3838W        W20685  13.164  14.908   3.294 -0.3209  0.1845  0.2217
 3839W        W20686  17.458  16.544  13.394 -0.1600 -0.1140 -0.1788
 3840W        W20687  15.440  17.893   1.831 -0.1107  0.1902 -0.1213
 3841W        W20688   6.317  13.805  15.149 -0.2915  0.0404 -0.1255
 3842W        W20689   7.805   0.053   1.647 -0.1131 -0.2046 -0.2630
 3843W        W20690   8.778   7.113   1.758  0.0142 -0.1118 -0.2539
 3844W        W20691   6.386  12.818   5.476  0.0704  0.3029 -0.3407
 3845W        W20692  16.800   2.619   6.201 -0.0652 -0.3633 -0.0365
 3846W        W20693  17.212   0.058  12.769 -0.1005 -0.1576 -0.0611
 3847W        W20694  10.555  15.145   2.126 -0.1470  0.0664  0.1036
 3848W        W20695   5.926  11.191   2.574  0.2256 -0.1315 -0.2083
 3849W        W20696  18.026   2.410   3.839  0.0264 -0.0605  0.3554
 3850W        W20697   7.552  11.056   4.623  0.1940 -0.1584  0.1176
 3851W        W20698  17.292   1.912  11.602 -0.0991  0.2772 -0.0107
 3852W        W20699   7.797  15.391  13.403  0.1585  0.1006 -0.1013
 3853W        W20700  13.966   7.097  13.658 -0.0237  0.0291 -0.1701
 3854W        W20701   9.579   4.070  14.394  0.0141 -0.1475 -0.3042
 3855W        W20702  13.011  16.342   2.048 -0.0081 -0.0394 -0.0875
 3856W        W20703   9.834   3.393  13.283 -0.3065  0.1915 -0.2191
 3857W        W20704   3.493   2.517   5.221  0.3341 -0.1427  0.1270
 3858W        W20705   9.140  10.125   3.859  0.0488 -0.0554  0.0249
 3859W        W20706  13.596   3.433  12.944  0.1369 -0.0298 -0.0180
 3860W        W20707   6.269  11.800  13.583  0.0246 -0.1439 -0.0089
 3861W        W20708  16.046  14.010  11.901 -0.0897  0.0190 -0.3043
 3862W        W20709   3.815   4.483   3.172  0.0177 -0.0707  0.3694
 3863W        W20710   0.044   7.010  11.870  0.1606  0.2874 -0.1147
 3864W        W20711   2.551   3.253   5.434 -0.2791 -0.0935  0.2273
 3865W        W20712   2.175  17.177   1.426  0.0613  0.1099 -0.0958
 3866W        W20713   0.631   7.018  14.050  0.2687  0.1070  0.2439
 3867W        W20714   7.233  11.646  13.204 -0.1512 -0.2196 -0.0437
 3868W        W20715   4.290  16.029  11.509  0.3476 -0.0280  0.2638
 3869W        W20716  17.938   7.402  13.194 -0.1737 -0.4715 -0.2330
 3870W        W20717   6.993  15.767  14.681 -0.0609  0.0914 -0.0399
 3871W        W20718  11.141   7.034   3.704  0.0068  0.1085 -0.3459
 3872W        W20719  16.094  12.886  13.300  0.3506  0.0114 -0.1584
 3873W        W20720   7.804   7.832  11.934  0.0817 -0.0775 -0.0978
 3874W        W20721  10.191  17.939  13.100 -0.0865  0.1345  0.2686
 3875W        W20722   2.477  16.133  11.092  0.0386 -0.0076 -0.0332
 3876W        W20723  11.993  15.137  15.747 -0.1201 -0.1623 -0.0621
 3877W        W20724   5.224   1.746   4.864  0.1039  0.0323  0.0054
 3878W        W20725   2.522  11.054   4.706 -0.0586  0.0347  0.1446
 3879W        W20726   4.072   0.029  15.159  0.1829 -0.2362  0.1360
 3880W        W20727   2.644   5.048  13.497 -0.1926 -0.0598 -0.1932
 3881W        W20728   3.563  15.860  11.186 -0.1104  0.2410 -0.2397
 3882W        W20729  13.994   9.514   2.727  0.1064  0.0436  0.0132
 3883W        W20730   9.631  18.193   2.030 -0.0209 -0.1327  0.1555
 3884W        W20731  14.740   5.112  10.764  0.2152  0.2836  0.3421
 3885W        W20732  12.816   3.900  15.332 -0.2409 -0.0277  0.0030
 3886W        W20733   2.710   7.255   1.069  0.2913 -0.2898  0.2094
 3887W        W20734   9.113  11.317  12.172 -0.1742  0.2477  0.0166
 3888W        W20735  11.961  17.615   0.825  0.0199  0.2441  0.1171
 3889W        W20736  14.882  11.168  13.259  0.2382  0.1584  0.1197
 3890W        W20737   4.743  12.235   5.269  0.0318 -0.0474  0.2453
 3891W        W20738  10.960   4.248   1.255  0.2284  0.0733  0.2021
 3892W        W20739  14.711   1.088   3.531 -0.3330  0.0987 -0.0552
 3893W        W20740   9.128   1.471   2.403  0.3899  0.3235 -0.2389
 3894W        W20741  10.504   7.943   2.286  0.0456 -0.0784 -0.0453
 3895W        W20742   3.578  10.047   2.286 -0.0628  0.1307  0.1138
 3896W        W20743  14.546   2.615  15.924  0.0939 -0.0743 -0.0434
 3897W        W20744   2.617   5.597  11.603 -0.0530  0.2206  0.0657
 3898W        W20745   1.560  14.824   1.482  0.0476 -0.1527  0.1188
 3899W        W20746  17.469   3.309  14.623 -0.1077  0.1475  0.1704
 3900W        W20747   3.213  10.369  11.541  0.0616  0.0603 -0.1375
 3901W        W20748  11.572  11.370   3.814 -0.1269  0.3462  0.2230
 3902W        W20749   7.825  17.518   4.840 -0.1432 -0.3009  0.1677
 3903W        W20750   0.282   7.165  11.449 -0.3549 -0.2135  0.2529
 3904W        W20751  15.539   6.862  13.927  0.1728 -0.1717 -0.3678
 3905W        W20752   7.678   4.166   2.594  0.4747  0.0485  0.0318
 3906W        W20753   1.184   1.296   5.833 -0.2003  0.3771  0.0114
 3907W        W20754   0.711  16.693   1.560 -0.0695  0.0278 -0.4066
 3908W        W20755  10.301  12.223  13.039 -0.3313 -0.4943  0.1021
 3909W        W20756   8.529   4.436  14.981 -0.0141  0.0633 -0.0161
 3910W        W20757   3.410  10.041  13.349 -0.0339 -0.1161  0.2328
 3911W        W20758   2.354   2.664   4.811  0.1171 -0.0926  0.1407
 3912W        W20759  12.393  12.716  14.904  0.0711  0.1805  0.0844
 3913W        W20760   8.887  16.739   4.491 -0.2715  0.1297  0.1027
 3914W        W20761   3.970   5.021   2.140  0.1011 -0.0858 -0.1461
 3915W        W20762  14.007  10.726   1.749 -0.3382  0.2213 -0.2021
 3916W        W20763   2.340   8.548  12.025  0.1593 -0.1305  0.0451
 3917W        W20764   3.477   2.988   3.724  0.2865 -0.3652  0.0079
 3918W        W20765   2.857  11.250  14.580 -0.2012 -0.0391  0.0540
 3919W        W20766  15.016   5.897   1.974 -0.1861 -0.4470  0.1414
 3920W        W20767   8.450  15.024   3.889 -0.0541  0.1343  0.0997
 3921W        W20768   5.188   3.555   1.717 -0.0424  0.3735 -0.3181
 3922W        W20769   5.553  10.155  12.870  0.2905  0.1279 -0.0816
 3923W        W20770   7.496   3.452  14.831  0.1282 -0.0544  0.1626
 3924W        W20771   2.593   6.898  14.868  0.0676 -0.1713  0.0034
 3925W        W20772  17.754   6.630   2.256 -0.2327  0.1925  0.3316
 3926W        W20773  12.129   5.241  15.559 -0.0912 -0.0997 -0.0900
 3927W        W20774   4.446  10.693   0.287  0.3253  0.1180 -0.0850
 3928W        W20775   5.733   2.024  11.684 -0.1935 -0.2853 -0.3458
 3929W        W20776   2.808  11.269  12.084 -0.0558  0.0555 -0.0581
 3930W        W20777   7.921   7.177   4.351 -0.1938 -0.0717 -0.1612
 3931W        W20778   7.366   7.589  12.798 -0.2382 -0.1153  0.2873
 3932W        W20779  11.474  17.816   1.652 -0.2522 -0.2194  0.1066
 3933W        W20780  10.982   7.963   0.372 -0.0695 -0.0044 -0.1334
 3934W        W20781  11.481  15.474   3.091 -0.0409 -0.1175  0.2067
 3935W        W20782  15.995  13.085   3.143  0.0467 -0.0022 -0.0076
 3936W        W20783  10.388  16.294  13.101 -0.1231  0.1219  0.1400
 3937W        W20784   8.781  12.062   0.159  0.2141 -0.0237 -0.1054
 3938W        W20785  11.171   7.817  13.895 -0.0291 -0.1283  0.2997
 3939W        W20786   8.352   0.271  14.719  0.0384 -0.0706 -0.2572
 3940W        W20787  14.605   5.687   1.209  0.0977  0.1404  0.0509
 3941W        W20788   8.712   1.548   4.570  0.0638  0.1884 -0.0082
 3942W        W20789  12.981   7.345   2.390  0.4252  0.2186  0.0727
 3943W        W20790  15.171  15.068   0.131 -0.1432 -0.1631  0.2131
 3944W        W20791   6.153  17.433  12.742 -0.1302  0.2250 -0.1937
 3945W        W20792  10.108   1.210   0.600 -0.1674 -0.0924  0.4682
 3946W        W20793  12.093   6.906  14.353  0.2146  0.0116 -0.2007
 3947W        W20794   6.804   2.835  11.359 -0.0339 -0.4353 -0.2482
 3948W        W20795   7.147   8.629  11.321 -0.1439 -0.1975  0.0319
 3949W        W20796  15.399   0.699   3.137 -0.1570 -0.2506  0.2678
 3950W        W20797  16.559   2.629  12.028  0.1444 -0.0077 -0.0728
 3951W        W20798   5.929   0.898   2.092  0.0574  0.0454 -0.2905
 3952W        W20799  12.768   8.755  13.029 -0.0533  0.2630  0.3391
 3953W        W20800  11.943   4.726  14.034  0.0251 -0.2169  0.0489
 3954W        W20801  15.199  16.350   4.614 -0.1486  0.1868  0.1307
 3955W        W20802   9.590  11.236  13.754  0.0329  0.1287 -0.1068
 3956W        W20803   0.496   9.982  15.065 -0.0091  0.1789 -0.1750
 3957W        W20804   5.348  15.915  12.801  0.2726  0.3292 -0.3260
 3958W        W20805   4.162   0.359  12.924  0.1173  0.0178 -0.0806
 3959W        W20806   5.867   7.328  11.140 -0.0750 -0.0833  0.0675
 3960W        W20807   2.893   4.589  13.381  0.1818 -0.0705  0.0845
 3961W        W20808  16.143   6.597  14.522  0.2730  0.0946 -0.1146
 3962W        W20809   5.584   1.728  11.250  0.0915  0.5711  0.2298
 3963W        W20810   0.999  17.456  14.657  0.2881  0.2357 -0.0005
 3964W        W20811  14.137  15.314   0.495  0.0340 -0.1194  0.2184
 3965W        W20812  10.923  18.507   5.160 -0.1225 -0.1661  0.1909
 3966W        W20813   2.347   2.505   3.842 -0.3236  0.1034  0.0295
 3967W        W20814   6.492   8.105   4.912  0.4200 -0.0191 -0.0821
 3968W        W20815  18.106   2.465  12.957  0.1866  0.2577  0.0606
 3969W        W20816   5.994   6.702   0.583 -0.3385  0.3153  0.0014
 3970W        W20817   0.018  13.533  11.605  0.3135 -0.2517 -0.0699
 3971W        W20818   4.203   0.232  11.970  0.2507  0.1365 -0.2634
 3972W        W20819   9.441   3.136  14.468 -0.1872  0.2021  0.0754
 3973W        W20820   6.685  12.561   3.559  0.0958 -0.0028  0.0553
 3974W        W20821  15.807  14.050  13.432  0.0251 -0.1759 -0.2358
 3975W        W20822   3.225   0.031   4.364  0.0596 -0.0246  0.1772
 3976W        W20823   4.651   8.651  15.436  0.1923 -0.1011 -0.0485
 3977W        W20824   6.368  14.729   0.769  0.1155 -0.0415  0.0824
 3978W        W20825   5.831  13.078  13.678  0.0727 -0.0499 -0.2138
 3979W        W20826  16.148   8.107   1.679 -0.0586  0.0012 -0.0947
 3980W        W20827  15.825   2.889  13.648  0.2693 -0.0685  0.0341
 3981W        W20828   4.243   8.771  13.111 -0.1108 -0.2041 -0.0934
 3982W        W20829   8.275  15.261   3.105  0.0267 -0.1040  0.2950
 3983W        W20830   8.254  17.077   0.632 -0.1593 -0.0368 -0.2804
 3984W        W20831  11.321  17.031   0.694  0.0792  0.1554  0.0714
 3985W        W20832  16.293  13.914   0.372  0.2592 -0.2203  0.2302
 3986W        W20833  13.551  10.696  12.882  0.1407  0.0847  0.2157
 3987W        W20834   2.435   7.288   4.426  0.1902  0.0520 -0.1006
 3988W        W20835   1.647  10.294   0.982 -0.0234 -0.1739 -0.3085
 3989W        W20836   8.668  10.943   2.842  0.1298  0.0379 -0.0805
 3990W        W20837  17.498   6.313   4.889 -0.1837  0.0566 -0.0256
 3991W        W20838   7.067  14.569  12.436 -0.0792  0.2082 -0.1699
 3992W        W20839  13.019  10.625  14.302 -0.0634 -0.2530 -0.2632
 3993W        W20840  13.621  16.322   1.839 -0.1787 -0.4858  0.2969
 3994W        W20841  12.925   6.176  12.314 -0.3014  0.2544  0.1118
 3995W        W20842   6.145  12.552   6.340 -0.0489 -0.1279  0.1037
 3996W        W20843  18.086  11.553  13.010 -0.0642  0.2160 -0.0886
 3997W        W20844   8.180   8.269   2.386 -0.2194 -0.2306 -0.0738
 3998W        W20845   1.726  15.333  12.482  0.2345  0.0193 -0.0868
 3999W        W20846  11.927   4.615   0.809 -0.3555 -0.1924  0.1654
 4000W        W20847   7.687   9.341  12.611  0.1856  0.1457  0.0280
 4001W        W20848  14.833  15.254  15.052  0.0087 -0.1647  0.2415
 4002W        W20849  13.310   6.176  15.466  0.0033  0.1068  0.1402
 4003W        W20850   2.658  13.327   0.379 -0.0562  0.0668  0.1034
 4004W        W20851   3.060  12.155  14.139 -0.3553 -0.0247 -0.1863
 4005W        W20852   0.172   0.262   0.331 -0.0766 -0.2375 -0.1491
 4006W        W20853  17.205  10.570  15.029  0.2433  0.0505 -0.0194
 4007W        W20854  14.384   8.889   1.353 -0.2557 -0.0622 -0.2360
 4008W        W20855   4.157  12.503  15.775 -0.0712 -0.1634 -0.0540
 4009W        W20856  17.444  17.857  12.310  0.0334 -0.1167 -0.2186
 4010W        W20857  18.222  14.349  11.982  0.2069 -0.3846 -0.0698
 4011W        W20858   8.595  17.464   3.869  0.2482 -0.2885  0.4757
 4012W        W20859   4.269   5.623  12.518  0.1125 -0.3328 -0.1246
 4013W        W20860   3.266   7.791   4.296 -0.0223  0.1309 -0.2489
 4014W        W20861   5.344  11.620   2.912  0.0615  0.0311 -0.2733
 4015W        W20862  12.977   4.295   1.468  0.0393 -0.2476  0.1096
 4016W        W20863   2.936  15.287  15.255  0.0891  0.0554  0.1813
 4017W        W20864   0.553  10.457  11.564  0.3373 -0.0879  0.0214
 4018W        W20865   8.632  11.682  15.795  0.0149 -0.0784 -0.0849
 4019W        W20866  14.453   0.033  13.670  0.1294 -0.2372  0.2242
 4020W        W20867  10.111  12.045   2.437 -0.0143  0.0065 -0.2415
 4021W        W20868  17.980   2.176   4.267  0.1824  0.1290  0.0756
 4022W        W20869  12.403   7.953   0.340  0.0570  0.1958  0.1192
 4023W        W20870  15.487  18.228  12.365 -0.3704  0.1679  0.1316
 4024W        W20871   8.684   3.506  11.292  0.0586 -0.1583 -0.2732
 4025W        W20872   5.515  17.529   4.494  0.1470 -0.1043  0.1259
 4026W        W20873   5.645  18.038  14.843 -0.3378  0.1017 -0.0470
 4027W        W20874  11.023   0.781   2.329 -0.1642 -0.2418  0.0601
 4028W        W20875   0.565  11.954  15.153  0.4453 -0.0844  0.2791
 4029W        W20876  15.735  15.020  14.602 -0.2812 -0.2020 -0.2966
 4030W        W20877  15.658  14.899   2.219  0.2094 -0.0803 -0.1024
 4031W        W20878   7.567   9.466   3.023 -0.2239 -0.2045 -0.0089
 4032W        W20879   7.253   8.505  14.012 -0.1589 -0.0410  0.1720
 4033W        W20880   7.842  10.199   3.918 -0.0662  0.0466  0.0571
 4034W        W20881  13.945  13.204   5.828 -0.5363 -0.0972  0.0534
 4035W        W20882  13.502  14.782   2.402  0.3138 -0.1991 -0.1095
 4036W        W20883   8.942   4.766  12.048 -0.0284  0.1224 -0.3193
 4037W        W20884  15.384   0.706  10.543 -0.3299 -0.0111  0.1130
 4038W        W20885   2.567   6.186  11.706 -0.2088  0.0240 -0.0193
 4039W        W20886  10.084   8.701  12.472 -0.1016  0.0416 -0.4336
 4040W        W20887   6.172  10.750   2.622  0.1344  0.0180 -0.2129
 4041W        W20888   7.440   8.166   5.322  0.2010 -0.0225  0.4202
 4042W        W20889  11.051  10.333  15.453 -0.2471 -0.3115  0.0041
 4043W        W20890   3.462  14.229   4.528 -0.0262  0.0788  0.1395
 4044W        W20891   7.851  18.075  14.553  0.1211  0.0935 -0.2404
 4045W        W20892   3.590  14.132   1.333 -0.0858  0.0228  0.1103
 4046W        W20893  12.342   5.565   1.531 -0.1542  0.0049  0.0004
 4047W        W20894   7.424   8.385  14.971  0.0992  0.2024 -0.2395
 4048W        W20895  16.107  14.983   1.861  0.4307  0.1182  0.0624
 4049W        W20896  14.535   4.572   4.298 -0.1746  0.0772 -0.0186
 4050W        W20897   4.353  12.220   3.433  0.0029 -0.3152  0.0368
 4051W        W20898  16.321   3.742  14.377  0.0254 -0.1720  0.0166
 4052W        W20899   4.157  13.554   4.812  0.1032  0.0537 -0.3513
 4053W        W20900  12.062   5.751  14.734  0.1043  0.1379  0.1372
 4054W        W20901   1.257  11.163  11.873  0.0540 -0.2473  0.1168
 4055W        W20902   8.499  15.103   1.843  0.1262  0.1074 -0.2977
 4056W        W20903  12.356  16.041   1.230  0.2829  0.1702 -0.2165
 4057W        W20904  11.863  11.761   4.488  0.2524 -0.1995 -0.0465
 4058W        W20905  11.957   2.758  10.260 -0.3481  0.0407 -0.1745
 4059W        W20906   8.586  17.933   1.317  0.0939  0.0248  0.3795
 4060W        W20907   9.871   2.330  12.366 -0.0917 -0.1396  0.1253
 4061W        W20908   4.113  10.120   4.104  0.0080 -0.1477  0.2178
 4062W        W20909   7.819  12.168  14.160  0.3980  0.0743 -0.3073
 4063W        W20910   5.784   8.001  14.057 -0.1488 -0.0023  0.0815
 4064W        W20911   4.330   4.221  11.030 -0.0057 -0.0534  0.0352
 4065W        W20912  11.054   9.797   0.094 -0.0060 -0.1097 -0.0392
 4066W        W20913   8.729  13.719  12.269 -0.1099  0.2651  0.2134
 4067W        W20914  11.466  13.985   0.412  0.1024  0.3367 -0.1287
 4068W        W20915   8.345   8.425  12.052 -0.1080 -0.2374 -0.1191
 4069W        W20916  18.526   7.042  12.507 -0.0232 -0.1114 -0.0010
 4070W        W20917   3.647   9.906   0.349  0.0597  0.1248  0.0460
 4071W        W20918   1.738   4.923  15.553 -0.2817  0.0866 -0.2006
 4072W        W20919   9.197   3.711   4.068 -0.0301  0.3616  0.2505
 4073W        W20920   0.103   5.999   3.259  0.0543 -0.1151  0.2083
 4074W        W20921   6.823  18.089  11.832 -0.2940 -0.0731 -0.1903
 4075W        W20922  10.007   7.727  11.546 -0.4357 -0.0913 -0.2333
 4076W        W20923  10.591  17.330  14.320  0.1703 -0.0251 -0.2475
 4077W        W20924  17.751  11.936  12.566  0.3755  0.4243 -0.3394
 4078W        W20925   6.088   4.270   0.600  0.1989 -0.5352 -0.0594
 4079W        W20926   6.122   8.295   1.723 -0.2097  0.2218  0.4187
 4080W        W20927   0.340   3.568   4.163  0.0420  0.0972  0.2802
 4081W        W20928   3.072  10.635  15.504  0.1474 -0.3733  0.0776
 4082W        W20929  11.597  16.802  10.079 -0.2119 -0.0281 -0.0034
 4083W        W20930   1.593   1.914   3.724  0.1594  0.0383  0.1471
 4084W        W20931   7.199   8.025  12.613 -0.1389 -0.0424  0.1146
 4085W        W20932   1.423   9.629  10.621  0.0994 -0.1872  0.0139
 4086W        W20933  10.763  16.763   1.517  0.1760  0.3336  0.0765
 4087W        W20934   1.637  13.828   1.812  0.0419 -0.0177 -0.0955
 4088W        W20935  10.790  10.169  13.509 -0.3193  0.0612  0.1354
 4089W        W20936   2.021  17.470  14.524  0.0176  0.2259  0.1193
 4090W        W20937  10.828  16.923   3.596 -0.0028 -0.1976  0.2193
 4091W        W20938   4.875   0.514  15.207 -0.0266  0.1465  0.0440
 4092W        W20939  13.299   5.440   5.655 -0.0019 -0.0682  0.1238
 4093W        W20940   7.246  13.048  13.416 -0.4436 -0.2059 -0.2255
 4094W        W20941   8.868   1.161   1.920  0.2265  0.1829  0.0946
 4095W        W20942   8.623   0.618  13.998 -0.1558 -0.1571  0.0872
 4096W        W20943   1.995   5.451   3.607  0.1306  0.3136  0.1354
 4097W        W20944  17.970   5.999  12.709  0.0272  0.0355  0.2204
 4098W        W20945   0.635   8.625   3.206  0.1807  0.2132 -0.0902
 4099W        W20946  10.735   5.380   1.384 -0.2303 -0.1354  0.0223
 4100W        W20947   1.979   0.171  13.069  0.0830 -0.2458 -0.0688
 4101W        W20948   9.730  12.433  15.109 -0.0540 -0.2545 -0.0100
 4102W        W20949   0.365  17.669  15.313 -0.3535  0.0910  0.1607
 4103W        W20950  11.575  18.363  12.611 -0.1670  0.0858  0.2653
 4104W        W20951  14.186  16.858   2.455  0.2888 -0.1964  0.0011
 4105W        W20952   3.329   7.757  15.838 -0.4939 -0.0631  0.0003
 4106W        W20953  18.019  13.022  12.293  0.0360 -0.0389  0.1457
 4107W        W20954   8.332   6.541   3.100  0.1826  0.1210 -0.2375
 4108W        W20955   8.629   2.732  10.301  0.3085  0.1391 -0.2350
 4109W        W20956  12.881  13.820   0.014  0.1663 -0.0948  0.1177
 4110W        W20957  11.419  12.255  14.081 -0.1137  0.1406  0.1555
 4111W        W20958  10.312  12.117   0.679  0.2609 -0.0076 -0.1963
 4112W        W20959   2.752   0.715  15.694 -0.1200  0.1061 -0.4850
 4113W        W20960  17.195   7.004  14.334  0.0453  0.1322  0.1667
 4114W        W20961   5.938   1.637   1.838 -0.2093  0.2281 -0.0544
 4115W        W20962  11.214  12.461   2.936  0.1460  0.1728 -0.1792
 4116W        W20963   4.682   7.919  15.162  0.0962  0.0407  0.1051
 4117W        W20964  10.726  10.883  15.285  0.0754  0.3924  0.2161
 4118W        W20965  17.352  16.345   0.608  0.2071  0.1674  0.0025
 4119W        W20966   2.455  17.634  14.639 -0.0062  0.1255  0.0257
 4120W        W20967   9.696   2.149   3.787 -0.2193 -0.1279  0.0338
 4121W        W20968  17.671   2.764  11.524  0.3330 -0.0254  0.1037
 4122W        W20969   8.658   0.667   4.991 -0.0082  0.0016  0.1016
 4123W        W20970  18.254  16.787   0.447 -0.1272  0.4056  0.0555
 4124W        W20971  12.377   9.130   3.066 -0.0336 -0.1957  0.0889
 4125W        W20972  13.451  17.781  14.957 -0.2749 -0.0182  0.2055
 4126W        W20973  11.599  12.739   3.605 -0.1503  0.0256 -0.2165
 4127W        W20974   8.583  13.265  11.167 -0.1684 -0.2696 -0.4090
 4128W        W20975   4.155   3.232   1.705  0.0595 -0.1200  0.1128
 4129W        W20976   0.957   5.228  15.329 -0.0853  0.1684  0.0819
 4130W        W20977   0.357  12.286   1.113  0.0649  0.1074  0.1956
 4131W        W20978   9.153   3.825   3.570  0.0560 -0.0566  0.1958
 4132W        W20979   3.590   6.967   2.213 -0.0222 -0.0667 -0.1063
 4133W        W20980   6.001   0.364  12.737  0.2578 -0.1217  0.0895
 4134W        W20981  14.519   6.683   3.502  0.0502 -0.0753 -0.1264
 4135W        W20982  14.873   2.691   3.271 -0.1317 -0.4146  0.0043
 4136W        W20983   0.031  12.345   3.970 -0.1186  0.2441 -0.0436
 4137W        W20984  17.061   1.532   3.208  0.0189  0.1010 -0.0447
 4138W        W20985  16.220   4.326   0.368  0.0085  0.1135 -0.1661
 4139W        W20986  10.201  16.416   2.237 -0.1191  0.3703 -0.1108
 4140W        W20987   2.762   8.360   3.312  0.0957 -0.1837  0.2640
 4141W        W20988  14.497   6.654  12.586  0.2118  0.4675  0.0024
 4142W        W20989  16.371  12.722   2.666 -0.1749  0.0713  0.1730
 4143W        W20990   8.660   1.238  15.493  0.1186 -0.1464  0.3109
 4144W        W20991   4.225  13.580   3.297  0.0968 -0.1731  0.1156
 4145W        W20992   1.495   9.924  15.833 -0.1566 -0.0917 -0.0401
 4146W        W20993   4.088   1.920  12.225  0.2604 -0.1669  0.0839
 4147W        W20994  13.739  14.060   4.251  0.4528  0.0083 -0.0730
 4148W        W20995   9.863   2.618   2.721  0.0480 -0.1337 -0.0520
 4149W        W20996   6.785   2.124   5.192  0.1534  0.1909  0.0553
 4150W        W20997   5.083   2.820   0.915  0.1961 -0.0302  0.0205
 4151W        W20998   1.085   7.811   0.975 -0.2032 -0.0288  0.0090
 4152W        W20999   4.007  18.369   5.104 -0.4122  0.0038  0.1088
 4153W        W21000  12.752  15.862  12.262  0.0536  0.0297  0.0554
 4154W        W21001  16.309   1.123  13.077 -0.0988  0.3312 -0.1160
 4155W        W21002  15.365   5.389  14.324  0.1960  0.1315  0.1205
 4156W        W21003  10.494  14.460  13.965  0.3216 -0.1651  0.0363
 4157W        W21004   2.413  12.604  13.523 -0.0049 -0.0906 -0.0732
 4158W        W21005  17.794  17.938  15.153  0.2868  0.0562 -0.0358
 4159W        W21006  12.908   5.305   4.150 -0.2558 -0.0995 -0.0605
 4160W        W21007   6.984   6.131   0.324  0.0750  0.0308  0.1477
 4161W        W21008  16.441   0.190   2.268 -0.1961  0.1405  0.4116
 4162W        W21009   3.638   6.728   4.729 -0.2764 -0.2096  0.3634
 4163W        W21010   7.451   4.528  12.226 -0.1161 -0.0189 -0.1059
 4164W        W21011  10.135   3.710   3.902 -0.0321  0.3298 -0.0064
 4165W        W21012   2.139   8.065  12.059 -0.2955 -0.3772  0.0089
 4166W        W21013  15.509   0.666  14.481 -0.2378  0.0766  0.0491
 4167W        W21014   0.077   2.676   4.538 -0.0980  0.1810  0.2497
 4168W        W21015  17.289  10.743  13.557  0.2605 -0.1461  0.1710
 4169W        W21016   0.144   7.002   4.398 -0.1368 -0.1168  0.0648
 4170W        W21017  14.289   4.862  12.746 -0.1383 -0.2911 -0.0061
 4171W        W21018   5.089   0.399   4.289 -0.0885  0.1167  0.2649
 4172W        W21019   9.852  13.585   0.130 -0.1924 -0.1358 -0.4966
 4173W        W21020  13.778   5.410   4.607  0.1133 -0.0910 -0.2090
 4174W        W21021   9.002   8.536   2.767  0.0975 -0.1464 -0.1933
 4175W        W21022   7.524  16.469   2.979 -0.0144 -0.1933  0.0692
 4176W        W21023   2.258  13.677  10.983 -0.3617 -0.0284  0.0128
 4177W        W21024  15.035  14.172  14.373 -0.1940 -0.1051 -0.0501
 4178W        W21025   3.862   4.279  12.971 -0.1350 -0.0319 -0.2332
 4179W        W21026   6.127  13.855   2.846 -0.2206  0.0156 -0.1238
 4180W        W21027  10.168   5.034  11.986  0.1085 -0.1902 -0.0271
 4181W        W21028   2.893   8.769   1.459 -0.1328  0.1560  0.3238
 4182W        W21029  12.857   1.895   2.861  0.1870 -0.1291  0.1215
 4183W        W21030   1.855  11.603   3.781 -0.0304 -0.1638 -0.0815
 4184W        W21031   5.398   8.623   1.594  0.0976  0.1542 -0.0412
 4185W        W21032  10.101   6.520   2.971 -0.1377  0.0660 -0.0904
 4186W        W21033  11.406   0.355   2.218  0.1371 -0.1503  0.4390
 4187W        W21034   1.873  17.185  10.828  0.0043  0.1506 -0.1311
 4188W        W21035  11.354   8.627  11.282 -0.0445  0.0858  0.0671
 4189W        W21036  12.376  10.105  12.135 -0.0887 -0.1876  0.3443
 4190W        W21037  18.158  10.308   3.458 -0.0862 -0.2889 -0.0391
 4191W        W21038   1.441   3.733   2.131  0.2327  0.3352  0.1640
 4192W        W21039  15.419   5.950  13.636 -0.0971 -0.0007 -0.0169
 4193W        W21040   1.481   4.227   2.477  0.0763  0.2040 -0.0963
 4194W        W21041  10.658  17.270   2.474 -0.3661  0.1354  0.1868
 4195W        W21042  14.016   3.204   0.426 -0.0145 -0.2654  0.1107
 4196W        W21043  16.759   0.144  14.510 -0.1361  0.3573 -0.0819
 4197W        W21044   6.447   4.757   0.788  0.1431  0.1716 -0.4758
 4198W        W21045   8.269   3.879  10.797 -0.1600 -0.0037 -0.2720
 4199W        W21046   9.330   2.862   0.472 -0.1807  0.3325  0.2350
 4200W        W21047  14.669  13.699   2.211  0.1769  0.0395 -0.1155
 4201W        W21048   3.866  11.255  14.174  0.1895 -0.2453  0.2812
 4202W        W21049   7.739  14.582   0.326 -0.1606  0.0403 -0.2050
 4203W        W21050   9.218   1.645  14.717 -0.0270  0.3676 -0.0190
 4204W        W21051  15.197   8.108  14.573  0.1814  0.0075  0.0354
 4205W        W21052   8.018   1.437   1.587  0.0874 -0.0454  0.0018
 4206W        W21053   7.151  17.052  12.830  0.0343  0.2045  0.0213
 4207W        W21054   9.884   3.182   0.940 -0.1925 -0.3628  0.4016
 4208W        W21055   9.664   7.624   3.762  0.1209 -0.0113 -0.1983
 4209W        W21056  13.557   2.248   1.401  0.0881  0.1328  0.2589
 4210W        W21057   4.826   6.627  13.419 -0.0756  0.1873 -0.0574
 4211W        W21058   5.981  15.187  15.343  0.2214 -0.3319 -0.0793
 4212W        W21059  17.723   7.003   4.606  0.2514  0.0832  0.3116
 4213W        W21060  16.958  15.597  11.350 -0.1269 -0.1142  0.0464
 4214W        W21061  12.791   7.787   5.243 -0.1741  0.0156  0.0059
 4215W        W21062   1.282  10.023   2.469  0.0962  0.1159 -0.1333
 4216W        W21063  10.067  13.226  13.411  0.0377 -0.0125 -0.0749
 4217W        W21064  16.658  10.758   5.650  0.0181  0.0062  0.1870
 4218W        W21065   2.805   7.902   3.038 -0.3432 -0.0662 -0.3186
 4219W        W21066  14.166  10.119  15.790  0.2609  0.0309  0.5029
 4220W        W21067  10.351   0.041   1.011 -0.0163 -0.2788  0.0688
 4221W        W21068  15.771   6.762   0.076  0.3878 -0.2966  0.2494
 4222W        W21069   5.155  12.287   3.373 -0.1968  0.0859 -0.3001
 4223W        W21070   3.089   7.106  12.403  0.1391  0.1734 -0.0222
 4224W        W21071   2.253   5.737  14.672 -0.2527  0.2350 -0.0141
 4225W        W21072  16.288  10.544  13.393  0.1111  0.0366  0.0269
 4226W        W21073   2.513  14.984  13.210 -0.3828 -0.2679 -0.0303
 4227W        W21074   0.336   3.826   2.211  0.1320  0.1857 -0.1362
 4228W        W21075  11.180   4.258   3.636 -0.0680  0.3684  0.1110
 4229W        W21076  15.863   0.868  11.749  0.1726  0.0511  0.1616
 4230W        W21077   2.310  13.026  14.581 -0.0423 -0.0337  0.1101
 4231W        W21078  12.212   4.588  14.794 -0.3220 -0.0809 -0.0142
 4232W        W21079   0.311  11.028   1.100  0.1254 -0.0635 -0.1159
 4233W        W21080   4.030  13.244  15.830 -0.1220 -0.0105 -0.0490
 4234W        W21081  10.756  15.225   1.665  0.1060  0.0919 -0.0225
 4235W        W21082  10.128   3.669  12.243  0.1678 -0.0725 -0.2356
 4236W        W21083   0.135   4.082  13.285 -0.0297 -0.1965  0.1636
 4237W        W21084   9.487   1.541  10.857  0.3461 -0.0304  0.2583
 4238W        W21085  16.620  15.254   5.479 -0.1071 -0.0873  0.1719
 4239W        W21086  16.918   7.402   1.742 -0.1490  0.0857 -0.1210
 4240W        W21087  12.346  15.913  13.575  0.3038  0.2633  0.1343
 4241W        W21088   4.292  17.648   1.511 -0.0516 -0.2447  0.1911
 4242W        W21089  16.263   1.238   1.461 -0.0923 -0.2054 -0.0907
 4243W        W21090   7.216   3.431   4.406  0.0352 -0.1949  0.0695
 4244W        W21091  14.530  13.806  15.537 -0.0184 -0.0127 -0.1227
 4245W        W21092   1.956   1.876   1.788 -0.2685 -0.0928  0.0886
 4246W        W21093   5.809  11.692  14.294  0.0280 -0.0947 -0.1267
 4247W        W21094   0.182  16.618  11.390 -0.4125  0.0410 -0.2518
 4248W        W21095  18.412   6.701   3.610 -0.1248 -0.0215  0.2441
 4249W        W21096  13.885  11.245   0.964 -0.1515 -0.0712  0.1701
 4250W        W21097  13.657  10.467   0.608  0.0582  0.3303 -0.0635
 4251W        W21098   9.947   1.900  11.771 -0.0055 -0.1749 -0.0601
 4252W        W21099  10.911  16.126  12.373 -0.0801 -0.1136  0.3325
 4253W        W21100   6.254   6.681   1.154  0.0348  0.0499  0.2494
 4254W        W21101   1.102  13.829   4.089  0.0805  0.0630 -0.0356
 4255W        W21102  14.524   0.918  13.817 -0.1086 -0.0528  0.3686
 4256W        W21103   7.808  18.299   2.123  0.4533  0.1372 -0.0937
 4257W        W21104   8.345   5.824   3.952  0.2664 -0.1149 -0.2009
 4258W        W21105  16.470   7.344   3.965  0.0420 -0.1197 -0.0407
 4259W        W21106  12.759   5.856   1.455 -0.0388 -0.1511 -0.4242
 4260W        W21107  14.142  15.818  13.305  0.0087 -0.1859  0.0661
 4261W        W21108   8.887   4.245   0.501  0.2136  0.2874  0.0814
 4262W        W21109  12.447   3.038  14.744  0.2547 -0.1993  0.1290
 4263W        W21110   9.228  12.232   3.111 -0.1806 -0.0784 -0.0691
 4264W        W21111   5.497   0.286  12.071  0.1500 -0.0798 -0.0187
 4265W        W21112   0.880  13.607   3.693  0.0240  0.0501  0.2449
 4266W        W21113   1.502  12.228  15.626 -0.0367 -0.0729 -0.1809
 4267W        W21114   7.115  13.510   0.404 -0.0990  0.0010 -0.5432
 4268W        W21115  12.993  10.427  14.802  0.1481 -0.1298  0.0989
 4269W        W21116   3.314  13.733  15.933 -0.0203  0.1925 -0.0128
 4270W        W21117  16.984  18.157   0.283 -0.0544 -0.0867 -0.2280
 4271W        W21118   3.013  10.449  10.221 -0.1444 -0.2142  0.3085
 4272W        W21119   7.893   6.983   3.518  0.1125 -0.1029  0.2318
 4273W        W21120  10.054   0.607   4.545 -0.1337 -0.0495  0.1053
 4274W        W21121   9.639  17.509  15.791 -0.1443  0.2516 -0.1551
 4275W        W21122   0.785   4.734  12.970  0.1126 -0.2562  0.0262
 4276W        W21123   7.379  12.207   1.139  0.0589 -0.3668  0.1567
 4277W        W21124   5.613   6.500   1.692 -0.0945  0.1063  0.0503
 4278W        W21125   6.562  18.006   5.088  0.1406 -0.0522  0.1721
 4279W        W21126   2.163  16.249   5.714 -0.0932  0.1607 -0.0905
 4280W        W21127  11.700   6.642  14.515  0.4329  0.2421  0.2181
 4281W        W21128  16.653   0.512  15.896  0.2106 -0.1184 -0.0719
 4282W        W21129  10.892  11.863  13.941  0.3962  0.0846 -0.1931
 4283W        W21130  13.165   9.754   1.665  0.2419  0.1535 -0.2159
 4284W        W21131   2.119   6.766  15.377  0.1585  0.1305  0.3786
 4285W        W21132   4.284   2.189  11.788 -0.1462  0.1423  0.0758
 4286W        W21133  10.756  17.915   1.757  0.0936 -0.0714 -0.0386
 4287W        W21134   1.574   0.935  12.078 -0.2688  0.0352  0.0197
 4288W        W21135   7.410   9.001  15.595 -0.0316  0.2449 -0.1246
 4289W        W21136  14.411   7.485   0.889 -0.1077  0.0016 -0.2658
 4290W        W21137  16.297  12.485   5.416  0.0107 -0.2825  0.0205
 4291W        W21138   8.993  10.447  12.514 -0.0497  0.1575 -0.0452
 4292W        W21139   2.494   3.867  15.915 -0.0281 -0.1964 -0.2371
 4293W        W21140   1.049   0.112   3.753 -0.0876  0.0384 -0.3938
 4294W        W21141  12.317   6.199  11.171  0.1547 -0.0888 -0.0478
 4295W        W21142  14.090  12.071  12.669  0.1181  0.0813 -0.0394
 4296W        W21143   7.083  16.012   0.387  0.0405 -0.1519  0.1781
 4297W        W21144   7.920  14.695  14.832  0.1771 -0.3788 -0.1033
 4298W        W21145   1.656   8.609   3.261 -0.1189 -0.1301  0.3677
 4299W        W21146  16.376  14.860   5.254  0.0178 -0.0369 -0.0814
 4300W        W21147   0.217  11.999   2.633 -0.2823 -0.0049 -0.1289
 4301W        W21148   1.748   3.864   1.673 -0.2445 -0.0093 -0.0800
 4302W        W21149  11.056   2.443   4.538  0.3309 -0.1488  0.0936
 4303W        W21150  14.884   6.573   3.900  0.0666  0.1170  0.0852
 4304W        W21151   3.558   2.549  14.960 -0.1969  0.0450 -0.0718
 4305W        W21152   6.982  17.375  15.543 -0.2932 -0.1717 -0.0613
 4306W        W21153   7.288   4.280   4.597 -0.0485  0.0386  0.2350
 4307W        W21154   7.537  14.125  15.410 -0.0984 -0.2569 -0.3141
 4308W        W21155   7.714  11.448  15.707  0.0427 -0.2344  0.0160
 4309W        W21156   1.001   7.904   2.789 -0.0838  0.0216 -0.0281
 4310W        W21157  15.094   0.256   6.019 -0.0336  0.4707 -0.1344
 4311W        W21158  10.794  17.191  15.644  0.0445  0.0092 -0.1647
 4312W        W21159   2.837  15.053   1.576  0.0586 -0.3140 -0.2674
 4313W        W21160   8.522   0.317  12.109 -0.0124 -0.0247 -0.0519
 4314W        W21161  10.883   6.552  12.124  0.1763  0.0684  0.0183
 4315W        W21162   0.381   1.330  11.990 -0.0673 -0.4392  0.5701
 4316W        W21163   1.258   7.129  11.442  0.0345  0.3196  0.1135
 4317W        W21164   8.405  18.209  11.333 -0.0487  0.0279  0.2985
 4318W        W21165   6.060   3.183  14.107 -0.2431  0.0949 -0.2264
 4319W        W21166   2.223  12.014   1.521 -0.0972  0.1151 -0.2992
 4320W        W21167   0.215   2.602   2.341  0.2027 -0.2128 -0.1079
 4321W        W21168   2.441  16.976   3.974  0.0337  0.0831 -0.1196
 4322W        W21169  12.622   7.794  11.916  0.0418  0.0443 -0.3665
 4323W        W21170  11.051  14.536  14.460 -0.6158  0.0740  0.1322
 4324W        W21171   6.863  14.524   0.134 -0.0006  0.0726  0.1229
 4325W        W21172   8.126   1.863   5.556 -0.2029  0.1286  0.1535
 4326W        W21173   1.042   2.796  15.327 -0.0942 -0.1313  0.0900
 4327W        W21174  12.892   1.346  11.197  0.1237 -0.0136 -0.0054
 4328W        W21175   5.457  18.054   3.528  0.1290  0.0555 -0.1546
 4329W        W21176   6.164  15.226   4.498 -0.4277 -0.3100 -0.1099
 4330W        W21177   7.080   4.520   3.826 -0.0343  0.1504 -0.0187
 4331W        W21178   4.457  18.301  11.129  0.0995  0.2486 -0.3401
 4332W        W21179  11.502  12.207  14.919 -0.1178 -0.0808  0.0340
 4333W        W21180   2.513   1.025  15.387  0.1491  0.0926 -0.3263
 4334W        W21181   3.518  11.112   2.863  0.1929 -0.0185  0.0647
 4335W        W21182   1.058  15.363   5.142 -0.1564 -0.2347  0.2107
 4336W        W21183  17.413   1.854   0.985  0.3711 -0.3546 -0.3307
 4337W        W21184  16.346  14.826  12.329  0.1129 -0.3197 -0.1909
 4338W        W21185   6.930   4.475   2.149  0.3558 -0.1131 -0.1055
 4339W        W21186   8.671   2.954  13.185  0.0694 -0.1243  0.2540
 4340W        W21187  14.359   2.642   5.646  0.3384 -0.1212  0.3099
 4341W        W21188   3.662  18.417   2.119 -0.2538 -0.0905 -0.1396
 4342W        W21189   6.885   6.722   0.062  0.0931 -0.1452  0.2144
 4343W        W21190   2.356   1.519  15.309 -0.2013  0.3562 -0.0638
 4344W        W21191  12.726   2.091  11.834  0.0453 -0.1495  0.1780
 4345W        W21192   9.895   9.304   3.113 -0.2883  0.1770 -0.0424
 4346W        W21193  16.953   1.549   1.102  0.0509 -0.1046 -0.0934
 4347W        W21194   4.878   7.023  12.655  0.0495 -0.1855 -0.1554
 4348W        W21195   1.302   1.290  10.773  0.1060  0.1408 -0.4365
 4349W        W21196   8.913   1.852   2.994  0.3466  0.1518 -0.2267
 4350W        W21197  14.464  17.447   0.906  0.0415  0.1040  0.1509
 4351W        W21198   6.339  10.944   0.295 -0.0209  0.1206 -0.1792
 4352W        W21199  11.971   8.804   3.117  0.0090  0.2117  0.0123
 4353W        W21200  10.222   4.356   0.256 -0.1296 -0.0693  0.0063
 4354W        W21201  12.062   5.588  14.103 -0.0148 -0.0554 -0.2801
 4355W        W21202  10.142   2.767   1.776  0.1784 -0.0723  0.2490
 4356W        W21203  12.463   3.669   1.158 -0.0575  0.1284  0.2476
 4357W        W21204  14.111   6.462   5.466  0.0218 -0.1329 -0.3181
 4358W        W21205  11.694  11.007  14.470 -0.0932  0.1893  0.2798
 4359W        W21206  12.223  16.352  12.852 -0.0089 -0.0421 -0.0449
 4360W        W21207   8.155   3.166   0.084 -0.0011  0.2254  0.1549
 4361W        W21208  10.286  10.935   2.313 -0.0732  0.1862  0.0267
 4362W        W21209   9.133   9.568   0.672  0.0775 -0.1731 -0.1853
 4363W        W21210   0.755  11.411  15.077 -0.3302  0.0301  0.0195
 4364W        W21211  14.328  14.887  14.348  0.0936 -0.2953 -0.1084
 4365W        W21212   8.736   2.866   3.344 -0.1395 -0.0680 -0.1206
 4366W        W21213   0.813   5.928  14.132 -0.0880 -0.0083 -0.1158
 4367W        W21214  14.273  15.851   1.181 -0.2828 -0.0359 -0.0218
 4368W        W21215   7.445  10.029   1.687 -0.0904  0.1258 -0.3010
 4369W        W21216  17.292   2.806  14.458 -0.1302  0.0957 -0.3276
 4370W        W21217   0.801   9.585  12.494 -0.2791  0.2587 -0.1014
 4371W        W21218  17.834   4.417   4.138  0.0766  0.2178  0.0677
 4372W        W21219   8.880   9.991   1.113 -0.0490 -0.0622 -0.0404
 4373W        W21220  10.092   7.042   3.008 -0.2171  0.2941  0.1747
 4374W        W21221   2.999   7.130   5.407  0.1513 -0.0438  0.1162
 4375W        W21222   8.446  11.571   0.770  0.2037 -0.0049 -0.1051
 4376W        W21223  13.523   9.766   4.486  0.0947  0.1145  0.2746
 4377W        W21224  10.899   8.993  13.448  0.1083 -0.2394  0.1816
 4378W        W21225   0.599   6.207   2.502 -0.1033  0.2008  0.3045
 4379W        W21226  14.061  12.164  15.114  0.1388 -0.0428 -0.0077
 4380W        W21227  16.042  10.620   5.350  0.2890 -0.0485 -0.1070
 4381W        W21228  11.390  12.483   4.009  0.0829 -0.5414  0.3039
 4382W        W21229   3.286  13.311   4.125 -0.1870  0.1386  0.0627
 4383W        W21230   8.653  15.032  15.572  0.0566 -0.0288 -0.0152
 4384W        W21231  16.493   8.293   5.797 -0.2049  0.0639 -0.3042
 4385W        W21232   2.966   7.906  14.942  0.1556  0.1874  0.0331
 4386W        W21233  16.832  16.410   0.837 -0.0803  0.1351 -0.1192
 4387W        W21234   8.163  18.188   1.461  0.0631  0.0424  0.0806
 4388W        W21235  17.103  10.442  13.200 -0.1384 -0.1864  0.0877
 4389W        W21236   0.550   6.696  12.552  0.0011 -0.0128  0.2329
 4390W        W21237  12.734   6.808  13.316 -0.0894  0.0488  0.0642
 4391W        W21238   3.055  16.535   5.626  0.0263 -0.3728  0.0571
 4392W        W21239  12.288   0.599   4.376 -0.0770  0.1463 -0.0994
 4393W        W21240  17.306   9.966   1.134  0.2314 -0.0148 -0.0560
 4394W        W21241   7.281   1.580   0.906  0.1739  0.2926  0.0314
 4395W        W21242   1.892  15.676  12.096 -0.1921 -0.0205 -0.2499
 4396W        W21243  17.124   9.218  15.118 -0.1191 -0.2341 -0.2045
 4397W        W21244   9.470   3.254   1.301 -0.3777  0.2976  0.3247
 4398W        W21245   3.140  14.975  15.596  0.0563  0.1343 -0.1697
 4399W        W21246   8.491   5.508  14.188 -0.1562 -0.0643  0.0484
 4400W        W21247   3.618  11.902   1.640  0.0495 -0.0786 -0.0125
 4401W        W21248  10.264  12.891   0.075  0.0302  0.0483 -0.0868
 4402W        W21249  16.625  15.773  12.161  0.2067  0.2579 -0.0875
 4403W        W21250   5.288  16.278   3.392  0.0168  0.1175 -0.1234
 4404W        W21251   7.795  17.507  11.147  0.0463  0.0229 -0.3787
 4405W        W21252   3.711   2.592  11.206 -0.0439  0.5441  0.1348
 4406W        W21253   5.511  16.794   4.039  0.0338  0.1372 -0.1086
 4407W        W21254   5.064  10.233   0.165 -0.0990  0.0756 -0.0432
 4408W        W21255   0.774   4.168  15.473  0.1753 -0.0771  0.4107
 4409W        W21256   8.399   7.876   0.197 -0.1182  0.2182  0.0477
 4410W        W21257   3.485  10.559  13.328 -0.0202  0.1104 -0.0899
 4411W        W21258  14.552  18.238   2.144  0.2418 -0.2335 -0.0939
 4412W        W21259   6.433   0.325   3.875  0.1926  0.0344  0.3897
 4413W        W21260  13.774  16.351  14.507  0.1477  0.0891  0.0299
 4414W        W21261   1.654   5.949   4.717 -0.2138  0.1651 -0.0051
 4415W        W21262  10.229   1.919   3.075  0.0134  0.0131 -0.2967
 4416W        W21263  16.311   4.064  11.751 -0.1701  0.0866 -0.4483
 4417W        W21264  16.689   3.850   0.801 -0.1148  0.3138  0.1239
 4418W        W21265  14.168  15.571   4.285 -0.0255  0.0382 -0.1721
 4419W        W21266  16.013   9.881   0.977 -0.0573  0.0575  0.0299
 4420W        W21267   2.710   5.914  14.681  0.0325 -0.0344  0.1238
 4421W        W21268   3.004   5.198  15.275  0.1626  0.2406  0.1342
 4422W        W21269   9.997   9.874   0.914  0.2031 -0.0451 -0.0736
 4423W        W21270   8.466   5.277   1.459  0.3272  0.0054  0.0444
 4424W        W21271  10.446   2.889   3.317 -0.2454 -0.4783  0.0999
 4425W        W21272  10.757  12.127   4.453 -0.2380 -0.2619  0.0171
 4426W        W21273   2.401   8.282  15.476 -0.1233 -0.2827 -0.4379
 4427W        W21274  10.106  10.443   2.329 -0.0780  0.1561  0.0599
 4428W        W21275  11.205   3.450  13.661 -0.0478  0.1665 -0.1561
 4429W        W21276  12.952  10.672  15.531 -0.1107  0.0443  0.2266
 4430W        W21277   6.155  11.022  13.282 -0.2919  0.0066  0.2896
 4431W        W21278  11.098   2.650   2.565 -0.3699  0.5207 -0.0607
 4432W        W21279  13.664  10.306  15.893 -0.1145 -0.4157  0.1278
 4433W        W21280   5.648   1.483   2.831  0.1304  0.0163  0.1257
 4434W        W21281   5.226   1.936   1.108  0.0759 -0.0326  0.0151
 4435W        W21282   7.606   9.881   2.564 -0.0251 -0.2919 -0.1246
 4436W        W21283  11.431  15.788   4.174 -0.0101  0.0159  0.0742
 4437W        W21284   0.024   7.865  11.503 -0.0263  0.0154  0.0295
 4438W        W21285   2.866   1.823  14.935  0.1342  0.1209 -0.1410
 4439W        W21286  18.289  12.281  12.473 -0.0271 -0.0472 -0.0017
 4440W        W21287   7.523  15.001   4.811 -0.2995 -0.0388 -0.2514
 4441W        W21288   3.697   7.290   4.561  0.1139 -0.4094  0.0963
 4442W        W21289   5.567   6.964  11.495 -0.1386  0.0018  0.2010
 4443W        W21290   3.929  10.279   4.596  0.3204  0.1246  0.1643
 4444W        W21291  16.778   4.866  12.146  0.0258  0.0748  0.1949
 4445W        W21292   8.626  15.172  11.257 -0.2552  0.3273  0.1274
 4446W        W21293   7.790   6.277  13.523  0.2033 -0.0034 -0.0860
 4447W        W21294   3.766   5.097  11.672  0.1218  0.0866 -0.1656
 4448W        W21295  16.241  16.638   4.287  0.0547 -0.1337 -0.0415
 4449W        W21296  11.244  12.078   5.054 -0.5389  0.4779 -0.2048
 4450W        W21297  12.586  13.766   4.671 -0.1701 -0.2291 -0.0302
 4451W        W21298   9.778  13.125  15.883  0.1844 -0.3545  0.0345
 4452W        W21299   5.568  10.702  15.281  0.1316  0.1595 -0.1234
 4453W        W21300   0.196   9.348  11.216  0.1846  0.2381 -0.2187
 4454W        W21301   4.421   9.692  15.323  0.0475  0.2566  0.1568
 4455W        W21302   8.593   9.147   1.387  0.1335 -0.1117 -0.1370
 4456W        W21303  12.896  10.088  10.729 -0.1403  0.0227  0.2151
 4457W        W21304  16.980   8.947  15.537 -0.0678  0.1908  0.1325
 4458W        W21305  12.680   8.451  12.539 -0.3194 -0.0336  0.1436
 4459W        W21306   8.004  17.072   4.933  0.0246 -0.1455  0.1480
 4460W        W21307   2.527   9.072   5.189  0.1243 -0.1474  0.2195
 4461W        W21308  11.188   1.338   4.974 -0.1632  0.1471 -0.0901
 4462W        W21309   7.831   7.983  12.870  0.0586  0.0626 -0.1045
 4463W        W21310  10.112   0.836  11.288 -0.1532  0.1964  0.1910
 4464W        W21311  14.298   0.053   0.697 -0.0570  0.1076 -0.0173
 4465W        W21312   0.125   3.337  13.876  0.1592 -0.0305 -0.0211
 4466W        W21313  16.877  10.347  14.304  0.0313 -0.1468  0.0143
 4467W        W21314  13.044  14.005   1.341 -0.0149 -0.4187  0.0329
 4468W        W21315  16.736   7.981  12.913 -0.0329  0.3188 -0.1886
 4469W        W21316   9.763   2.073   2.925 -0.2294  0.0749  0.0914
 4470W        W21317  10.041   5.325   0.514  0.0106 -0.2582  0.0492
 4471W        W21318  13.429   0.772  13.021 -0.1036 -0.0073  0.0123
 4472W        W21319   8.027   4.639  11.813 -0.2309  0.0706 -0.1931
 4473W        W21320   1.647  14.751  11.504  0.0814 -0.0923  0.0266
 4474W        W21321   7.200  17.219   1.910  0.1163  0.0578 -0.2454
 4475W        W21322   3.414  14.470   1.660 -0.3036 -0.1239 -0.0015
 4476W        W21323   0.048   3.558  14.828 -0.1699  0.1049 -0.0701
 4477W        W21324   2.617   2.732  14.586 -0.2615  0.1610 -0.1076
 4478W        W21325  14.573  12.141  14.341 -0.1658  0.0357  0.1793
 4479W        W21326   7.076   8.284  13.049 -0.2303 -0.0146  0.3036
 4480W        W21327   7.629  13.364  13.668 -0.2961 -0.1374  0.1048
 4481W        W21328   6.777   7.043  12.254  0.1659 -0.3359 -0.3726
 4482W        W21329   7.846  16.751  13.752  0.0361 -0.1378 -0.3034
 4483W        W21330   3.695  18.270  12.513  0.1618  0.1557  0.0051
 4484W        W21331  15.027   1.970  11.417  0.1409 -0.0186  0.0956
 4485W        W21332  12.772  18.032  12.741  0.0362  0.0211  0.2430
 4486W        W21333  13.958   3.929   0.287 -0.1173  0.0787 -0.1049
 4487W        W21334  11.888   5.207   4.282  0.1939 -0.0984 -0.4892
 4488W        W21335   4.927  11.206   2.749  0.2867 -0.0064  0.1893
 4489W        W21336  17.987  17.313  12.659 -0.2089  0.0789  0.0069
 4490W        W21337   6.631   7.729   4.527 -0.1627 -0.2776  0.1361
 4491W        W21338  10.726  12.054   5.471 -0.4188  0.1234  0.0793
 4492W        W21339   5.040   3.164   1.996 -0.0168  0.0231 -0.0413
 4493W        W21340   9.652   7.086  15.060 -0.2368 -0.1609 -0.2192
 4494W        W21341   2.572  17.531  10.790  0.1686 -0.0608  0.0804
 4495W        W21342  11.360  16.750  13.963 -0.4191 -0.1273 -0.0456
 4496W        W21343   3.846  10.442  13.000 -0.5009  0.0266 -0.0557
 4497W        W21344  13.469   0.051  15.553 -0.2730 -0.1601  0.1864
 4498W        W21345   9.123   2.590  11.835 -0.0086  0.2781 -0.1674
 4499W        W21346   0.822   0.048   2.133 -0.1972 -0.0251  0.1970
 4500W        W21347  16.620   5.271  11.267 -0.1330  0.1124 -0.0108
 4501W        W21348  15.666   9.304  13.431 -0.0262 -0.3591 -0.1206
 4502W        W21349   7.731   6.622   4.279 -0.1167 -0.0507 -0.0176
 4503W        W21350  15.166   8.428  15.195  0.1165 -0.2041 -0.1112
 4504W        W21351   9.846  13.203  11.945  0.1407  0.0790  0.1720
 4505W        W21352   9.674  15.117  14.735 -0.2160 -0.0664 -0.3565
 4506W        W21353  15.478   2.718   3.131 -0.0574 -0.1313 -0.1625
 4507W        W21354  10.766  16.585  15.559  0.2964 -0.0081  0.0880
 4508W        W21355  15.116   4.634  10.801 -0.1673 -0.0649 -0.0883
 4509W        W21356  18.466   7.907  14.556 -0.3579  0.2109  0.2185
 4510W        W21357   5.115   2.187   5.500  0.0383 -0.1506  0.3588
 4511W        W21358   9.708   0.642  12.639 -0.0036  0.1564 -0.0582
 4512W        W21359   6.750   4.549  14.438  0.2878 -0.0619 -0.1590
 4513W        W21360   5.927  12.901  13.208  0.1418  0.2664  0.0284
 4514W        W21361  18.368   8.950   1.892 -0.1716  0.0429 -0.0976
 4515W        W21362  16.986  17.984  12.603 -0.0250  0.0222 -0.0573
 4516W        W21363  17.006  14.054   2.665  0.0436  0.0771  0.1995
 4517W        W21364  11.470   0.214  12.313 -0.0702  0.2858 -0.3047
 4518W        W21365   4.455  13.419   1.670  0.0536 -0.1199  0.0259
 4519W        W21366   6.065  14.194   3.376 -0.1249  0.1834  0.0173
 4520W        W21367  15.652  10.790   4.127  0.0353  0.0080 -0.3447
 4521W        W21368   1.031   4.453  15.747 -0.2831 -0.4039 -0.1029
 4522W        W21369  12.940  10.333  15.909 -0.0201 -0.1620 -0.1347
 4523W        W21370  12.954  17.434   3.364 -0.3220  0.0608 -0.0942
 4524W        W21371   1.215   2.495  11.835  0.1116 -0.0248 -0.1000
 4525W        W21372  14.599   2.119  11.033 -0.1042  0.3021 -0.2470
 4526W        W21373  13.126   8.816  12.573 -0.2234  0.0783 -0.0356
 4527W        W21374   3.468   6.913   0.614  0.0477  0.4433  0.2962
 4528W        W21375  16.016  12.655   4.685  0.0157  0.0906 -0.0336
 4529W        W21376   8.246  17.340   2.854 -0.0063  0.5082 -0.0810
 4530W        W21377  11.816  10.834   2.110  0.1349  0.2897 -0.1129
 4531W        W21378   5.110   6.660  13.027 -0.1680 -0.0961  0.1799
 4532W        W21379   5.018   8.802   4.829  0.1220  0.0823  0.0913
 4533W        W21380   6.992  10.807  11.918 -0.0108 -0.1275 -0.2684
 4534W        W21381  12.744  16.500   1.356 -0.2718 -0.1431  0.3238
 4535W        W21382   1.828  18.158  11.199 -0.3715 -0.2160  0.1425
 4536W        W21383   4.494  17.485   0.173 -0.1698  0.1903  0.4325
 4537W        W21384   6.912  16.325  12.259 -0.0445  0.1053 -0.0086
 4538W        W21385   3.801  12.106  15.829 -0.1426 -0.0161 -0.0621
 4539W        W21386  17.470  13.870   0.401  0.2076  0.0380 -0.2275
 4540W        W21387   9.163  13.473  11.986 -0.4806  0.0621  0.0181
 4541W        W21388   8.068   8.066   0.932  0.3109  0.4682 -0.1346
 4542W        W21389   7.199  12.569  13.440  0.0529 -0.2476  0.0653
 4543W        W21390   1.766   5.240  13.450  0.3303 -0.0122  0.1168
 4544W        W21391  10.695  11.597   5.164  0.1284 -0.3842  0.0162
 4545W        W21392  17.053  17.146   0.180  0.2445 -0.2421 -0.2339
 4546W        W21393   7.041   1.725   2.626  0.2523  0.1436  0.0085
 4547W        W21394   0.018  14.674   2.532  0.0319 -0.0342 -0.6276
 4548W        W21395   5.935  14.240  10.887  0.1365 -0.1961  0.0307
 4549W        W21396   0.124   7.821   5.815  0.1236  0.0905  0.2183
 4550W        W21397   7.611   0.784   5.105  0.0547 -0.2002  0.1011
 4551W        W21398   7.448   3.121   1.986 -0.0579  0.1251 -0.1291
 4552W        W21399   3.076  18.166   1.197  0.1791  0.0740  0.1701
 4553W        W21400   8.882   5.267  11.817 -0.2073  0.1203 -0.1348
 4554W        W21401   8.668   1.007  14.275 -0.3360  0.0565  0.2831
 4555W        W21402   5.873   4.535   3.256 -0.1729 -0.3047  0.0380
 4556W        W21403   6.430  14.519  15.849  0.1046 -0.3268  0.2492
 4557W        W21404   4.213   1.592  13.168  0.2703  0.2387 -0.1162
 4558W        W21405   2.960  13.610   1.234 -0.0706  0.1776 -0.0250
 4559W        W21406   0.189  13.083  13.698 -0.3963 -0.0208  0.2635
 4560W        W21407  12.071   9.546   3.076  0.0775 -0.3588  0.0876
 4561W        W21408  10.629   9.558  15.809  0.1916 -0.0600 -0.3077
 4562W        W21409  13.750   5.358  15.335  0.2541 -0.1472 -0.3923
 4563W        W21410  13.555   0.316   1.839  0.0005  0.1248  0.1085
 4564W        W21411   1.367  17.004  15.918 -0.1371  0.1654 -0.0924
 4565W        W21412   9.735   7.162  10.902  0.2678 -0.0321  0.0678
 4566W        W21413  10.064   4.370   3.330 -0.1969 -0.0956  0.3080
 4567W        W21414   1.531  15.743   3.514  0.3026  0.2764 -0.0868
 4568W        W21415  17.618   7.183   5.153  0.1708 -0.3718 -0.2090
 4569W        W21416  17.942   4.493   1.790  0.2592  0.3092 -0.1296
 4570W        W21417  12.319  11.695  14.915 -0.0166  0.1925 -0.0647
 4571W        W21418   9.197   3.439   2.314 -0.0335  0.0289 -0.2485
 4572W        W21419  10.422  12.976   2.992  0.0961 -0.3262  0.3999
 4573W        W21420   8.446   9.836  14.496  0.1262 -0.1920  0.0916
 4574W        W21421  13.888   7.417   3.905  0.2373 -0.0939  0.0759
 4575W        W21422   5.504   1.230   5.534  0.3469  0.0102  0.2048
 4576W        W21423  14.436   3.981  15.866 -0.0961  0.5075  0.1079
 4577W        W21424   2.565   3.865   1.534 -0.1287  0.1032 -0.0435
 4578W        W21425  16.090  17.355  15.572 -0.0351  0.0792 -0.0670
 4579W        W21426  13.552  17.589   4.011 -0.0230 -0.0884 -0.2265
 4580W        W21427   9.708   1.186  12.353 -0.2852  0.1806  0.4321
 4581W        W21428  15.768   8.536   3.264 -0.1246  0.1385 -0.0985
 4582W        W21429  12.758  17.084  13.021  0.3514  0.0933 -0.1261
 4583W        W21430  16.433   4.793  12.579 -0.2579  0.3180  0.2555
 4584W        W21431   2.466  13.342  15.452 -0.0931  0.1539  0.2819
 4585W        W21432  15.574  13.359   0.035 -0.1686  0.0248  0.0601
 4586W        W21433   7.376   8.539   2.534 -0.1966  0.0611 -0.3103
 4587W        W21434  11.092   1.423   4.172 -0.1276 -0.0224  0.3260
 4588W        W21435  15.486   9.198  13.894  0.3457  0.0392  0.0674
 4589W        W21436  15.185   0.278   2.903  0.2592  0.1905  0.2253
 4590W        W21437   2.217   1.068   1.903  0.1690 -0.0499 -0.1453
 4591W        W21438   6.650   7.115  15.767 -0.0208  0.1949 -0.0108
 4592W        W21439  10.916   2.973  10.502 -0.0298 -0.0094  0.3830
 4593W        W21440   0.917  11.772  14.301  0.2056  0.1163  0.2124
 4594W        W21441  13.266  11.722  11.600  0.0254  0.2870 -0.1603
 4595W        W21442   4.196  14.895   1.864  0.1137  0.3630  0.1104
 4596W        W21443   9.744  15.336  12.952 -0.1760  0.0183 -0.1275
 4597W        W21444  14.094  14.306   0.308 -0.2175  0.2880 -0.0114
 4598W        W21445   7.540  11.289   2.260 -0.0154 -0.0360  0.4601
 4599W        W21446  14.736   2.288  14.913 -0.2350  0.1701 -0.1439
 4600W        W21447   7.351   0.481   2.386 -0.3190 -0.1189 -0.1158
 4601W        W21448   0.707  10.532  13.976  0.0769  0.0509 -0.1515
 4602W        W21449  13.502   2.534  14.327 -0.1272 -0.3703  0.3267
 4603W        W21450   6.041  16.425  14.376 -0.1288 -0.0201 -0.0600
 4604W        W21451  14.431  16.029   1.675 -0.1857 -0.0558  0.1161
 4605W        W21452  12.756  17.676  15.055 -0.1364  0.0196  0.1697
 4606W        W21453  13.039  11.734   0.708  0.0832  0.2402 -0.2207
 4607W        W21454  15.978   4.778   3.511 -0.1453 -0.0562  0.1315
 4608W        W21455   9.992  13.736   3.161 -0.0560  0.2333 -0.1071
 4609W        W21456   6.274   8.008   3.094  0.1929  0.0073 -0.0474
 4610W        W21457   2.139   4.217   0.961 -0.0447  0.1930 -0.0013
 4611W        W21458  16.817  16.080  12.589  0.1720  0.0466  0.1576
 4612W        W21459  17.264   6.976  13.269  0.1109 -0.0013  0.0945
 4613W        W21460   7.796  16.300  14.349 -0.2760 -0.2164  0.3032
 4614W        W21461  13.605   6.800   2.970  0.1726  0.0288 -0.0294
 4615W        W21462   9.496   0.331   3.570 -0.1709  0.0446  0.0514
 4616W        W21463   1.016  14.166   1.029  0.0957 -0.1267 -0.0900
 4617W        W21464   3.290   1.150  11.523  0.0274  0.1728 -0.2211
 4618W        W21465   4.730   0.741   0.296 -0.2345 -0.0646  0.2446
 4619W        W21466  16.075   7.725   5.107 -0.1418 -0.1058 -0.1508
 4620W        W21467   1.884  12.943   3.013 -0.1490 -0.2618 -0.0302
 4621W        W21468  13.347  14.491  15.171 -0.1994  0.0979  0.0154
 4622W        W21469  16.952   7.452  13.111 -0.1944  0.2072  0.0659
 4623W        W21470  17.552  17.133   0.664 -0.0036  0.1210 -0.1258
 4624W        W21471   4.781   9.249  14.304 -0.1841 -0.0785  0.0105
 4625W        W21472  14.410  13.812   2.726 -0.2159  0.2645 -0.3161
 4626W        W21473   0.497   3.416  11.083 -0.0149  0.3492  0.5111
 4627W        W21474   9.390  14.893   1.251  0.1275  0.0427 -0.0779
 4628W        W21475   4.591   9.150   3.514 -0.0123 -0.1365 -0.2096
 4629W        W21476  16.842   2.289  11.808 -0.0736  0.2390  0.2264
 4630W        W21477   3.449  11.895   2.725 -0.0043  0.1755  0.1409
 4631W        W21478   7.645   7.207  11.012  0.1664  0.2779  0.0554
 4632W        W21479  15.664   6.579  14.436 -0.0557  0.0104  0.0703
 4633W        W21480   0.379  12.754  15.567 -0.0498 -0.0098  0.2509
 4634W        W21481   4.505  14.930  12.644  0.0059 -0.0738 -0.1891
 4635W        W21482   8.886   4.017  11.498  0.1458  0.1314  0.3672
 4636W        W21483  14.640   7.319   4.540  0.1218  0.1087 -0.0263
 4637W        W21484   3.523   4.294   5.029  0.2625 -0.3824 -0.0346
 4638W        W21485  12.487  12.098   2.840  0.1978  0.0942 -0.3331
 4639W        W21486   2.158   2.871  14.473 -0.3572 -0.2963  0.0612
 4640W        W21487   1.916   2.473  12.656  0.1175 -0.3043 -0.1305
 4641W        W21488  13.503   1.124  13.633 -0.0394  0.2609 -0.3242
 4642W        W21489  11.809   8.627   1.981 -0.3505 -0.1155  0.0911
 4643W        W21490   3.829   1.938   0.776 -0.6093  0.0401 -0.0508
 4644W        W21491   8.531   3.227  14.665 -0.3094 -0.2625  0.0030
 4645W        W21492  13.512   3.870  14.855  0.1525  0.1069  0.0328
 4646W        W21493  15.996  14.371  15.836  0.1132 -0.0217  0.0331
 4647W        W21494   2.593   8.451   3.767 -0.1793 -0.5087 -0.2819
 4648W        W21495   4.872  14.085   2.936  0.3262 -0.2843 -0.1305
 4649W        W21496   3.800  17.613   5.321  0.1540  0.2699  0.1587
 4650W        W21497   5.068   8.257   1.730 -0.0719 -0.5231 -0.0804
 4651W        W21498   5.965   3.453  14.881 -0.0642  0.1584  0.0431
 4652W        W21499   5.848  16.602   1.410  0.1015  0.0219  0.0599
 4653W        W21500  17.881   0.770   3.515  0.0347 -0.0567  0.2799
 4654W        W21501  14.491  18.100  14.761 -0.1555 -0.0313 -0.0388
 4655W        W21502   5.890   8.701  15.852 -0.2077 -0.1765  0.0616
 4656W        W21503  17.355   8.998   2.072 -0.0883 -0.1375 -0.1123
 4657W        W21504   5.232   6.442   5.831  0.0302  0.0093 -0.1995
 4658W        W21505  16.520   7.006  12.923 -0.2429  0.2420  0.1994
 4659W        W21506   6.753  10.797   4.154  0.0635  0.0702  0.0084
 4660W        W21507   2.841   9.479   5.122 -0.0740 -0.2995 -0.1623
 4661W        W21508   7.394  11.870   1.509  0.0110  0.0279 -0.1209
 4662W        W21509  10.585  13.041   1.052 -0.0878  0.0512  0.1844
 4663W        W21510   9.988   2.919   3.164  0.1017 -0.1620  0.2152
 4664W        W21511   2.857   4.413   0.995 -0.1375 -0.1297  0.3308
 4665W        W21512  17.889   3.102   4.337  0.2103 -0.1298  0.0965
 4666W        W21513  13.268   6.678  13.587  0.0538 -0.1821  0.2058
 4667W        W21514   9.647  18.209   4.407  0.1892 -0.0748 -0.0141
 4668W        W21515   0.883   4.968  15.811 -0.2175  0.2719 -0.3106
 4669W        W21516   6.127  16.928  15.806 -0.0869 -0.0109 -0.0103
 4670W        W21517   5.085  10.792   1.442  0.1192  0.2208 -0.0113
 4671W        W21518   7.591   6.078  12.661  0.1779  0.1906  0.1320
 4672W        W21519   1.772  18.142  12.175  0.0725 -0.0752 -0.1303
 4673W        W21520  12.387   6.417  13.525 -0.3172 -0.1563  0.0311
 4674W        W21521  15.708   6.842  10.817  0.1022 -0.1201 -0.2842
 4675W        W21522   3.717  12.473   3.941 -0.1780  0.0032 -0.0514
 4676W        W21523   4.029  13.148   3.096 -0.1640 -0.1454 -0.0764
 4677W        W21524   1.678  16.184  15.740  0.0219  0.0402  0.5194
 4678W        W21525   5.383   4.417  14.511 -0.0401 -0.0383  0.1042
 4679W        W21526  15.110  11.294  12.281 -0.0487 -0.0701 -0.1240
 4680W        W21527  17.623   4.070  13.606  0.3870 -0.3277  0.1560
 4681W        W21528  11.035  16.105   5.223  0.0458 -0.3593  0.0149
 4682W        W21529  12.113   2.887   1.915  0.0382  0.1375  0.0284
 4683W        W21530  14.049  11.046  12.011 -0.0925 -0.1410  0.0538
 4684W        W21531   3.696   3.913   1.310  0.0533 -0.2244  0.0414
 4685W        W21532   6.249  16.180   0.875  0.4657 -0.2110 -0.4056
 4686W        W21533   6.437   7.973  12.444  0.2979  0.1521  0.2640
 4687W        W21534  15.574  13.710  12.011  0.1780  0.1277 -0.1083
 4688W        W21535   4.408   2.752   5.219 -0.1596 -0.0847  0.1069
 4689W        W21536  12.016  12.960  12.219  0.0955 -0.0272 -0.5016
 4690W        W21537  12.555   3.295   1.556 -0.1952  0.1533 -0.0386
 4691W        W21538  10.551   4.040  14.715 -0.1548 -0.1964 -0.2633
 4692W        W21539  12.119  10.657  13.600 -0.0842  0.0115 -0.0353
 4693W        W21540   2.087  11.390   4.847  0.2453  0.1316 -0.0827
 4694W        W21541   7.962   8.350   4.210  0.0845 -0.0708  0.0787
 4695W        W21542   8.486   5.845   1.976 -0.0713  0.1205  0.2001
 4696W        W21543   9.204   1.200  14.270 -0.1921 -0.0836  0.1663
 4697W        W21544  14.449  17.927   0.646  0.1781  0.0770 -0.2726
 4698W        W21545   8.216  15.964  12.730 -0.0052  0.0663 -0.2625
 4699W        W21546   2.916  12.807  11.908  0.0254 -0.1176 -0.0321
 4700W        W21547   0.260   1.756   4.018  0.0936 -0.0918  0.1461
 4701W        W21548  12.165  14.228   4.120 -0.0061 -0.0740  0.0423
 4702W        W21549  14.043   3.193  12.248 -0.3149  0.0781  0.1126
 4703W        W21550   8.868   3.605  14.623  0.0588  0.1722  0.0861
 4704W        W21551  17.820   1.635  13.715 -0.2328  0.0430 -0.1751
 4705W        W21552   2.344   7.173   4.960  0.1664 -0.2387  0.2854
 4706W        W21553   9.737  18.503  11.635  0.2243 -0.0034 -0.0868
 4707W        W21554   5.114  12.368  12.866  0.1857 -0.0631  0.0829
 4708W        W21555  14.646   4.651   2.819  0.2578  0.0016  0.0502
 4709W        W21556   6.291  17.798   1.755 -0.1824 -0.0650  0.1373
 4710W        W21557  10.457  13.513   3.215  0.2189 -0.0610  0.3144
 4711W        W21558  16.148  11.951   3.413  0.1082  0.1973 -0.0644
 4712W        W21559   5.235   7.976   2.588 -0.1876  0.1394  0.0288
 4713W        W21560  13.751   5.123   3.989 -0.1840  0.4323  0.0393
 4714W        W21561   3.763  16.339  11.232 -0.3369 -0.0699  0.0398
 4715W        W21562   2.340   1.856   3.114 -0.2218  0.0873 -0.0867
 4716W        W21563  16.802   3.455  15.909  0.2254 -0.2287 -0.0345
 4717W        W21564   2.671   8.849  15.326  0.0013 -0.1240 -0.0988
 4718W        W21565  15.340  13.250   1.949  0.1359 -0.4287 -0.0971
 4719W        W21566   2.044   6.228  15.521  0.1212 -0.1952 -0.4126
 4720W        W21567  15.872  16.358   2.957  0.0928 -0.1650 -0.3299
 4721W        W21568  14.552   7.939   2.951 -0.0100  0.1743  0.0112
 4722W        W21569  10.859  17.466  11.018  0.0094  0.2929  0.1169
 4723W        W21570   0.616  10.533   1.545  0.0824  0.2843 -0.2033
 4724W        W21571   4.124   1.274  15.908  0.0097  0.1365  0.1678
 4725W        W21572   5.247   0.572  14.392 -0.3467  0.1286  0.3675
 4726W        W21573   6.933  12.996  14.911  0.0094  0.0507  0.0879
 4727W        W21574  13.840   3.859   4.342 -0.1291 -0.3263 -0.0382
 4728W        W21575   0.331  10.931  14.031 -0.1401  0.0791  0.0669
 4729W        W21576  15.172   7.696  11.721  0.0028 -0.0785 -0.2057
 4730W        W21577  14.609   9.230   2.253  0.1314  0.2501 -0.0996
 4731W        W21578  16.607   5.283  12.382 -0.3603 -0.2380 -0.1178
 4732W        W21579   2.821   5.369   4.884  0.1845 -0.0261  0.2517
 4733W        W21580   3.648  16.541  13.941 -0.0786 -0.0667 -0.1242
 4734W        W21581   6.430  18.312  15.135  0.0816 -0.0665 -0.2260
 4735W        W21582   8.313  14.952  15.216 -0.0316 -0.1030  0.3058
 4736W        W21583  13.174  16.849   1.394 -0.0009 -0.1775 -0.0205
 4737W        W21584   9.233  14.426  13.906 -0.2314  0.0315 -0.1857
 4738W        W21585  15.182  17.518  12.672 -0.0105 -0.1692 -0.3849
 4739W        W21586   3.665  16.408   2.605 -0.2578  0.0852  0.1369
 4740W        W21587  16.699  12.513  11.840 -0.2178 -0.1309  0.3464
 4741W        W21588  15.781   8.251   1.062  0.2678  0.2063 -0.0519
 4742W        W21589   4.157   1.783   3.638  0.2084 -0.0774 -0.2802
 4743W        W21590  10.218  12.526  12.152  0.1731  0.3546  0.0921
 4744W        W21591   5.980   4.751   2.076  0.1212  0.0200  0.1191
 4745W        W21592   2.911  12.137   4.770 -0.0377  0.0584 -0.2141
 4746W        W21593  13.228   1.052   1.175 -0.0922  0.0877 -0.0841
 4747W        W21594   5.583  15.446   3.689  0.2825  0.3657 -0.2005
 4748W        W21595   4.470  11.478   1.816  0.1380  0.1257  0.4263
 4749W        W21596  13.127   4.736  12.141 -0.0539  0.3041 -0.0225
 4750W        W21597  13.562  13.735  13.437  0.1476 -0.1266 -0.2357
 4751W        W21598  10.899   4.138  12.633  0.3047  0.0143  0.2880
 4752W        W21599  13.399   4.112   3.998 -0.2376 -0.0371 -0.3234
 4753W        W21600  17.630   0.472   3.211  0.3614  0.0170 -0.3029
 4754W        W21601   1.707   6.080  15.880 -0.1027  0.0757  0.1118
 4755W        W21602  10.438   5.523  13.712 -0.1093  0.1145 -0.1915
 4756W        W21603  14.891  15.411  13.606  0.0695  0.0057  0.1416
 4757W        W21604   6.408  14.764   3.742 -0.0408  0.0971 -0.0218
 4758W        W21605  10.107   2.617   3.543  0.1816  0.0590 -0.0758
 4759W        W21606   0.198   7.248  14.971 -0.1776 -0.0134  0.0085
 4760W        W21607  16.268  17.502   2.047  0.0402  0.0348 -0.6667
 4761W        W21608  15.250   3.232  10.959  0.1414  0.2235  0.3754
 4762W        W21609  14.495   0.360  11.541 -0.0836  0.0986 -0.0813
 4763W        W21610   7.096  16.756   4.339  0.1257 -0.0501  0.1757
 4764W        W21611  11.987   5.193   2.888  0.1745 -0.0250 -0.0089
 4765W        W21612   9.788   1.417  11.727  0.2305  0.0847  0.0153
 4766W        W21613   5.106   6.787  11.099  0.1800 -0.2267 -0.3329
 4767W        W21614  15.075  14.887   3.744 -0.0533  0.1917  0.1406
 4768W        W21615  11.298   6.982  12.039  0.1578 -0.3182  0.0819
 4769W        W21616   0.283   9.498   0.521 -0.2983 -0.2107 -0.1381
 4770W        W21617   4.622   9.234   1.487 -0.0332 -0.0523 -0.2161
 4771W        W21618  10.226  14.307   2.522  0.2215  0.0421 -0.0465
 4772W        W21619   5.779  16.104  15.668  0.1597  0.0980 -0.1731
 4773W        W21620  14.474   3.115  13.261 -0.2035 -0.3495 -0.1194
 4774W        W21621  18.014   2.890   1.767 -0.1201 -0.1171  0.0429
 4775W        W21622   4.934   8.474   1.322 -0.0989 -0.2112  0.1369
 4776W        W21623   1.640   3.027   0.172 -0.0031 -0.1746 -0.0103
 4777W        W21624  10.639  15.207   0.278  0.2216  0.2464  0.0200
 4778W        W21625  10.674  15.302  15.592  0.0736  0.0249 -0.0898
 4779W        W21626  11.314   3.194  10.743 -0.3995 -0.1322 -0.0210
 4780W        W21627   0.365   4.919   4.465  0.2251  0.1198 -0.0775
 4781W        W21628   3.958   9.435   5.376 -0.1020 -0.0560  0.1411
 4782W        W21629  15.616  14.501   0.233  0.0452 -0.0039  0.0409
 4783W        W21630  15.224  14.766   1.075 -0.3263  0.4615 -0.0319
 4784W        W21631   7.031   3.238  14.838  0.0462  0.0175  0.0034
 4785W        W21632  14.738   4.312  13.552 -0.0318  0.0740  0.2112
 4786W        W21633   5.903   4.612  15.229  0.0844  0.1015 -0.0319
 4787W        W21634   3.125  13.680  11.527  0.2682  0.3051 -0.1039
 4788W        W21635   1.475   9.522   1.346  0.1449 -0.1309 -0.1348
 4789W        W21636   3.154  12.397  15.319  0.0311  0.1748 -0.0534
 4790W        W21637  18.080   8.879   3.171  0.0967  0.0590  0.0133
 4791W        W21638   0.223  17.309   5.890 -0.1362  0.2014 -0.0515
 4792W        W21639   2.323  10.432  15.566  0.1205 -0.0860 -0.2843
 4793W        W21640  11.361   3.966   2.696  0.2303 -0.1094  0.0637
 4794W        W21641  12.940  13.111   3.626 -0.0279  0.0833  0.1175
 4795W        W21642   0.609  16.051   0.549 -0.2617  0.1093 -0.0831
 4796W        W21643   7.067  17.305   5.252  0.3064 -0.1958  0.1822
 4797W        W21644   6.549   6.590   0.576  0.2263  0.1918  0.2411
 4798W        W21645   5.404   2.264   0.290 -0.1152 -0.0172  0.1785
 4799W        W21646  15.509   4.137  11.964 -0.4847  0.1038  0.0734
 4800W        W21647  12.993  10.278  13.879 -0.1907  0.0441  0.2375
 4801W        W21648  13.417  10.099  10.121 -0.0188  0.1567  0.2911
 4802W        W21649   0.439  14.783  14.916  0.0401  0.0672  0.2637
 4803W        W21650  12.630   8.289   2.497  0.1583  0.1360 -0.1903
 4804W        W21651  14.986   4.349  12.246  0.2764 -0.0795 -0.3979
 4805W        W21652   3.425   2.089   1.203  0.0846  0.2702  0.0340
 4806W        W21653  13.429  11.417   0.662  0.0400 -0.0197  0.1017
 4807W        W21654   2.482  14.989  12.659  0.1311 -0.2166  0.0296
 4808W        W21655   0.127   4.284   2.741 -0.2077  0.2105  0.0387
 4809W        W21656  14.465   5.000   0.832  0.1960  0.1018 -0.2200
 4810W        W21657  13.331   9.912   5.414  0.1086  0.3820  0.0136
 4811W        W21658  13.763  15.020   3.480  0.1884 -0.0508 -0.0137
 4812W        W21659   2.199   8.422   3.518 -0.0237  0.0551 -0.1272
 4813W        W21660  10.788   1.086   4.482  0.0312  0.0024 -0.1212
 4814W        W21661   0.317   0.104  15.772  0.0375 -0.0815 -0.0070
 4815W        W21662   6.434  10.883  15.261  0.2055  0.2117 -0.1828
 4816W        W21663  11.062   8.139   1.788 -0.1157  0.1195 -0.1877
 4817W        W21664   6.048   5.724  11.612  0.0741  0.0770 -0.2544
 4818W        W21665   5.671   1.277   1.523  0.0287 -0.3506  0.0979
 4819W        W21666  12.886  18.460  12.983  0.1497 -0.0054 -0.1275
 4820W        W21667   4.464   9.990  15.828 -0.2164 -0.2560  0.0585
 4821W        W21668  11.932  10.672  12.723  0.1457  0.2506 -0.1484
 4822W        W21669   2.088   1.092  14.002 -0.2204  0.1464  0.1456
 4823W        W21670   1.315   8.616  13.655 -0.4259  0.1593  0.2655
 4824W        W21671   5.115  10.665  12.979  0.0492 -0.0342 -0.1145
 4825W        W21672  14.585   5.794   4.801 -0.1518  0.1311  0.2469
 4826W        W21673  11.097  11.510  15.189 -0.0364 -0.0635 -0.2433
 4827W        W21674   6.766  13.925  14.911 -0.0716 -0.0475  0.3561
 4828W        W21675   3.235   4.296  13.639  0.0880  0.0891  0.1202
 4829W        W21676  12.977   4.430  10.784  0.0090  0.1707 -0.0676
 4830W        W21677   7.933   7.720   0.141  0.1278 -0.0278 -0.2054
 4831W        W21678   6.907   7.362   5.477  0.3452  0.2268  0.1485
 4832W        W21679   1.414  11.444   0.327 -0.3421 -0.1059  0.1364
 4833W        W21680   7.369   7.911   1.466 -0.1187 -0.3153 -0.0941
 4834W        W21681   7.420  15.963   5.896 -0.3747  0.1033 -0.2137
 4835W        W21682   6.813   1.969  15.489 -0.0087  0.0382  0.0505
 4836W        W21683  11.235  10.109   3.080  0.1183 -0.1423  0.3375
 4837W        W21684   6.169   4.564  12.007  0.1801  0.0317  0.3132
 4838W        W21685   7.681  11.901  13.152 -0.3523 -0.2200 -0.1385
 4839W        W21686  18.401   2.634  12.191 -0.0269  0.0208  0.3363
 4840W        W21687   1.089  17.208  11.606  0.1785 -0.0315 -0.2227
 4841W        W21688   1.588  13.604   3.208  0.2662  0.1501 -0.3772
 4842W        W21689  16.739   4.785   1.721 -0.4985 -0.0148  0.1655
 4843W        W21690  17.785  16.623   0.506 -0.1164  0.1381  0.1506
 4844W        W21691   7.293   3.810  14.212  0.1001  0.4495  0.0892
 4845W        W21692  17.216  12.395   1.967 -0.0234  0.0215 -0.2822
 4846W        W21693  13.103   9.399  12.594 -0.1715  0.1425  0.2522
 4847W        W21694  16.871   2.603  14.505  0.0111  0.0510  0.1245
 4848W        W21695   3.717   3.814   5.355 -0.2394 -0.0818  0.2926
 4849W        W21696  15.512   8.524  14.825  0.1390 -0.0698 -0.1073
 4850W        W21697   8.709  16.358  13.669  0.0616 -0.1373 -0.0818
 4851W        W21698   7.001   7.244  12.697 -0.0017  0.1660 -0.1186
 4852W        W21699   5.984   7.174   4.950 -0.1223  0.0298 -0.1190
 4853W        W21700   1.812   3.881  15.502 -0.1906 -0.1797  0.3929
 4854W        W21701   9.891  16.169  11.002  0.1953 -0.0682  0.2337
 4855W        W21702   4.068   0.486  12.441  0.0417 -0.0192 -0.1925
 4856W        W21703  15.349  13.493   2.737 -0.2346  0.0709 -0.0306
 4857W        W21704   8.894   2.809  13.586 -0.1832  0.0142  0.2104
 4858W        W21705   2.412  14.099   3.045  0.0395 -0.1179  0.3210
 4859W        W21706  15.339   8.050   4.486  0.1813 -0.1931 -0.0392
 4860W        W21707   7.488   7.854   0.984  0.0566 -0.1352 -0.1424
 4861W        W21708  16.432  12.427  14.029 -0.0199 -0.0496 -0.2176
 4862W        W21709   1.219   8.152  13.455  0.0197  0.1152  0.0876
 4863W        W21710   5.120  17.424   2.955 -0.3092  0.1395  0.0032
 4864W        W21711  11.403   6.179  15.129  0.1179  0.0436  0.1197
 4865W        W21712  11.859   8.714   5.271 -0.0718  0.0566 -0.0512
 4866W        W21713   4.749   4.436   5.146 -0.2024 -0.0192  0.2769
 4867W        W21714   3.189  11.558  11.905 -0.0899  0.3428 -0.3375
 4868W        W21715   5.228   5.814   5.108  0.4202 -0.0200 -0.1301
 4869W        W21716   6.164  12.259   0.097  0.1050 -0.0417 -0.0306
 4870W        W21717   8.075   4.439   4.062 -0.1037 -0.3407  0.0775
 4871W        W21718   2.002   1.513  13.065 -0.0619 -0.2798 -0.1522
 4872W        W21719  14.364  13.319   2.308  0.1277  0.3185  0.1733
 4873W        W21720  17.268   6.584  14.008 -0.1759 -0.3461 -0.2482
 4874W        W21721  12.501  16.818  10.637 -0.3093  0.3539  0.0251
 4875W        W21722   3.138  18.213   2.150  0.0603  0.1503 -0.2692
 4876W        W21723   5.328   6.940   1.619 -0.1432  0.0949  0.2077
 4877W        W21724   4.257  13.086   1.331 -0.2171  0.0299  0.1435
 4878W        W21725   3.199  17.838   1.599  0.2201 -0.1213 -0.0215
 4879W        W21726  15.085   6.300   4.234  0.1282  0.0746  0.1474
 4880W        W21727   1.161   8.656   3.203  0.0343 -0.1172 -0.3121
 4881W        W21728  11.679   9.250   5.067  0.3947  0.1928  0.0805
 4882W        W21729   3.436  13.760  14.012  0.0692  0.2014  0.3886
 4883W        W21730   8.901  10.255   1.751 -0.1320  0.1285  0.0220
 4884W        W21731  13.640  10.696   3.628  0.2524  0.2060  0.2807
 4885W        W21732  13.308   7.079   4.118 -0.0215 -0.1383 -0.2766
 4886W        W21733   7.153   5.729  13.417 -0.1081 -0.0378 -0.0461
 4887W        W21734   6.443   3.659  14.679  0.1090 -0.2733  0.0536
 4888W        W21735   2.892  17.249   6.117 -0.0985 -0.0667 -0.0239
 4889W        W21736  16.360  12.640  14.474 -0.3301  0.0467 -0.1342
 4890W        W21737  10.570   0.719  12.484  0.0363  0.1985 -0.2916
 4891W        W21738   1.388   3.408  13.386  0.0952 -0.0468 -0.5304
 4892W        W21739   1.956   0.238   3.162  0.1181 -0.0493  0.0303
 4893W        W21740  12.534   2.484   0.566  0.1091  0.3785 -0.2100
 4894W        W21741  13.311  14.788  12.055  0.0151  0.1234 -0.2365
 4895W        W21742  12.520   6.713  14.563  0.1302 -0.3529  0.2210
 4896W        W21743  12.619  15.423  12.216 -0.0127 -0.1755 -0.2287
 4897W        W21744  17.364   3.372  15.610 -0.3483 -0.0040  0.3014
 4898W        W21745   9.316  11.354   3.772 -0.2430  0.3607 -0.1176
 4899W        W21746  15.943  16.748   3.953 -0.0595 -0.0345  0.0982
 4900W        W21747  14.453   2.161  13.488 -0.1421  0.2831 -0.0286
 4901W        W21748  15.938   2.841   4.808 -0.0185 -0.0687  0.1397
 4902W        W21749  16.089   8.624   0.732 -0.0062 -0.0556  0.0356
 4903W        W21750   9.546   7.940   0.731 -0.1099 -0.0103 -0.0133
 4904W        W21751   1.454  10.659   0.615  0.1607  0.2648 -0.0724
 4905W        W21752  11.673   5.253  15.428  0.2694 -0.0833  0.3027
 4906W        W21753   5.439  13.476  12.371 -0.0055  0.0823  0.0193
 4907W        W21754  17.122  16.532  13.917 -0.1282 -0.1368 -0.1411
 4908W        W21755   7.658   0.619  11.781 -0.1721 -0.1375  0.1392
 4909W        W21756  15.380   1.378  12.487  0.2411  0.1752 -0.2897
 4910W        W21757   4.642   8.962  11.636  0.0113  0.2922  0.4118
 4911W        W21758  11.581  11.764  11.851 -0.1379 -0.2536  0.1788
 4912W        W21759   8.554  17.180  11.513  0.0488 -0.2786 -0.1479
 4913W        W21760  10.744  12.163   1.587 -0.2041 -0.1914 -0.0032
 4914W        W21761   9.269  17.907   2.284 -0.1387  0.1679  0.0772
 4915W        W21762  18.206  12.820  13.600 -0.0558 -0.2075 -0.1667
 4916W        W21763  14.957   1.757  11.990  0.1916  0.0538  0.1294
 4917W        W21764   1.895   1.145  15.613 -0.2034  0.0518 -0.3542
 4918W        W21765  12.854   5.601  13.729  0.2620 -0.0148 -0.3550
 4919W        W21766   0.635   3.392  12.886  0.1980 -0.1284  0.0979
 4920W        W21767   2.764   3.666  13.071  0.1766  0.1647  0.1819
 4921W        W21768  16.567   7.581  11.589  0.0418  0.1832  0.0171
 4922W        W21769   5.086  16.714  13.506  0.4049 -0.1638 -0.1471
 4923W        W21770  16.695   6.000  15.344 -0.1898  0.0357 -0.0424
 4924W        W21771   9.472   6.640  14.217 -0.0409 -0.1325  0.0801
 4925W        W21772  17.091  11.697   3.345 -0.0151 -0.0425 -0.4424
 4926W        W21773  11.580   2.685   2.581  0.2620 -0.0517  0.0692
 4927W        W21774   6.908  11.967   4.800  0.0455 -0.0992  0.0665
 4928W        W21775  16.556  15.170   2.028  0.0769 -0.2012 -0.0205
 4929W        W21776   2.547   9.979  12.860  0.1350  0.1824 -0.0856
 4930W        W21777   5.545   6.487   2.512 -0.0120 -0.2102  0.0384
 4931W        W21778  16.229   0.699   0.087  0.0376 -0.0885  0.0787
 4932W        W21779  15.724  16.344  14.240  0.0269 -0.0684  0.1284
 4933W        W21780  11.638  13.109  15.852 -0.0799  0.1072  0.3191
 4934W        W21781   4.135  18.007   4.002  0.1570  0.2906  0.0148
 4935W        W21782  11.497   4.901   0.697 -0.0636  0.4049 -0.3279
 4936W        W21783   4.763   0.364   1.441 -0.0009 -0.1974 -0.0854
 4937W        W21784  11.327  17.342  11.724 -0.0595  0.1262  0.1044
 4938W        W21785  16.740  15.210  15.578  0.0278 -0.2578  0.0954
 4939W        W21786   2.558   0.894   2.288 -0.1351 -0.5591  0.0948
 4940W        W21787   4.558   7.918  14.603  0.1147 -0.1243 -0.0177
 4941W        W21788   5.389  14.055   2.655 -0.2508  0.1390 -0.1460
 4942W        W21789   5.467  14.188   1.404  0.1263 -0.0720  0.0489
 4943W        W21790   5.419   3.051   5.433  0.1486 -0.1690  0.0042
 4944W        W21791  17.472   8.005  15.482 -0.1068 -0.0173  0.0035
 4945W        W21792  14.633  14.312  15.403  0.0312 -0.1792 -0.1423
 4946W        W21793   8.478  11.191   1.674  0.0127 -0.0334  0.0358
 4947W        W21794  11.683   8.181  11.752 -0.0316  0.3010  0.0090
 4948W        W21795   8.520   9.599   4.133  0.0391  0.0488  0.1871
 4949W        W21796  16.507  14.072  14.906  0.3097 -0.0072  0.1857
 4950W        W21797   1.595   5.199  14.161 -0.2000  0.0187 -0.0489
 4951W        W21798  15.495  12.733   6.121 -0.1486  0.0584  0.2294
 4952W        W21799  15.294   9.547  11.207 -0.0478 -0.1908 -0.2280
 4953W        W21800   8.651  17.464   5.532 -0.1906  0.3253  0.1221
 4954W        W21801  15.945   2.254  14.919  0.2356 -0.5105  0.0841
 4955W        W21802  17.197   9.504   0.812  0.1855  0.1209 -0.2857
 4956W        W21803   9.830   9.830   3.877  0.1549  0.2012  0.1464
 4957W        W21804   7.182   8.707  12.773 -0.0199  0.1196  0.0104
 4958W        W21805  14.812   8.352  13.829  0.0285  0.4263 -0.2426
 4959W        W21806   8.487   8.080  14.199 -0.1262  0.2342 -0.2581
 4960W        W21807  10.574  13.865   2.373 -0.2979 -0.0631  0.0073
 4961W        W21808   3.767   5.228  14.791  0.1026 -0.0740  0.2900
 4962W        W21809  18.329   5.283   3.957  0.1800 -0.0239  0.1664
 4963W        W21810  16.198  13.615   2.434  0.1191 -0.2298  0.1843
 4964W        W21811  15.495  10.318  12.262 -0.0896  0.0625 -0.2543
 4965W        W21812   3.647   4.922   1.022  0.0125 -0.0326  0.1291
 4966W        W21813   9.304   2.858  12.665  0.2680  0.2215  0.0929
 4967W        W21814  12.776  13.384   3.215  0.1210  0.1330 -0.1778
 4968W        W21815  15.871   5.344  15.143 -0.1530  0.1703 -0.1966
 4969W        W21816  12.372   6.814   5.213 -0.0528 -0.0960 -0.0664
 4970W        W21817   5.928   9.213  15.827 -0.3459 -0.2079  0.3285
 4971W        W21818   3.683   0.875  11.821  0.0570  0.0648 -0.2918
 4972W        W21819   5.171   4.734   0.045 -0.1152  0.0249 -0.0597
 4973W        W21820   5.390  17.020   1.157 -0.2106  0.1672 -0.0228
 4974W        W21821   2.526  12.590  12.497 -0.3127 -0.0515 -0.4686
 4975W        W21822  15.221   2.656  15.516 -0.3276 -0.0858 -0.0809
 4976W        W21823   3.953  15.280   4.176 -0.0197 -0.0480  0.0902
 4977W        W21824   4.597  11.779   5.005 -0.1932 -0.1324  0.0377
 4978W        W21825  13.267   0.697  12.526  0.0687  0.0324  0.2006
 4979W        W21826  17.507   9.972   1.630  0.1450  0.3081 -0.0985
 4980W        W21827   4.963  18.141   1.543 -0.1872  0.2951  0.2379
 4981W        W21828   9.882  18.405  14.791 -0.0950 -0.3102 -0.2067
 4982W        W21829   2.499   3.461   3.131  0.0923  0.0728  0.1534
 4983W        W21830  13.897   3.194  11.696  0.1257 -0.0020 -0.0464
 4984W        W21831  12.779   4.448  11.844  0.0082 -0.1866 -0.1726
 4985W        W21832  18.521  13.171  12.379  0.1378 -0.0647  0.0144
 4986W        W21833   0.198  16.655  12.312 -0.2717  0.1897  0.0943
 4987W        W21834   8.574   6.106  11.452  0.1370  0.1993  0.0642
 4988W        W21835  15.572   9.338   3.544 -0.0893  0.0424 -0.3934
 4989W        W21836   6.122  11.226   3.605  0.2180 -0.0866 -0.1672
 4990W        W21837   5.161  10.742  14.940 -0.0871 -0.0412  0.1417
 4991W        W21838  11.121   5.720  14.697  0.0973  0.0231 -0.0089
 4992W        W21839   0.322   0.640  14.054  0.1524  0.0060  0.0132
 4993W        W21840   5.054  13.224  15.703  0.1015 -0.1698 -0.2064
 4994W        W21841   2.194   7.580   0.587 -0.0770 -0.1639  0.1304
 4995W        W21842  13.982   1.392  11.816  0.2246 -0.0309  0.0208
 4996W        W21843   2.644  15.270   3.371 -0.2526 -0.0769 -0.0337
 4997W        W21844   8.531   4.505  12.234  0.1596  0.0789 -0.0495
 4998W        W21845  11.404  13.493   4.926  0.3129  0.1183  0.3413
 4999W        W21846  12.757  17.529  13.768  0.1458  0.0169 -0.0064
 5000W        W21847  17.311   2.310  11.301 -0.0204  0.0529 -0.2301
 5001W        W21848   3.876  13.768  14.266 -0.1931  0.1377  0.1395
 5002W        W21849   3.113   7.144  14.700 -0.1899 -0.1759 -0.3283
 5003W        W21850  14.081   2.782  12.509  0.6954  0.1420  0.0546
 5004W        W21851   2.133   8.418   2.458 -0.2881  0.0769 -0.2056
 5005W        W21852   5.661   6.133   0.539  0.0508 -0.1482  0.3487
 5006W        W21853   2.562   3.439  11.778  0.0394  0.2722 -0.1184
 5007W        W21854  18.422  12.887  14.981 -0.2822 -0.3148 -0.0254
 5008W        W21855  12.401   2.483   1.925 -0.2454  0.0240  0.3546
 5009W        W21856   1.042   2.457   4.802  0.0969  0.1888  0.2244
 5010W        W21857   9.938  15.073  12.573 -0.0953  0.1342 -0.0027
 5011W        W21858  15.594  11.793   1.744  0.2758  0.0555 -0.1404
 5012W        W21859  10.514   4.479   1.248  0.4169  0.3888  0.1510
 5013W        W21860   2.113   2.556   3.393  0.0607 -0.1766  0.1902
 5014W        W21861  14.526  16.388  15.693  0.0580 -0.3341 -0.0935
 5015W        W21862   0.675  10.018  11.667  0.4308  0.1040 -0.0789
 5016W        W21863  14.238  12.228  12.201  0.2198 -0.0124  0.2999
 5017W        W21864  17.224   7.286  12.741 -0.1465  0.0898  0.1973
 5018W        W21865  17.162  17.576   1.045  0.0641  0.0075 -0.0316
 5019W        W21866  15.738  14.030   5.245 -0.2607  0.0844 -0.1197
 5020W        W21867   1.557   4.670  11.165 -0.1787  0.0264 -0.0316
 5021W        W21868  16.916  10.102  12.645  0.2697  0.0897 -0.1282
 5022W        W21869   2.038  12.187  15.355 -0.0891  0.3492 -0.0257
 5023W        W21870  17.353   7.337  11.409  0.0755  0.1807 -0.1140
 5024W        W21871  17.069   1.126  12.883 -0.0239 -0.0751  0.0850
 5025W        W21872   4.050   9.264   5.889  0.2425  0.2625 -0.0752
 5026W        W21873   2.264   5.257   3.989 -0.2977 -0.1506  0.0654
 5027W        W21874  14.709   5.137   3.085  0.0502 -0.0821  0.0426
 5028W        W21875   2.980   9.748   2.901 -0.0658 -0.0694  0.1987
 5029W        W21876  10.018   5.653   3.603  0.0546  0.0152  0.1558
 5030W        W21877  17.308  18.394   1.794  0.0034  0.2756 -0.4233
 5031W        W21878   5.074   3.137   4.541  0.1345  0.2896  0.2645
 5032W        W21879  16.953  11.811  13.868  0.1335  0.0313 -0.1016
 5033W        W21880  10.160   0.219  15.676  0.1144  0.1956  0.0725
 5034W        W21881  10.759  10.383   0.137  0.0079 -0.0922 -0.2315
 5035W        W21882   3.382   2.467  13.883  0.0088 -0.0092  0.2985
 5036W        W21883   6.401   5.445  12.374  0.0904  0.3394  0.1004
 5037W        W21884  16.241  13.134   2.167 -0.2513 -0.0420  0.5439
 5038W        W21885  10.582  17.558   1.096 -0.0550 -0.4066 -0.0306
 5039W        W21886   6.872   0.010  11.504 -0.0643  0.2673 -0.0008
 5040W        W21887  15.941   1.832   3.179  0.0900  0.1131 -0.0106
 5041W        W21888   0.154   2.320   1.964  0.3023  0.3896  0.0461
 5042W        W21889   1.658  17.740  10.504  0.0871 -0.3138  0.1950
 5043W        W21890   1.082   8.186  10.980 -0.2707  0.1632 -0.2095
 5044W        W21891  11.228   9.571   1.801 -0.2021  0.1782 -0.0357
 5045W        W21892   5.607   9.471   0.695 -0.2409  0.2883  0.0007
 5046W        W21893  10.626  11.237   2.624  0.2222  0.1091  0.0930
 5047W        W21894   7.889   0.030  14.626  0.0937 -0.1319 -0.2765
 5048W        W21895  12.034  12.241  13.664  0.0279 -0.2952  0.1481
 5049W        W21896   8.640   7.369  10.299  0.0383 -0.0974  0.1846
 5050W        W21897  11.814  17.270  11.461  0.1978  0.1354 -0.2807
 5051W        W21898  17.921   1.370  11.827  0.2488  0.0864  0.0170
 5052W        W21899   8.838   4.744   0.489 -0.1338  0.0564 -0.3923
 5053W        W21900  11.605  12.564   2.055  0.0818  0.1669  0.5012
 5054W        W21901   3.826  15.602   2.090  0.1422  0.0030 -0.0208
 5055W        W21902   3.374   2.329  11.699  0.5159 -0.1601 -0.3319
 5056W        W21903   5.514  16.082   4.396 -0.0603  0.4270  0.2606
 5057W        W21904  13.881  10.041   4.130 -0.0655  0.1066 -0.4641
 5058W        W21905  13.718   7.857   1.497 -0.1806  0.1462  0.2639
 5059W        W21906  15.536   3.250  12.095  0.0545 -0.0703 -0.2384
 5060W        W21907   0.051   2.720   0.947  0.3195  0.0176 -0.0351
 5061W        W21908   0.392   4.436  15.339 -0.0177 -0.2849  0.0085
 5062W        W21909  17.847  15.880  13.629 -0.1991  0.3258 -0.0586
 5063W        W21910  11.573   1.232   4.386 -0.2152  0.1809 -0.2336
 5064W        W21911   3.213  16.881  11.205 -0.0362 -0.1687 -0.4676
 5065W        W21912   9.988   9.620   4.988 -0.0266 -0.0470 -0.2109
 5066W        W21913   8.961  17.118  12.006 -0.0193  0.2825  0.1533
 5067W        W21914   4.263   8.762  11.314  0.0738  0.1497 -0.0927
 5068W        W21915  12.532  13.006  13.455 -0.0326 -0.0536  0.0045
 5069W        W21916   8.592  15.994   0.319  0.3037  0.1499 -0.2696
 5070W        W21917  14.665   6.534  11.637 -0.0256 -0.1321  0.1565
 5071W        W21918  12.291   2.588   3.746  0.0476  0.1052 -0.0572
 5072W        W21919   6.401  11.293   5.307 -0.0764  0.0788 -0.2360
 5073W        W21920  13.559  10.927   0.716  0.3549 -0.0231  0.2636
 5074W        W21921   7.837   4.942  10.431 -0.2537  0.2499 -0.1539
 5075W        W21922  11.173  10.576   2.770 -0.2346 -0.1917  0.0686
 5076W        W21923  17.728   3.661   4.583 -0.0540 -0.4728 -0.0999
 5077W        W21924  11.084  16.623  15.081  0.0069 -0.1745 -0.0302
 5078W        W21925  17.688   8.434   4.665 -0.0923 -0.0681  0.0752
 5079W        W21926   1.615   1.729   0.891 -0.2209 -0.2207  0.1531
 5080W        W21927  12.823  11.880  15.022  0.0380 -0.0673  0.1227
 5081W        W21928   3.587  16.045   1.873  0.2652 -0.1076 -0.0966
 5082W        W21929  13.655  10.438   2.921  0.0404 -0.0991 -0.0809
 5083W        W21930  13.348  15.547  13.913  0.2376  0.2422  0.0694
 5084W        W21931   2.377  12.813  12.013 -0.0673  0.3883  0.0201
 5085W        W21932  17.143  17.308   5.307 -0.1142  0.4910  0.1644
 5086W        W21933  12.348  15.656   2.837 -0.0036 -0.1188 -0.0669
 5087W        W21934  18.373   0.943   2.089  0.1385 -0.0100  0.0960
 5088W        W21935  17.924   4.972   4.636  0.0335  0.2897 -0.2219
 5089W        W21936  16.557   7.643   5.068 -0.0522  0.3902  0.1624
 5090W        W21937   9.961   8.083  14.752 -0.2812 -0.0173  0.0616
 5091W        W21938   6.147  14.584  12.972  0.2502  0.1127 -0.1322
 5092W        W21939   2.102   7.206   3.578  0.2126 -0.3042  0.3942
 5093W        W21940   3.830   1.540   0.496  0.0406  0.2144 -0.1497
 5094W        W21941   8.741   0.702  12.512 -0.1715 -0.1734  0.0967
 5095W        W21942  16.700  10.316  13.447 -0.0223  0.1698  0.1485
 5096W        W21943  15.603  11.195   3.859 -0.1399 -0.0418  0.1090
 5097W        W21944  11.927  15.221   2.943 -0.3499 -0.2257 -0.0235
 5098W        W21945  17.893  14.761  11.126  0.3442 -0.1530  0.1756
 5099W        W21946  11.874   3.611  13.194  0.1611  0.0984  0.0701
 5100W        W21947  11.475  12.445   1.398  0.1758 -0.0523  0.1214
 5101W        W21948   2.419  17.791  13.934 -0.0400  0.2816 -0.0745
 5102W        W21949   6.011   6.758   3.986  0.0611 -0.1743 -0.0369
 5103W        W21950  10.816  17.668   2.831 -0.3690  0.0080  0.0942
 5104W        W21951   4.926  16.847   3.896 -0.0183 -0.1214  0.2532
 5105W        W21952   6.911   5.869  12.255  0.0179  0.0103  0.0142
 5106W        W21953  10.222   7.274   0.138  0.0866  0.0239 -0.0423
 5107W        W21954   6.666  15.521  12.045  0.1154  0.5183  0.1505
 5108W        W21955   1.307  10.429   6.107 -0.0774  0.1786 -0.0549
 5109W        W21956   6.978  10.959   3.705 -0.0803  0.0771 -0.2441
 5110W        W21957   3.364   2.493  13.363  0.3118  0.0801  0.2432
 5111W        W21958  11.500  16.935  14.886  0.0269 -0.1179 -0.0154
 5112W        W21959  15.542   1.814   9.804 -0.0775  0.0045  0.0463
 5113W        W21960   6.757  17.253  10.615 -0.2171  0.1452 -0.4121
 5114W        W21961  14.389  12.884  12.075  0.1628 -0.1375 -0.0166
 5115W        W21962  17.705  13.258  14.825 -0.3103  0.4229 -0.0422
 5116W        W21963   2.583  12.125  13.123  0.1117 -0.1265 -0.0872
 5117W        W21964   6.341  16.992   5.748  0.0012 -0.1208 -0.0423
 5118W        W21965  13.967   0.058   1.064  0.1227  0.0859  0.1275
 5119W        W21966  11.875  10.028  15.409 -0.1560 -0.2955  0.1231
 5120W        W21967  10.111  11.344  13.016  0.0362  0.0018 -0.1325
 5121W        W21968  18.453  15.238   5.938 -0.1009 -0.1499  0.2008
 5122W        W21969  13.903   7.729   2.566 -0.2466 -0.1547 -0.0135
 5123W        W21970  12.414  10.853  11.331  0.0348  0.0916  0.1795
 5124W        W21971  10.431  10.445   1.549  0.0390 -0.0954  0.0620
 5125W        W21972  16.982  15.450   2.859  0.0735 -0.1573 -0.0966
 5126W        W21973   5.338  14.820   0.643 -0.3600 -0.1080 -0.2716
 5127W        W21974  10.131  17.438   5.070  0.1961 -0.0617 -0.1389
 5128W        W21975  14.393  12.094   4.930 -0.1185  0.0943  0.1285
 5129W        W21976   7.224   8.141  11.210  0.2772 -0.3683 -0.0778
 5130W        W21977   6.422  12.110   1.449  0.1862  0.0234  0.1607
 5131W        W21978  11.939   9.036  11.988  0.3500 -0.1278  0.0564
 5132W        W21979   0.138  15.321   3.394 -0.1166 -0.2498 -0.3698
 5133W        W21980   0.765   6.069  11.048 -0.1834  0.1200 -0.0608
 5134W        W21981   6.745  17.657  12.122  0.2211  0.2841  0.1067
 5135W        W21982   1.866  10.720   3.474  0.0180  0.1460 -0.0935
 5136W        W21983   6.803   2.475  15.911  0.0287 -0.2186  0.0710
 5137W        W21984  11.433   9.852   0.467  0.0678  0.1917  0.0095
 5138W        W21985   9.003   0.932  11.521 -0.0150  0.1545 -0.0238
 5139W        W21986  16.551   3.267  13.304 -0.0755  0.3680  0.2279
 5140W        W21987   0.456  16.768  11.775 -0.1423  0.0398  0.1028
 5141W        W21988  16.509  11.365   1.607  0.2902 -0.1134 -0.1281
 5142W        W21989  10.296   6.429   2.500 -0.1181  0.0973 -0.0735
 5143W        W21990  14.941  17.406   3.383 -0.1364 -0.5487 -0.0532
 5144W        W21991   5.544  10.496  13.576 -0.2667  0.2003 -0.0092
 5145W        W21992   9.645   1.782   4.308 -0.1942 -0.0213 -0.0197
 5146W        W21993  12.976   9.876  12.597 -0.0166 -0.0761 -0.1341
 5147W        W21994   3.128   4.172  12.723  0.0887 -0.0805 -0.3013
 5148W        W21995  15.573   9.420  14.672 -0.2016 -0.0144 -0.1280
 5149W        W21996  14.301   9.286  13.146 -0.1703  0.0609  0.0129
 5150W        W21997  13.247   4.635  11.600 -0.1259  0.0402 -0.2196
 5151W        W21998  16.213   5.728   3.645 -0.1600  0.0286  0.3049
 5152W        W21999   7.861  17.870   5.240  0.0340  0.1466 -0.0877
 5153W        W22000   4.069  12.899  12.466  0.1578  0.0034 -0.0595
 5154W        W22001  10.230  11.886  13.377 -0.4702 -0.2411  0.1792
 5155W        W22002  14.837   8.412   3.620  0.1535 -0.1261  0.1765
 5156W        W22003   1.193  13.928   5.046  0.0209 -0.2141 -0.0090
 5157W        W22004   8.997   7.095  10.506 -0.1221 -0.0585 -0.1570
 5158W        W22005   9.457  14.193  12.536 -0.0575  0.2097 -0.0190
 5159W        W22006  16.596   1.067   4.143 -0.2195  0.1993  0.0721
 5160W        W22007  17.425   8.022   0.405  0.0460  0.1994 -0.0924
 5161W        W22008   2.822   8.348  12.088 -0.0192  0.2439  0.1755
 5162W        W22009   7.405   4.166  13.871 -0.0608  0.1723 -0.0282
 5163W        W22010  12.440  17.014   4.812  0.3714 -0.2349  0.0549
 5164W        W22011  14.428  12.869   0.461 -0.0707 -0.2596  0.2123
 5165W        W22012   5.202  11.216   2.135  0.1215  0.1538  0.0573
 5166W        W22013  18.479  17.498   5.060  0.0227  0.0913  0.1089
 5167W        W22014   7.423  10.443  12.692  0.1248  0.0344  0.0921
 5168W        W22015   4.594   9.387   2.633 -0.1089 -0.5355  0.0311
 5169W        W22016   2.181   8.622   3.031 -0.2190  0.1335 -0.1649
 5170W        W22017   3.627  10.034  11.568 -0.1633 -0.0326 -0.1761
 5171W        W22018   2.817   0.542   4.987 -0.0396  0.0362 -0.1006
 5172W        W22019   0.741  12.172   5.434  0.1354  0.2824  0.1357
 5173W        W22020  14.961   8.884   2.045  0.2185  0.1118 -0.1219
 5174W        W22021  11.216   8.213  12.844 -0.1319  0.2027  0.1084
 5175W        W22022  17.110   5.978   0.536  0.0474 -0.0923  0.0221
 5176W        W22023  17.409  13.875   3.984 -0.1092  0.0852 -0.2167
 5177W        W22024   5.239   0.493   5.226 -0.2056  0.0145 -0.3301
 5178W        W22025  17.768  18.333   1.489 -0.0281 -0.1954 -0.0382
 5179W        W22026   6.903  17.726  11.024 -0.0391  0.0424 -0.0365
 5180W        W22027  13.122  12.337  15.053 -0.2074 -0.0075 -0.0517
 5181W        W22028  16.041  10.839   1.020 -0.1390  0.0172  0.0004
 5182W        W22029  17.216  16.216  12.319  0.1793  0.0535 -0.1723
 5183W        W22030   1.473   4.729  15.001 -0.0095  0.1510  0.1530
 5184W        W22031   0.162   1.962  13.420  0.0159  0.1211  0.0864
 5185W        W22032  11.509   3.375   4.375 -0.0944 -0.2820  0.0406
 5186W        W22033   8.432  16.431   3.720  0.1883  0.1344  0.2758
 5187W        W22034  10.327   5.844   3.232 -0.3533  0.5594 -0.0880
 5188W        W22035   3.692  14.500   3.047 -0.0496 -0.0468  0.0135
 5189W        W22036   9.437  13.863   5.384 -0.1936  0.0412  0.0355
 5190W        W22037   8.332   4.841  11.218 -0.0332  0.0797 -0.1678
 5191W        W22038   9.894  16.484   0.562  0.1309  0.1008 -0.2598
 5192W        W22039   1.847  10.942  15.057 -0.0742  0.1993  0.2584
 5193W        W22040  16.130   1.531   5.116 -0.1985 -0.0972 -0.3154
 5194W        W22041  13.489   5.632   3.952 -0.0230  0.2787 -0.2471
 5195W        W22042   1.144  18.015  11.788  0.0049  0.0941 -0.1693
 5196W        W22043  17.861  14.670   5.359  0.3594 -0.0277 -0.0121
 5197W        W22044   4.289   6.453  11.120  0.0658 -0.2899 -0.2685
 5198W        W22045  10.819  11.717   1.883  0.1043 -0.1381 -0.0580
 5199W        W22046  13.688   5.910  15.318  0.1851  0.0464 -0.2031
 5200W        W22047  13.884   3.089   1.627 -0.0809  0.1475 -0.2367
 5201W        W22048   9.684  17.186   4.095 -0.1572 -0.0568  0.0381
 5202W        W22049   5.944   5.179   2.707  0.1861  0.0526 -0.1164
 5203W        W22050  14.355  14.137   4.729 -0.0390  0.0558  0.0249
 5204W        W22051   1.305  14.525  12.258 -0.1216 -0.0956  0.1310
 5205W        W22052  15.395  13.593   3.435  0.1209  0.0041 -0.0672
 5206W        W22053   6.630   7.053   0.382  0.0762 -0.0564  0.0631
 5207W        W22054  12.954  17.302   2.278  0.2769 -0.0220  0.2685
 5208W        W22055  10.389   9.627  12.798  0.0047  0.0518 -0.1633
 5209W        W22056  12.725  15.627   0.978 -0.0550  0.1623 -0.0271
 5210W        W22057   7.799   4.907   9.914  0.1053 -0.2344 -0.0242
 5211W        W22058  11.354  17.417  11.155  0.0665 -0.0517  0.0197
 5212W        W22059   4.894  17.097  14.442 -0.1932  0.0338  0.1890
 5213W        W22060  14.124  10.180  12.044  0.1475  0.1155 -0.0094
 5214W        W22061   7.102  14.343   3.333  0.1028 -0.0470  0.1020
 5215W        W22062   5.455   3.721   2.873 -0.1881  0.0857 -0.0371
 5216W        W22063  11.043   5.092   4.063 -0.0722  0.1426  0.0254
 5217W        W22064  12.956   1.485   1.327 -0.1973 -0.0188  0.0325
 5218W        W22065  12.030  11.756  14.497  0.0591  0.0481 -0.0900
 5219W        W22066   7.409   5.411  11.230 -0.0713 -0.1153 -0.0712
 5220W        W22067   8.738  12.831   2.121 -0.1217 -0.0241  0.1222
 5221W        W22068   0.994  17.663   1.210  0.0411  0.2865  0.1158
 5222W        W22069  16.661   1.765   0.749 -0.1349 -0.1160 -0.4418
 5223W        W22070   5.083   8.798  15.072 -0.3664  0.1076 -0.0224
 5224W        W22071  16.371  18.339  12.876 -0.0965 -0.0011 -0.0626
 5225W        W22072  11.169  10.985  13.602 -0.2989 -0.0247  0.0715
 5226W        W22073  15.227  13.655  11.496  0.0935 -0.0461  0.4690
 5227W        W22074  14.075  11.772   5.263  0.1063  0.1151 -0.3748
 5228W        W22075  14.865   1.886   2.243  0.0718  0.2801 -0.0433
 5229W        W22076   6.822  14.360   4.594 -0.0243 -0.0857  0.1374
 5230W        W22077   1.412  18.355   2.487 -0.3784  0.0251 -0.2110
 5231W        W22078   6.211  17.277   4.939 -0.0773 -0.0335  0.0676
 5232W        W22079  17.967  11.333  11.780  0.1843 -0.0731  0.1748
 5233W        W22080   8.468  17.034   3.760 -0.0785 -0.1071 -0.1296
 5234W        W22081   7.737  16.981  13.252 -0.5076  0.0932 -0.1956
 5235W        W22082   0.810   0.888  14.068 -0.1140  0.0905  0.0621
 5236W        W22083   0.754  12.535  15.799 -0.0401  0.2631 -0.2205
 5237W        W22084  12.079  11.785  15.383  0.0738 -0.0675  0.2027
 5238W        W22085   5.493  16.288   4.845  0.2961  0.1533  0.0228
 5239W        W22086  13.029  11.476   1.204 -0.3178 -0.1858 -0.0426
 5240W        W22087  12.590   3.371  12.693  0.0262  0.1214  0.4058
 5241W        W22088  17.911   0.397   4.679  0.1422  0.0196 -0.3138
 5242W        W22089  13.296  12.852   4.331  0.1075 -0.0309 -0.1255
 5243W        W22090  10.611   8.817   0.033 -0.2401  0.1075 -0.1323
 5244W        W22091  16.465  13.927   5.102  0.1905  0.2324  0.0869
 5245W        W22092  18.145   0.789  14.851 -0.0209 -0.3103  0.4388
 5246W        W22093  17.980  12.115  12.114  0.2934  0.0296 -0.0198
 5247W        W22094  15.564  17.980   2.503 -0.0595 -0.4320 -0.1108
 5248W        W22095  11.134  13.806   2.332  0.2387 -0.0131  0.2345
 5249W        W22096   8.736  10.167  14.753 -0.0390  0.0373 -0.0655
 5250W        W22097  14.462   4.002   4.005  0.1673  0.1096 -0.1468
 5251W        W22098   7.536  12.657  15.855  0.4922 -0.2039 -0.0629
 5252W        W22099   9.177  10.965   1.565  0.0163 -0.0122 -0.0512
 5253W        W22100   4.530  10.963   0.777 -0.0210  0.0743 -0.1030
 5254W        W22101   7.697   0.102  12.631  0.1237  0.1084  0.3191
 5255W        W22102  16.422   2.863  11.098 -0.0794 -0.1336 -0.0709
 5256W        W22103  16.121  14.152   4.794 -0.1656  0.0284 -0.0841
 5257W        W22104  13.388   8.302  11.554 -0.1410  0.2288  0.0272
 5258W        W22105   7.162  10.524  15.467 -0.2286  0.3790  0.0132
 5259W        W22106   0.060  10.122   4.833  0.1129  0.0137 -0.0202
 5260W        W22107   6.106   8.009  10.601 -0.1919 -0.1019  0.2465
 5261W        W22108  17.508   3.820   1.495 -0.1442  0.4373 -0.2128
 5262W        W22109   7.209   3.910  14.715 -0.0647 -0.2567  0.0111
 5263W        W22110   5.726  14.543  14.125 -0.1986 -0.0496 -0.1592
 5264W        W22111   5.315   2.905   4.954 -0.1649  0.1260  0.0522
 5265W        W22112   5.021   9.312   2.306  0.1616 -0.4176 -0.0082
 5266W        W22113   4.321   4.540   1.110  0.3960 -0.0559  0.1728
 5267W        W22114   6.820  10.414  15.829  0.0204 -0.0601  0.0972
 5268W        W22115  11.477  18.201  11.610  0.0704  0.0782  0.0782
 5269W        W22116  11.308  14.330  12.784  0.2004 -0.2767 -0.2472
 5270W        W22117   2.712   6.734  12.626  0.0512 -0.2214 -0.0297
 5271W        W22118  16.670   1.379  12.809 -0.1156  0.1168  0.1067
 5272W        W22119   9.404   5.586   1.056  0.1011 -0.1359  0.0487
 5273W        W22120  14.177   9.588   5.015 -0.0785 -0.0062 -0.3605
 5274W        W22121   3.202   6.825  12.791  0.0423 -0.0984  0.0446
 5275W        W22122   2.983   4.889   1.855 -0.0629 -0.0916  0.1116
 5276W        W22123   3.364   8.650   1.349  0.1825  0.0565  0.0345
 5277W        W22124   6.651  17.029   4.968  0.1239 -0.2325 -0.0349
 5278W        W22125  12.413   0.759  10.752 -0.0244  0.1289  0.1347
 5279W        W22126   2.214   5.898  11.472 -0.0978  0.1413 -0.0660
 5280W        W22127  11.214  12.948   4.196 -0.2794 -0.6233  0.1546
 5281W        W22128  15.879  13.501   2.870  0.0428  0.0707  0.0572
 5282W        W22129   0.499   2.245   5.340 -0.1815 -0.0877 -0.1168
 5283W        W22130   9.580  10.527   3.243 -0.2622  0.0125 -0.0641
 5284W        W22131   8.354   7.907  12.259  0.1227  0.2737  0.1512
 5285W        W22132   0.327   9.292   3.892  0.1284  0.0825  0.0383
 5286W        W22133  17.736   4.160  12.760  0.0987 -0.1481  0.2717
 5287W        W22134   7.105   8.943   4.970  0.1761  0.2002 -0.3134
 5288W        W22135   6.418  15.086   2.652  0.1114  0.1441  0.2630
 5289W        W22136  14.732  11.571   3.883  0.1755  0.2586 -0.2679
 5290W        W22137   8.207  17.932   4.867 -0.0201  0.0525 -0.1780
 5291W        W22138   8.434  14.088   0.424  0.0450  0.1637  0.0466
 5292W        W22139   9.210  10.217   4.807 -0.0253  0.1879  0.0422
 5293W        W22140  17.995   2.598  15.121  0.4324 -0.2242  0.1530
 5294W        W22141  12.864  13.674   1.729 -0.4617 -0.0172 -0.1126
 5295W        W22142   2.135  11.795   2.562 -0.0543 -0.2492 -0.1334
 5296W        W22143  15.437   4.512  15.405  0.1175  0.0827 -0.2190
 5297W        W22144  11.445   4.466  10.548  0.1668  0.0551  0.0339
 5298W        W22145   1.294  13.952  15.708 -0.1225  0.0430  0.1053
 5299W        W22146  14.427   3.626   1.462  0.1546 -0.2008  0.0013
 5300W        W22147  16.161   8.302   2.208  0.1463 -0.1565  0.1115
 5301W        W22148  13.053   8.692   3.883  0.1419  0.1163 -0.2125
 5302W        W22149  13.040   4.244  12.639 -0.0974 -0.0369 -0.0657
 5303W        W22150  16.190   1.135  10.838 -0.1336 -0.1673 -0.0292
 5304W        W22151   5.575  12.177  15.773 -0.1103  0.1197  0.1143
 5305W        W22152   7.727  10.472   2.565 -0.1078  0.1956  0.1639
 5306W        W22153  17.586  14.454   1.484 -0.0369  0.1346 -0.0111
 5307W        W22154   3.180   5.509  12.922 -0.2010 -0.2579  0.0448
 5308W        W22155   1.913  11.561   5.725 -0.1989 -0.3465  0.1112
 5309W        W22156  12.031   5.449  11.155 -0.0426  0.2341 -0.0905
 5310W        W22157  11.170  18.320  10.794  0.0617 -0.1672  0.1740
 5311W        W22158  14.224  15.539   4.976 -0.0409 -0.2399  0.1005
 5312W        W22159  16.232   8.795   3.039 -0.3905 -0.0587 -0.1236
 5313W        W22160  13.582  18.006  13.382 -0.0974 -0.0505 -0.1207
 5314W        W22161  12.810  12.589  12.042 -0.1911 -0.1382  0.3301
 5315W        W22162   0.115  10.129  11.569  0.0657  0.1670  0.1004
 5316W        W22163   5.151  12.301   3.911  0.1481 -0.0264 -0.1809
 5317W        W22164   5.647  15.020   4.269 -0.0445 -0.0271  0.0015
 5318W        W22165  12.518   7.424  10.460 -0.1896 -0.1459 -0.0397
 5319W        W22166   1.253   4.808  15.473  0.0778 -0.2918 -0.0173
 5320W        W22167  13.787  17.097   4.033 -0.1866  0.2240  0.2608
 5321W        W22168   4.746  16.531   2.192  0.0697 -0.0808  0.1576
 5322W        W22169  18.125   1.285  14.901  0.0616 -0.0373 -0.0253
 5323W        W22170  10.984   9.673   3.136 -0.4252 -0.2412 -0.2904
 5324W        W22171   4.300  10.684  11.495  0.1765  0.0291 -0.0383
 5325W        W22172   4.646  13.353  13.127 -0.1160  0.0737 -0.2705
 5326W        W22173  11.028  17.688  12.054  0.0668 -0.0477 -0.0427
 5327W        W22174   9.063   0.074   0.892 -0.0251  0.3056  0.1758
 5328W        W22175  15.054   1.426  15.679  0.0779  0.2754  0.1282
 5329W        W22176  12.502   3.569  12.217 -0.0894  0.1099  0.2030
 5330W        W22177   8.008   5.420   2.014 -0.1323 -0.1831 -0.0706
 5331W        W22178  10.010   5.354  10.993 -0.2987  0.0468  0.4162
 5332W        W22179   9.869  11.740  14.524 -0.2188 -0.2618  0.0796
 5333W        W22180  10.933  13.074   0.555 -0.1625 -0.3141  0.0830
 5334W        W22181  16.310   1.116  15.156  0.0386  0.1197 -0.1040
 5335W        W22182  14.401   8.843   4.513  0.0359  0.2866  0.1317
 5336W        W22183  13.529   4.848   2.528  0.0579 -0.0641  0.1074
 5337W        W22184   6.818  14.857   0.662  0.1355  0.0378  0.1195
 5338W        W22185  17.754   0.664   5.042 -0.0729  0.1098 -0.0185
 5339W        W22186  10.606  16.049   2.217  0.1733 -0.0675 -0.0806
 5340W        W22187   9.015   2.711   2.949 -0.0729  0.4103 -0.4480
 5341W        W22188   3.949  17.267  15.111  0.1040  0.1056 -0.1340
 5342W        W22189   9.011   2.451   4.622  0.0181 -0.3329  0.3297
 5343W        W22190   0.110   3.536  11.971 -0.1375  0.1827  0.1315
 5344W        W22191   2.297   5.311  13.668 -0.1850 -0.1799 -0.0751
 5345W        W22192   4.521   9.042   5.023 -0.0267  0.0031  0.0926
 5346W        W22193   7.804  11.946   2.455  0.0975 -0.3076  0.0520
 5347W        W22194   1.221  18.348   2.960 -0.4275  0.5025 -0.1985
 5348W        W22195  10.475   9.342  13.537  0.1868 -0.2246  0.2275
 5349W        W22196   5.125  12.765  14.181  0.2798  0.0058  0.0553
 5350W        W22197   1.760  16.831   3.982  0.0765 -0.2766  0.0426
 5351W        W22198   2.137  11.435  12.814  0.1718  0.4288 -0.0279
 5352W        W22199  12.951   7.365   3.836 -0.3965 -0.2274  0.0983
 5353W        W22200  14.195   9.793  13.106  0.3429 -0.2734 -0.0604
 5354W        W22201   7.653   9.359  13.431 -0.0444 -0.1621  0.1724
 5355W        W22202   7.731  14.382   1.920 -0.5858  0.1304 -0.2125
 5356W        W22203   2.701  12.303  11.794 -0.0475 -0.2093 -0.0340
 5357W        W22204  14.992  15.493   0.504 -0.2000 -0.1316  0.1512
 5358W        W22205  17.288   9.197  12.727  0.0244 -0.0912  0.0865
 5359W        W22206   9.529   4.737   9.439  0.2274 -0.0229  0.2645
 5360W        W22207   5.073  11.830   3.844 -0.3123 -0.0090  0.0392
 5361W        W22208  11.733   6.022  14.455 -0.0880  0.1013 -0.1381
 5362W        W22209  14.216   7.127   1.158 -0.0448  0.1503 -0.1483
 5363W        W22210   1.286  14.485   5.113 -0.0377 -0.2961  0.0336
 5364W        W22211   6.057  18.446   2.451 -0.1748 -0.0242 -0.2692
 5365W        W22212   2.774  13.154   2.449 -0.0913 -0.2954  0.0406
 5366W        W22213  12.788  16.895  14.565 -0.0841  0.1499 -0.2592
 5367W        W22214   3.299   2.926   0.200 -0.0996  0.3270  0.2488
 5368W        W22215   1.626   0.690   3.109 -0.1735  0.1125  0.2521
 5369W        W22216  10.468  17.826   3.634  0.0219  0.0662 -0.1627
 5370W        W22217  10.733   3.805   3.879  0.1550  0.0080  0.0060
 5371W        W22218   9.155   3.578  11.634  0.0296 -0.0746 -0.1860
 5372W        W22219   6.248   3.675   4.548 -0.3347 -0.2344 -0.2832
 5373W        W22220   2.325   2.489  10.798  0.0917 -0.0732 -0.0492
 5374W        W22221   1.240   0.776  14.270 -0.1460  0.3792  0.0077
 5375W        W22222  12.508   9.136  13.249  0.2392 -0.2193 -0.1524
 5376W        W22223  14.134  16.705   0.622  0.2490 -0.2161  0.2602
 5377W        W22224   9.823   8.098   1.080  0.0292  0.2517  0.1425
 5378W        W22225   0.380  13.863  14.721  0.0821 -0.0553  0.0261
 5379W        W22226  12.300   9.017   0.205 -0.3060 -0.2144  0.1572
 5380W        W22227   9.804  12.700   0.179  0.0712 -0.0006 -0.2454
 5381W        W22228  11.087   2.611  12.937  0.3636  0.0116  0.2234
 5382W        W22229  14.366  12.768  14.584  0.2778  0.1210 -0.2344
 5383W        W22230   2.224  16.587  15.603  0.3909 -0.2469  0.1092
 5384W        W22231   5.451   2.971  14.666  0.1862 -0.2556  0.2493
 5385W        W22232  11.038   9.695   1.368 -0.1503 -0.0189  0.0898
 5386W        W22233  13.476  13.368   4.970 -0.2095  0.2018  0.2622
 5387W        W22234  16.826   8.370   3.166  0.1615 -0.0584  0.1860
 5388W        W22235  14.827   3.180  13.985  0.1038 -0.0865  0.1082
 5389W        W22236   5.964   0.294   4.199  0.1813 -0.0024  0.0217
 5390W        W22237   2.110   9.713  13.097 -0.1188 -0.1311 -0.1091
 5391W        W22238  17.213   2.675  13.418 -0.2016 -0.0253 -0.0809
 5392W        W22239   0.207   5.975   5.179  0.1931 -0.0061 -0.2767
 5393W        W22240   8.751   4.596   3.296  0.3237 -0.2326  0.1721
 5394W        W22241   5.511   8.559  14.179 -0.1691  0.3589  0.2141
 5395W        W22242   7.689  17.237  12.754  0.3520 -0.0614  0.0292
 5396W        W22243  17.479  12.248   2.915  0.0830  0.2126  0.1527
 5397W        W22244  15.714   6.768   2.159 -0.3274 -0.1068 -0.1403
 5398W        W22245   6.289  13.495   0.574  0.2485  0.0872  0.0337
 5399W        W22246   6.406   8.594   3.885  0.1851 -0.0073  0.0361
 5400W        W22247  15.149   6.674  14.374  0.0049 -0.1590 -0.0844
 5401W        W22248   2.293   3.121   2.087 -0.0836  0.0090 -0.1212
 5402W        W22249   4.210   2.849   3.430  0.2629 -0.3192  0.1016
 5403W        W22250   0.410   9.385   5.834  0.0045  0.1653  0.1165
 5404W        W22251   4.929   3.720   6.029 -0.3537  0.1282 -0.1959
 5405W        W22252   2.594   6.822  11.506  0.0015 -0.0394  0.0658
 5406W        W22253   7.635   5.997   3.416 -0.3814  0.1810  0.0865
 5407W        W22254  13.278   7.792   0.081 -0.1086  0.0388 -0.3298
 5408W        W22255  15.201   9.466  13.256  0.2751 -0.3644 -0.1226
 5409W        W22256   1.016   8.527  12.031  0.0962 -0.2354  0.2629
 5410W        W22257  16.294  11.255  13.431 -0.0583 -0.0375  0.1282
 5411W        W22258  16.217   1.024  11.419 -0.3155  0.0425 -0.1094
 5412W        W22259  16.780  15.138   1.022 -0.4670  0.1813  0.1843
 5413W        W22260   9.928   1.459  13.009 -0.2136  0.1148 -0.0378
 5414W        W22261  17.096   2.630   2.020 -0.0270  0.0816 -0.0773
 5415W        W22262   2.396   6.381  15.117 -0.1274  0.1676  0.1570
 5416W        W22263   4.816   1.052  10.759  0.0190  0.2193  0.1490
 5417W        W22264  12.218  14.443   4.631  0.1769  0.4992 -0.0778
 5418W        W22265  14.365  17.712  13.268  0.0377 -0.0799 -0.1757
 5419W        W22266   6.481   5.783   4.167  0.1930  0.0345 -0.1074
 5420W        W22267  18.269   2.270  15.758 -0.0271 -0.1874 -0.0952
 5421W        W22268  14.269  14.004  10.803  0.1213 -0.0945  0.0979
 5422W        W22269   7.318   5.747   3.047  0.0420  0.1561 -0.1203
 5423W        W22270  16.764  10.425   0.506  0.1483 -0.0572  0.1084
 5424W        W22271   2.355   8.025   0.392  0.1119  0.0337  0.2246
 5425W        W22272   0.545  12.227  14.014  0.1856 -0.4277  0.0550
 5426W        W22273  15.154  12.234   3.353  0.0252  0.1095 -0.2077
 5427W        W22274  15.977  10.056  12.214 -0.0977  0.0796  0.0795
 5428W        W22275  14.891  17.443   3.987 -0.2501  0.1049  0.1175
 5429W        W22276   0.917   5.100  11.465 -0.0126  0.1022 -0.0582
 5430W        W22277   7.323   6.364   2.306 -0.1312  0.1352 -0.0924
 5431W        W22278   4.057   3.911   4.093  0.0457 -0.0238 -0.3053
 5432W        W22279   4.099   8.689  12.628  0.0889  0.1790  0.1761
 5433W        W22280   0.371  12.468   2.523 -0.0203 -0.0506  0.0881
 5434W        W22281  16.816  10.791  13.391 -0.1288  0.1694  0.0153
 5435W        W22282  17.445  11.984   1.564  0.1027  0.0070 -0.0645
 5436W        W22283  14.911  16.612   4.270  0.0272 -0.1087  0.2008
 5437W        W22284   1.204   3.270   3.840  0.1585  0.4865 -0.0568
 5438W        W22285   6.167   8.859  14.297  0.2476  0.1366 -0.3076
 5439W        W22286   5.639   3.328   5.110 -0.4216 -0.3049  0.0655
 5440W        W22287  14.380   4.097  15.314 -0.1720 -0.0257 -0.0923
 5441W        W22288  15.979  12.791   5.254  0.0291  0.1550  0.0780
 5442W        W22289  17.353   2.776   3.603 -0.0134 -0.1024 -0.1653
 5443W        W22290   9.294  13.674  12.558  0.0971 -0.1356  0.0150
 5444W        W22291   4.149   9.921   4.872  0.0797  0.0038 -0.2173
 5445W        W22292   1.013   8.190   3.186 -0.1745 -0.0132 -0.0263
 5446W        W22293   9.338  12.887   0.307 -0.0038 -0.1789 -0.2507
 5447W        W22294  14.000   5.857  14.008 -0.5508 -0.0551 -0.1698
 5448W        W22295   9.041  14.951   0.330 -0.0118 -0.2268  0.3735
 5449W        W22296  12.257   9.673  11.964  0.1517  0.0712  0.0944
 5450W        W22297   0.288  16.815   4.405  0.1327 -0.4671 -0.1606
 5451W        W22298   5.235   4.448  13.759  0.0590 -0.3074  0.0688
 5452W        W22299  16.772  14.029  14.259 -0.2229  0.1813 -0.2505
 5453W        W22300  12.354  14.572  13.863 -0.1884 -0.1358 -0.1720
 5454W        W22301  13.897   0.731   3.180 -0.2131 -0.1228  0.0665
 5455W        W22302   0.582  18.491   0.211  0.0686  0.1271 -0.4716
 5456W        W22303  17.775   3.910  12.352  0.1140  0.3029 -0.2196
 5457W        W22304  18.521   5.772   0.615 -0.1694 -0.0964 -0.1269
 5458W        W22305  10.087   7.345  14.541  0.0638  0.1463 -0.1528
 5459W        W22306   3.864  10.327  13.529  0.3035  0.0145 -0.1477
 5460W        W22307   7.532   5.351   0.387 -0.0421 -0.0551  0.2103
 5461W        W22308   1.178  11.184   5.092  0.0930 -0.0669 -0.0656
 5462W        W22309  16.498  10.682   0.152  0.0496  0.1352  0.1387
 5463W        W22310   2.530  15.734  14.969 -0.1465 -0.0183 -0.1397
 5464W        W22311   6.497   8.917   0.684 -0.0933 -0.1616 -0.2909
 5465W        W22312  10.923   0.561   0.635  0.0192 -0.3511 -0.1237
 5466W        W22313   0.661   5.861  15.190  0.0020 -0.1692  0.1178
 5467W        W22314  10.943   7.471   2.609 -0.0836 -0.2896 -0.1485
 5468W        W22315  15.049   1.045  12.702 -0.0155 -0.1705  0.2771
 5469W        W22316   8.752   9.924   2.106  0.0527  0.1477  0.1584
 5470W        W22317   4.744  17.326   4.553 -0.1569  0.4604 -0.1241
 5471W        W22318   7.712  17.314  15.495  0.1912 -0.1692  0.0237
 5472W        W22319  15.071  14.119  11.343  0.2517 -0.2081 -0.1198
 5473W        W22320  12.909  11.377   2.532 -0.0607  0.0339 -0.0960
 5474W        W22321  14.782  14.560   0.914  0.1904 -0.1490  0.1061
 5475W        W22322  11.115   1.613  13.021 -0.2256  0.1217  0.1673
 5476W        W22323  17.662   8.479   3.241 -0.0910  0.1129 -0.2402
 5477W        W22324   5.751   4.412   4.943 -0.1714 -0.0188  0.0626
 5478W        W22325   2.165   8.790  11.630 -0.4425  0.0558  0.0869
 5479W        W22326   7.763  13.125   3.538 -0.2565 -0.0440  0.0792
 5480W        W22327   7.836   7.175  13.708  0.2485  0.1134  0.0989
 5481W        W22328   5.069   1.572  13.757 -0.0085 -0.2034 -0.0263
 5482W        W22329  13.839   8.127  12.607  0.2654 -0.4350 -0.0326
 5483W        W22330   3.921   5.879   4.716 -0.2826 -0.0365  0.0173
 5484W        W22331   0.560  16.515   3.846 -0.1220  0.0610  0.2162
 5485W        W22332  17.789  11.369   3.935 -0.1907 -0.1149 -0.1613
 5486W        W22333   5.449   9.717  15.243  0.2603 -0.0373 -0.0628
 5487W        W22334  18.078  13.760  11.397 -0.1204  0.0563  0.0836
 5488W        W22335  16.611   8.699  12.529  0.2590  0.0580 -0.1112
 5489W        W22336  14.790   8.473  11.713 -0.1547 -0.0544  0.1533
 5490W        W22337   2.112  16.676  14.100 -0.0135 -0.2953  0.2513
 5491W        W22338  14.658   2.422  13.808  0.2910 -0.4719  0.0655
 5492W        W22339   6.241  15.964   5.172  0.0485  0.0268  0.1201
 5493W        W22340  16.522   2.292   0.783 -0.1196 -0.1304  0.0219
 5494W        W22341   9.127  13.673   3.589 -0.2828  0.2909 -0.3657
 5495W        W22342  13.757   9.844   4.920 -0.2274  0.1055  0.1245
 5496W        W22343   8.954   7.545  15.496  0.1191 -0.1208  0.0170
 5497W        W22344  13.531  17.579   3.466 -0.0897 -0.0206 -0.0993
 5498W        W22345  10.984   3.513  15.211  0.4744  0.0356  0.0679
 5499W        W22346   1.561   0.117  12.765 -0.1200 -0.1737  0.0516
 5500W        W22347   2.998  13.413  13.702 -0.1534 -0.0110 -0.1734
 5501W        W22348  13.722   2.407  15.870 -0.0061  0.4108 -0.0364
 5502W        W22349  14.007   9.972  11.364 -0.1518 -0.1697 -0.0942
 5503W        W22350   5.347   7.918   2.108 -0.0854  0.0467 -0.0679
 5504W        W22351   3.109  10.724   3.311 -0.0723  0.1953 -0.0074
 5505W        W22352   9.445   2.174   4.632  0.1244  0.1599 -0.2237
 5506W        W22353  17.933   7.188  13.705 -0.0159 -0.4076  0.2034
 5507W        W22354   0.530   7.450   3.595 -0.1998 -0.1255  0.1499
 5508W        W22355  17.356   7.802   4.082  0.0833 -0.1192 -0.0157
 5509W        W22356   6.370   5.154  15.440  0.0268  0.1025 -0.1189
 5510W        W22357   7.324   2.232   1.631  0.0696  0.1322 -0.0099
 5511W        W22358  13.806   6.313   4.609  0.1271  0.0246 -0.0359
 5512W        W22359   6.965   8.701   2.921 -0.2200 -0.0524 -0.1861
 5513W        W22360   6.542  16.935  11.508 -0.0720 -0.0002 -0.1643
 5514W        W22361  16.032   8.485   2.742  0.1216  0.3508  0.2262
 5515W        W22362  18.040  16.226  15.670 -0.1438  0.2085  0.2258
 5516W        W22363  16.597   1.830  11.832  0.1253  0.0928  0.1213
 5517W        W22364   3.189  16.962  14.109  0.3247  0.2129 -0.0308
 5518W        W22365  10.103   0.212  11.932 -0.2124  0.1091 -0.4413
 5519W        W22366   9.059   1.728  13.168 -0.2324 -0.1993  0.1531
 5520W        W22367   7.959  10.293  11.393 -0.1546  0.2285 -0.0877
 5521W        W22368   7.375   1.594  14.378  0.0308  0.3430 -0.2095
 5522W        W22369   8.496   3.555   4.447  0.0460  0.0370  0.1312
 5523W        W22370  15.315  11.766   0.314 -0.1361 -0.0439  0.1392
 5524W        W22371  15.415   2.427   2.686 -0.1304 -0.0148  0.0140
 5525W        W22372  14.243   4.647  13.171 -0.0028 -0.1890  0.0718
 5526W        W22373  14.863   1.394   5.066 -0.0044  0.0429 -0.2793
 5527W        W22374   5.158  16.222   6.082  0.0964  0.2045  0.1345
 5528W        W22375   5.029  12.811   2.518 -0.0858 -0.2874  0.0536
 5529W        W22376  16.704  12.454   0.276 -0.0257 -0.0466 -0.2731
 5530W        W22377  16.465   3.163  11.911 -0.0036  0.0625  0.1468
 5531W        W22378  17.923   2.835   2.910 -0.0238 -0.2741 -0.1188
 5532W        W22379  17.243  10.085  12.136 -0.1476  0.3033 -0.2716
 5533W        W22380   2.071   1.330   0.187 -0.5814 -0.0019 -0.0331
 5534W        W22381   8.248   4.920  15.652  0.1352  0.1496  0.0079
 5535W        W22382   5.719  12.409   0.273 -0.2830  0.4116  0.2192
 5536W        W22383  15.397   5.248  12.022  0.3550 -0.1880 -0.1346
 5537W        W22384   3.635  14.803   4.853  0.4170  0.1079 -0.0495
 5538W        W22385   2.363  13.142  13.419  0.1407 -0.2790  0.0522
 5539W        W22386   9.796  12.969  11.390  0.1695 -0.1343  0.0218
 5540W        W22387   2.537   5.353  15.279 -0.1493 -0.0089  0.6223
 5541W        W22388   3.546   9.020   2.894 -0.2648 -0.1301 -0.2157
 5542W        W22389   4.132  12.637  15.081 -0.2330  0.1567 -0.1492
 5543W        W22390   4.952  12.388   4.418  0.1904  0.3431 -0.1463
 5544W        W22391  17.469  14.509  11.621  0.0387  0.1223 -0.1080
 5545W        W22392   9.609  12.071   2.759 -0.0152 -0.1452  0.2469
 5546W        W22393  11.580  15.447   1.210 -0.0881 -0.1474  0.0047
 5547W        W22394   5.100  11.286   1.509 -0.1633 -0.2434  0.0362
 5548W        W22395   5.905   7.365   2.774  0.1544  0.2824  0.0066
 5549W        W22396  14.459   7.738   4.367  0.1742  0.0676  0.1259
 5550W        W22397  10.797   0.679  11.782 -0.1415 -0.0302 -0.2130
 5551W        W22398  15.877  11.430  13.184  0.1924  0.1019  0.2270
 5552W        W22399  10.419  13.820  12.478 -0.0010  0.3980  0.0294
 5553W        W22400  11.414   6.197   2.533  0.0218 -0.2302 -0.0051
 5554W        W22401  10.089  14.068   4.626  0.1688 -0.0011  0.1382
 5555W        W22402  17.628  15.324   2.657  0.0490 -0.1141  0.3847
 5556W        W22403   9.856   1.963   1.737  0.0417  0.2013 -0.1797
 5557W        W22404   8.608   4.370  13.362 -0.0616 -0.0580  0.3268
 5558W        W22405  11.369   4.817   3.267  0.4026 -0.0254  0.0422
 5559W        W22406  13.057   3.576   0.576 -0.2277 -0.0026  0.1599
 5560W        W22407  18.264   6.590   5.076  0.0983 -0.2334  0.0561
 5561W        W22408   3.161  15.593  11.528 -0.3144 -0.3885  0.0375
 5562W        W22409   0.503   6.242  12.868 -0.1084  0.0817 -0.0571
 5563W        W22410   2.068  13.212  12.990  0.1302 -0.0732  0.0389
 5564W        W22411  10.114   8.920   0.036 -0.1541  0.2270 -0.1634
 5565W        W22412   2.013   6.148   3.572 -0.2016  0.0034  0.0955
 5566W        W22413   7.144   3.582   1.541 -0.0180 -0.0125  0.0803
 5567W        W22414  16.324   7.011   1.336  0.1149 -0.0314  0.0469
 5568W        W22415  17.714   3.476  12.553  0.0101  0.0650  0.1309
 5569W        W22416   5.467  13.294   0.855  0.0904 -0.3574  0.0830
 5570W        W22417   6.532   6.996   1.666 -0.1508 -0.2659  0.0141
 5571W        W22418  14.820   7.622  12.838  0.1637  0.0216 -0.1882
 5572W        W22419   6.479   3.292   3.663  0.0727 -0.1745  0.0469
 5573W        W22420  12.387  10.088  14.296  0.0825 -0.1631  0.1047
 5574W        W22421  11.970   1.600  13.931 -0.0665  0.0624  0.2143
 5575W        W22422  14.269   4.279   2.557 -0.2156 -0.1237 -0.0798
 5576W        W22423   3.241   3.789  12.375  0.2975  0.3512  0.1991
 5577W        W22424  17.328  13.358   3.875 -0.2373 -0.0628 -0.0386
 5578W        W22425   8.390   5.884  15.770 -0.0050  0.4330 -0.1016
 5579W        W22426  10.261  12.381   2.793  0.0436  0.0398 -0.1334
 5580W        W22427  10.024  12.007   3.612 -0.2845 -0.3924 -0.1201
 5581W        W22428  17.283   1.879   2.300 -0.0748  0.2511  0.1389
 5582W        W22429  10.200  17.795  14.208 -0.0511 -0.2072 -0.2173
 5583W        W22430   7.172   4.031   3.818  0.1583 -0.0725 -0.0839
 5584W        W22431  15.328   9.613   2.041 -0.1569  0.0711  0.0527
 5585W        W22432   5.873  15.187  13.439  0.3654  0.4148 -0.0894
 5586W        W22433  11.467   7.004  15.844  0.0710 -0.0974  0.0903
 5587W        W22434   2.248  13.551  14.370 -0.1891 -0.1508 -0.1572
 5588W        W22435   2.894   7.185   2.433  0.0887 -0.0500  0.1165
 5589W        W22436   7.785   8.854  13.423  0.1604 -0.0036  0.0335
 5590W        W22437   1.079  15.846  13.077 -0.0680 -0.2341  0.2272
 5591W        W22438  15.174   3.614   5.337 -0.1393 -0.0196  0.3005
 5592W        W22439   2.800   7.468  12.408 -0.2275 -0.1322  0.2601
 5593W        W22440  11.592  16.713   1.694 -0.0122  0.0696 -0.1098
 5594W        W22441   1.941   2.742   1.554  0.1311 -0.3266 -0.0593
 5595W        W22442   1.727   6.564   5.128 -0.3065 -0.2065 -0.1072
 5596W        W22443  12.880  17.865  14.577  0.1937 -0.1020  0.1627
 5597W        W22444  11.612  16.725  15.288 -0.0953  0.0760 -0.2057
 5598W        W22445  12.544   0.473  15.656  0.3142  0.2565 -0.0905
 5599W        W22446   3.710  14.726  13.856  0.0642  0.1007 -0.1006
 5600W        W22447   8.915   4.362  13.923 -0.1065 -0.0754 -0.0834
 5601W        W22448  18.078  12.851  11.036  0.0052 -0.2322  0.2792
 5602W        W22449  18.354   7.607  15.141 -0.2641  0.0395  0.1990
 5603W        W22450  16.250  13.980   1.459 -0.0498  0.0623  0.1436
 5604W        W22451  18.397   8.949   1.035 -0.1643 -0.1250  0.0886
 5605W        W22452  17.277   9.167  13.222 -0.1236 -0.1340 -0.2502
 5606W        W22453   7.234  13.410   3.758 -0.0061  0.0745  0.2525
 5607W        W22454   9.409  15.800  14.753 -0.0774 -0.5356  0.3723
 5608W        W22455   1.450   7.782  13.666  0.2302  0.4150  0.0790
 5609W        W22456  12.781   8.954  13.734  0.0493 -0.3061 -0.0591
 5610W        W22457   0.256  14.018  15.911  0.2399  0.0514  0.0893
 5611W        W22458  14.720  18.381   0.480 -0.0149 -0.0448  0.2232
 5612W        W22459  17.081   6.856  11.455 -0.0445  0.1956  0.0954
 5613W        W22460   9.711   1.445   0.305  0.1250  0.1665  0.0126
 5614W        W22461  14.086   0.661  11.341 -0.1595  0.1069 -0.1292
 5615W        W22462  16.853  11.075  11.698 -0.1086  0.1313  0.1523
 5616W        W22463   8.504   8.982  13.006  0.1801  0.4276  0.2307
 5617W        W22464  13.462   0.650  14.327  0.3655 -0.1517 -0.1696
 5618W        W22465   0.997  15.328   2.317 -0.0525 -0.2582  0.2132
 5619W        W22466  16.243   9.646   1.918  0.0946  0.0581  0.0423
 5620W        W22467   8.080   5.976  13.826 -0.2393  0.0480  0.0513
 5621W        W22468   7.632   9.662   0.088 -0.1338  0.0059 -0.0279
 5622W        W22469  14.757   4.734  10.442 -0.2729  0.1380  0.3085
 5623W        W22470  18.213   3.706  10.550  0.0910 -0.1098  0.0457
 5624W        W22471   2.247   1.518  10.779  0.4975  0.3499 -0.0403
 5625W        W22472   9.218  12.627   3.474  0.0966 -0.3276 -0.4006
 5626W        W22473  12.523  18.101   0.557  0.4258  0.1694  0.1225
 5627W        W22474  17.841   3.890  14.006 -0.0319  0.0518 -0.1967
 5628W        W22475  17.629  12.595   1.940 -0.1094 -0.2767  0.2415
 5629W        W22476   4.393   8.511   4.440  0.0301 -0.3870 -0.0332
 5630W        W22477  15.576  13.307  14.177 -0.0459 -0.1261  0.1333
 5631W        W22478   0.192  12.153  13.234 -0.1234  0.0575  0.4155
 5632W        W22479  16.572   5.534  13.713 -0.3341  0.0917 -0.1712
 5633W        W22480   4.958  12.941  14.777 -0.0622 -0.1767  0.1698
 5634W        W22481   3.856   5.385  15.260  0.1045 -0.0905 -0.0519
 5635W        W22482   3.292  11.135  12.167 -0.1822  0.1094 -0.0451
 5636W        W22483  14.660  12.051   1.665 -0.2231 -0.0359  0.1627
 5637W        W22484  13.913   7.852  12.206  0.0859  0.1333 -0.2958
 5638W        W22485  12.280   1.028  14.941  0.1577 -0.1505 -0.1638
 5639W        W22486  12.813   4.616   0.775 -0.0825 -0.2751 -0.1050
 5640W        W22487   7.168  15.554   2.601  0.1419 -0.2270 -0.1487
 5641W        W22488   4.074   4.323  14.235 -0.0246 -0.1235  0.2439
 5642W        W22489   9.912   3.086  10.604  0.0359 -0.1627 -0.1201
 5643W        W22490  10.942   6.983  12.491  0.0061  0.2212 -0.6823
 5644W        W22491  13.140   9.250   4.631  0.0757  0.1620 -0.1606
 5645W        W22492   9.534   5.985   1.503 -0.1718 -0.0225 -0.1928
 5646W        W22493  13.694  13.137   3.570  0.1399  0.5553 -0.0411
 5647W        W22494  16.394   3.930  10.831  0.2344  0.0305 -0.1427
 5648W        W22495  16.819   7.212  11.206 -0.3920  0.0885 -0.1970
 5649W        W22496  14.306   1.822   5.013  0.0266 -0.1949  0.2018
 5650W        W22497   1.041  10.367   1.756 -0.0435  0.2376  0.3705
 5651W        W22498   3.364  10.696   5.649  0.0216 -0.0010 -0.0169
 5652W        W22499   0.317   7.192   3.946  0.0587  0.1258 -0.1343
 5653W        W22500  17.986  15.313   2.227  0.1691 -0.0171  0.3517
 5654W        W22501   5.508  17.359  11.095 -0.1152  0.0419 -0.0307
 5655W        W22502  10.526  14.663   3.296  0.1736 -0.1077 -0.3179
 5656W        W22503   8.832  17.462   0.389  0.3738  0.1189 -0.0869
 5657W        W22504   8.839  11.377  11.710  0.1705 -0.1739 -0.0945
 5658W        W22505   9.247   0.663  15.737  0.1970 -0.1820  0.2072
 5659W        W22506  11.667  13.099   5.004  0.0992 -0.0429  0.3379
 5660W        W22507  15.197   9.293  11.694  0.0192 -0.0005  0.2081
 5661W        W22508   4.188   7.794   0.492 -0.0580  0.0457  0.0761
 5662W        W22509  17.227  11.349   2.562 -0.2870 -0.0371  0.2297
 5663W        W22510  12.666   3.740  13.328  0.2081 -0.1323 -0.2182
 5664W        W22511   7.827   0.259   2.160 -0.0966  0.2451 -0.1924
 5665W        W22512   9.183  15.738  13.948  0.1365 -0.1464  0.1198
 5666W        W22513   4.042   5.366   4.039  0.1403 -0.1708 -0.1071
 5667W        W22514  10.918   6.705   9.660 -0.0056  0.0798  0.0251
 5668W        W22515   0.004   5.323  15.020 -0.0705 -0.2632 -0.0349
 5669W        W22516  16.597   8.681  11.683  0.2186  0.3108 -0.2340
 5670W        W22517  10.590   0.335  10.097  0.1719 -0.0427 -0.1648
 5671W        W22518  18.268  13.562  15.337 -0.1506 -0.1514 -0.3018
 5672W        W22519   8.629   2.512  12.078  0.0594 -0.2031  0.1675
 5673W        W22520  16.580  18.271   5.403  0.3037  0.1191 -0.1266
 5674W        W22521  12.327   2.193  13.432 -0.1518  0.1171  0.2897
 5675W        W22522  15.313   3.222   3.010 -0.2187 -0.0609 -0.1506
 5676W        W22523   3.835  12.130   4.336 -0.1310 -0.0222 -0.3516
 5677W        W22524  10.155  16.492   3.572 -0.3299 -0.2574 -0.2833
 5678W        W22525   3.478  18.428  13.322  0.0982  0.1665 -0.1810
 5679W        W22526   0.195   4.831  13.722  0.1888  0.2125  0.1394
 5680W        W22527  16.818  10.359  12.095  0.2465 -0.0331 -0.2175
 5681W        W22528   4.724   6.342   2.122 -0.0788 -0.2378  0.1757
 5682W        W22529  11.644   9.029  14.323 -0.2091  0.0228  0.0289
 5683W        W22530  14.661  15.207  11.212  0.1668 -0.5000 -0.1728
 5684W        W22531  14.321   2.848  14.635  0.0042 -0.3364 -0.0121
 5685W        W22532  14.442  18.439   3.180 -0.2057  0.2326  0.0885
 5686W        W22533   3.486  10.915  15.189 -0.0847  0.3675 -0.3652
 5687W        W22534   9.710   1.530   0.775  0.2775  0.1607 -0.0217
 5688W        W22535   0.374   5.441   5.195 -0.1652 -0.0623  0.1789
 5689W        W22536  15.164  10.536   4.988  0.0366 -0.0524 -0.2767
 5690W        W22537   0.555  13.966  14.190  0.0316 -0.2884 -0.1410
 5691W        W22538  10.483  14.340  14.547 -0.3326 -0.2032  0.2573
 5692W        W22539  10.261   4.469  14.672  0.1756 -0.2142  0.1297
 5693W        W22540  18.398  14.252   1.648 -0.2104  0.0763 -0.0333
 5694W        W22541  13.436   2.594   1.028 -0.1377 -0.0802 -0.2914
 5695W        W22542  18.216   7.493   2.049 -0.1617 -0.0451 -0.1595
 5696W        W22543  10.677   2.164   5.287 -0.1450 -0.0794 -0.1606
 5697W        W22544   9.316   9.682  14.825 -0.0713  0.2437  0.1110
 5698W        W22545   6.394  17.201   4.453 -0.1058 -0.0542  0.0198
 5699W        W22546   7.310   2.121  14.320 -0.0288  0.1330 -0.0571
 5700W        W22547   0.541   5.275   0.043 -0.1198 -0.1231  0.1327
 5701W        W22548  17.104   1.418   5.011 -0.2519  0.3020 -0.1338
 5702W        W22549  15.862  10.913  13.327 -0.0547  0.1919  0.1706
 5703W        W22550  17.695  13.634  10.137 -0.0277  0.0205 -0.0337
 5704W        W22551  13.577  11.243   5.419 -0.0105 -0.1668 -0.0592
 5705W        W22552   4.868   3.978   4.989  0.0621 -0.2042  0.0357
 5706W        W22553   6.575   3.614  11.061  0.0167  0.5727 -0.0706
 5707W        W22554   8.153   3.032   0.777  0.5418  0.0221 -0.1369
 5708W        W22555   5.058  11.682  14.139  0.5095 -0.0312 -0.0479
 5709W        W22556   9.844  13.482  15.102  0.0191  0.0415 -0.4301
 5710W        W22557   5.143  10.375  12.602  0.0331 -0.1074  0.0218
 5711W        W22558  14.274  16.833  13.004  0.3844  0.2576  0.0628
 5712W        W22559   0.030   7.525   1.595  0.0871  0.0309  0.0379
 5713W        W22560   8.110   0.403   0.724 -0.0877 -0.0823 -0.1926
 5714W        W22561  16.081   9.219   2.813  0.0638 -0.3971  0.1907
 5715W        W22562  17.227  11.244   2.040 -0.0408 -0.5314  0.0870
 5716W        W22563  13.770  18.018   4.736 -0.0252 -0.2498  0.0748
 5717W        W22564   1.094  18.149   5.099  0.1684  0.2026 -0.1384
 5718W        W22565  13.201  13.353  13.277  0.0655  0.2182  0.1543
 5719W        W22566  17.248   0.889  13.416 -0.0197 -0.1374  0.3568
 5720W        W22567   6.161  12.299  13.404  0.0769  0.0208  0.2995
 5721W        W22568   8.744   1.133   2.422 -0.3577 -0.1012  0.2378
 5722W        W22569   2.928  15.167  12.425  0.1912 -0.2530  0.0232
 5723W        W22570  15.169  15.516   2.578  0.1315 -0.0199 -0.2323
 5724W        W22571   9.664  14.419  15.477  0.2606  0.1826 -0.3389
 5725W        W22572   6.489  12.207   4.878  0.0399  0.1155  0.0170
 5726W        W22573  12.446   7.713   1.830 -0.0818 -0.0597  0.0960
 5727W        W22574  17.314   2.484  11.769  0.0601  0.0539  0.1153
 5728W        W22575   3.296   7.697   1.808 -0.3253 -0.3414  0.0992
 5729W        W22576   8.671  11.301   0.247  0.0015  0.0126 -0.0045
 5730W        W22577  15.158  17.840   3.212  0.1684 -0.0825 -0.1529
 5731W        W22578   4.635   1.888  13.952  0.0363  0.0231 -0.1307
 5732W        W22579  10.985   5.987   9.760 -0.2675 -0.0343  0.1199
 5733W        W22580   9.296  12.167  13.736  0.0750  0.0837 -0.1267
 5734W        W22581   2.060  15.551  11.539 -0.0268 -0.1860  0.1477
 5735W        W22582  10.836   9.159   4.343 -0.0023 -0.0394 -0.0896
 5736W        W22583   2.679  16.654   3.127 -0.0230 -0.0571 -0.0960
 5737W        W22584  12.555   5.676   1.049  0.1032  0.4143  0.0698
 5738W        W22585  17.558  16.480   5.545 -0.1341 -0.1893 -0.4660
 5739W        W22586  15.615  13.621  13.017  0.1168 -0.0982 -0.2692
 5740W        W22587  15.146  17.141  14.654 -0.4752 -0.0715  0.0092
 5741W        W22588   2.079   5.610   4.961 -0.1228 -0.2505 -0.0733
 5742W        W22589  17.117   3.687   3.085  0.1503 -0.4166  0.2135
 5743W        W22590   9.826   1.269  11.201 -0.2171  0.0179  0.0016
 5744W        W22591  14.837   8.345  15.616  0.1548 -0.0354 -0.3574
 5745W        W22592   0.003  16.023  11.499  0.0250 -0.2755 -0.0992
 5746W        W22593   4.403  16.564   0.732 -0.0866 -0.1960 -0.1027
 5747W        W22594  14.630   5.440   5.881  0.1287 -0.2338 -0.1311
 5748W        W22595  17.477  17.714   4.038  0.0782 -0.1830 -0.0525
 5749W        W22596  12.701   6.487  10.506 -0.2137 -0.0886  0.0900
 5750W        W22597  10.156   1.399  12.074  0.0527 -0.0229 -0.1230
 5751W        W22598  18.091  10.741   0.812 -0.0319 -0.3282  0.0048
 5752W        W22599  16.654  16.036  15.572 -0.1627 -0.2810 -0.1020
 5753W        W22600  17.403   9.020   1.555  0.1838  0.0212 -0.0996
 5754W        W22601   3.763  12.740   0.068 -0.2433 -0.2190  0.0026
 5755W        W22602  11.571   8.612   0.597  0.1161 -0.0578  0.0014
 5756W        W22603  12.893   5.189   3.310  0.0834  0.3472  0.2401
 5757W        W22604  13.019   0.283   1.566  0.0810  0.1660  0.1784
 5758W        W22605  18.477   7.975   3.253 -0.2895  0.3805  0.0405
 5759W        W22606  13.901  15.865   4.612 -0.1416  0.0781 -0.0887
 5760W        W22607   3.728  16.662  11.868 -0.0852 -0.3150  0.0131
 5761W        W22608  15.279   9.007  13.466  0.1440  0.0885 -0.1826
 5762W        W22609  11.703   5.225   5.019  0.2405 -0.0763  0.1844
 5763W        W22610  10.491  16.793   2.299  0.1852  0.0182  0.0215
 5764W        W22611  15.581  11.015   4.587  0.0160 -0.2745  0.0668
 5765W        W22612   9.905  15.877   1.071 -0.1421 -0.1858 -0.0104
 5766W        W22613   6.160   0.271  10.473  0.3662  0.1050 -0.1366
 5767W        W22614   4.914   6.365  12.634 -0.2388 -0.2860  0.0341
 5768W        W22615   8.902  16.665  12.263  0.1810  0.0893 -0.0931
 5769W        W22616   3.499   5.225   3.104  0.0001  0.0226  0.1124
 5770W        W22617  16.861  10.124   4.963 -0.0497 -0.3684 -0.0443
 5771W        W22618   8.206  14.864   1.498  0.1993 -0.3876 -0.1816
 5772W        W22619   9.542   8.054   2.237  0.1070  0.2492  0.2079
 5773W        W22620  18.280   6.671   1.470  0.0812  0.1210 -0.0763
 5774W        W22621   4.290   6.888  14.408 -0.1370 -0.1806  0.0382
 5775W        W22622   8.015  18.516  15.703  0.1614  0.1344 -0.1728
 5776W        W22623   6.295  16.913  13.215 -0.0328 -0.1988  0.4100
 5777W        W22624   5.955  12.980   3.743  0.0571 -0.1699  0.2512
 5778W        W22625  10.544   5.957   2.492 -0.2557  0.2257  0.1052
 5779W        W22626  10.281   8.958   0.543 -0.2251  0.2387 -0.0473
 5780W        W22627  11.868  13.408   4.233  0.1647  0.0763 -0.2642
 5781W        W22628  13.824  18.491   3.158 -0.0750  0.1736 -0.0608
 5782W        W22629  11.446  15.599   5.105  0.1049  0.2091 -0.2718
 5783W        W22630  13.620  11.797   5.366 -0.2043  0.2609 -0.0162
 5784W        W22631   5.384   6.218  11.397 -0.1441 -0.0613 -0.3209
 5785W        W22632   4.641  15.499   3.944 -0.0071  0.1091  0.2394
 5786W        W22633  14.781   1.539  13.510 -0.2449 -0.1514 -0.0000
 5787W        W22634  18.228  15.294   1.666 -0.1978 -0.1072 -0.2660
 5788W        W22635   4.614  10.668  10.934 -0.0203 -0.0664 -0.1731
 5789W        W22636   8.936   1.830  10.802 -0.2658 -0.0573  0.2412
 5790W        W22637  13.946   8.647   1.668 -0.0793 -0.1065  0.2244
 5791W        W22638  12.551   1.179   1.637  0.0454  0.0341 -0.0963
 5792W        W22639  14.339   7.295   0.457  0.0014  0.0120  0.0528
 5793W        W22640   2.671  11.592   0.192 -0.4056  0.1474  0.0061
 5794W        W22641   2.762  18.357   5.594 -0.1806  0.2105  0.1409
 5795W        W22642   5.493   6.295  14.012  0.2903  0.0640 -0.1670
 5796W        W22643   9.285  10.167  14.574 -0.0142 -0.0669 -0.0148
 5797W        W22644  13.681   3.913   2.609 -0.1946 -0.1448 -0.2381
 5798W        W22645   9.051  14.175   5.162  0.2023  0.0744  0.0486
 5799W        W22646   6.127   2.590   5.962 -0.1449  0.1761  0.3059
 5800W        W22647   2.750  12.874   5.506 -0.2419  0.2714  0.0716
 5801W        W22648   6.607   1.635  11.889  0.0084  0.0203  0.0252
 5802W        W22649   9.206  13.462   2.898  0.1745  0.1074 -0.1132
 5803W        W22650   7.731   0.809  10.252  0.0344 -0.1948 -0.1379
 5804W        W22651  13.949   9.672   1.591  0.0898 -0.1369  0.1358
 5805W        W22652   4.563  12.848   1.729 -0.2554  0.0546  0.1538
 5806W        W22653  12.839   8.776  12.185  0.3968 -0.2810 -0.1574
 5807W        W22654   4.752  16.912   0.601  0.1786 -0.0752 -0.2452
 5808W        W22655   3.910  10.237   1.110 -0.1541  0.2049 -0.2885
 5809W        W22656  10.392   4.925   1.539 -0.1593  0.1301  0.0546
 5810W        W22657  12.534  13.971  15.445 -0.1319  0.0625 -0.3186
 5811W        W22658  14.291  16.760  13.872  0.0262 -0.0663  0.3570
 5812W        W22659  17.349   5.214   1.123 -0.2376  0.1175  0.1662
 5813W        W22660   9.209  12.027  15.860  0.0162 -0.0587  0.2989
 5814W        W22661   4.728   8.372   4.843 -0.0301  0.0939 -0.1694
 5815W        W22662  14.837   0.044   0.951  0.3244 -0.4466  0.2261
 5816W        W22663   5.053   9.627  14.022  0.0482 -0.2631 -0.0421
 5817W        W22664   4.771   1.606  12.448  0.2482  0.1945  0.1777
 5818W        W22665  12.157   6.301  15.752  0.0539  0.2277 -0.0586
 5819W        W22666  16.209  14.205   2.261 -0.0335 -0.0204 -0.0313
 5820W        W22667  13.234  18.212  15.796 -0.0124 -0.1412 -0.1025
 5821W        W22668   9.597  12.624  14.606 -0.0478 -0.2082  0.2327
 5822W        W22669   4.963   6.066   1.779  0.2485  0.0942  0.1826
 5823W        W22670  16.881   8.176   1.048  0.1054 -0.2118  0.1737
 5824W        W22671   0.622  15.854  12.670 -0.0449 -0.1095  0.0729
 5825W        W22672   4.132   5.902  12.926 -0.2569  0.0985 -0.0792
 5826W        W22673  11.678  15.176   4.876  0.0416  0.1512  0.0612
 5827W        W22674  17.670   5.659  15.804  0.0715 -0.1095  0.0343
 5828W        W22675   1.598   5.650   3.338  0.1120  0.2691  0.0521
 5829W        W22676  13.436  13.226   1.047 -0.0177  0.1901  0.0146
 5830W        W22677  10.313   7.270  12.658 -0.2835  0.0159  0.1494
 5831W        W22678   9.053   3.393  13.075  0.2891  0.0384  0.1775
 5832W        W22679  12.367  17.813   4.113  0.0269 -0.1015  0.0114
 5833W        W22680  15.289   1.852  12.543 -0.0061  0.0027  0.0670
 5834W        W22681   2.351   8.540  12.779  0.1901  0.0684 -0.3756
 5835W        W22682  15.410   2.510   4.287  0.0219  0.2356  0.0039
 5836W        W22683  14.924  18.404  11.266  0.1077  0.1137  0.1386
 5837W        W22684   1.390  12.101   4.776 -0.2013  0.0182  0.1076
 5838W        W22685  12.718   1.195  12.689  0.1198 -0.2908 -0.1249
 5839W        W22686   7.363   4.857  11.110 -0.0937  0.0706 -0.3042
 5840W        W22687  15.210   4.649   5.060 -0.1659  0.0079  0.3230
 5841W        W22688  13.394  11.348  13.391 -0.1658 -0.1072  0.2036
 5842W        W22689   2.771   2.419  14.203  0.1697  0.0612 -0.1511
 5843W        W22690  15.995  11.555  12.613 -0.2438  0.2622  0.2239
 5844W        W22691  16.214  13.231   4.564  0.1566 -0.0853  0.2329
 5845W        W22692  13.911   4.450  14.143  0.1133 -0.0102 -0.1707
 5846W        W22693  16.787  16.012   5.288  0.2361  0.2433  0.0499
 5847W        W22694  13.992  15.375  12.514 -0.0385  0.1352 -0.2844
 5848W        W22695   9.327   2.208   4.129  0.3259 -0.0372 -0.2078
 5849W        W22696   6.072   8.124  15.380 -0.2192 -0.1354  0.1385
 5850W        W22697  10.892   7.337   2.096 -0.0178  0.1986  0.0341
 5851W        W22698   3.482  10.187   1.395 -0.1574 -0.1614 -0.2132
 5852W        W22699   0.054  17.699  11.893  0.0873 -0.1907  0.2446
 5853W        W22700   2.538  10.408   1.966  0.0450  0.0125  0.5794
 5854W        W22701   4.632   6.498   4.718 -0.2994 -0.2194 -0.0204
 5855W        W22702  12.657   9.602  14.333  0.1731  0.0350  0.0308
 5856W        W22703   7.063   1.269   2.844  0.5056 -0.1006  0.2113
 5857W        W22704  11.205   7.633   3.680  0.0153 -0.3852 -0.1170
 5858W        W22705   1.569   2.111  12.639  0.2908 -0.1131  0.0654
 5859W        W22706   9.178   5.606   0.421  0.0551 -0.3900  0.0243
 5860W        W22707  14.702   8.517  11.183 -0.0179 -0.1635 -0.0554
 5861W        W22708  12.176   9.387   0.502  0.0687 -0.0817 -0.1570
 5862W        W22709   5.855  15.106  15.856 -0.1124  0.0317 -0.1715
 5863W        W22710  10.202   5.744  15.282  0.0253 -0.1725 -0.0770
 5864W        W22711  14.820   2.226   1.327  0.0128  0.5861  0.1269
 5865W        W22712  17.056   1.980   3.751  0.1714  0.1791  0.0612
 5866W        W22713  18.217  18.452   0.300  0.3173  0.1463 -0.1196
 5867W        W22714  17.347   2.985   4.594 -0.2002  0.4140 -0.3534
 5868W        W22715   2.687  15.734  14.026  0.0030  0.2800  0.1158
 5869W        W22716   5.387   3.811  11.034 -0.0957 -0.1831  0.0212
 5870W        W22717   8.517  14.752   1.001  0.0857 -0.1228 -0.3160
 5871W        W22718   3.781   5.011   1.597  0.1911 -0.1798 -0.2335
 5872W        W22719  18.210   7.354   4.474 -0.0607  0.6103  0.1245
 5873W        W22720  10.220  14.958  11.597 -0.0449  0.2296  0.0597
 5874W        W22721  17.839  10.943   2.608  0.0256 -0.0240 -0.3475
 5875W        W22722   7.676   8.056  10.956 -0.3214 -0.1765 -0.3171
 5876W        W22723   2.066   2.994  11.460  0.0271  0.0563 -0.0358
 5877W        W22724  12.405  11.951  11.346 -0.3363  0.2208 -0.0330
 5878W        W22725  12.234   1.305   5.451 -0.3082  0.1697  0.0821
 5879W        W22726   5.620   3.377  14.416 -0.2760  0.1338 -0.1516
 5880W        W22727   8.930  13.664  15.545  0.0206 -0.1907  0.0033
 5881W        W22728  10.066  11.185  13.884 -0.3999 -0.0625  0.0197
 5882W        W22729  12.552  16.575  11.935 -0.0343  0.0724  0.2258
 5883W        W22730  11.009   4.678   1.454  0.1676 -0.0631 -0.0916
 5884W        W22731  16.173   8.769   1.267  0.2025 -0.0496  0.1157
 5885W        W22732  17.716  18.397   0.620 -0.0338  0.0376  0.0176
 5886W        W22733   5.407  16.992  12.177  0.1039 -0.0877 -0.0697
 5887W        W22734   3.611   3.650   2.311 -0.0075  0.2981  0.1311
 5888W        W22735   6.679   1.487  15.021 -0.1037  0.0188 -0.3524
 5889W        W22736  14.943   1.249   3.929 -0.2122  0.0358 -0.1360
 5890W        W22737   5.604   4.228   0.663  0.1365 -0.0907  0.1275
 5891W        W22738  16.834  14.933  14.496 -0.0919  0.3219 -0.2824
 5892W        W22739  15.261   7.521   0.496 -0.2469 -0.1021 -0.1170
 5893W        W22740   5.027  17.588  13.544  0.2020 -0.0431  0.0861
 5894W        W22741  11.979  11.490  11.939 -0.0690  0.2545  0.1602
 5895W        W22742   6.581   1.531  14.479  0.1558 -0.1904 -0.1720
 5896W        W22743  15.528  17.551  11.885 -0.1567  0.1749  0.4258
 5897W        W22744   2.736   2.813  15.577  0.0438  0.1499  0.1204
 5898W        W22745  15.064  15.357   4.728 -0.0621 -0.0463 -0.1134
 5899W        W22746   0.166   5.248   2.605  0.0282  0.0156  0.0283
 5900W        W22747   1.129  13.624   2.288 -0.0271 -0.2365  0.1100
 5901W        W22748  15.931  16.525   5.457  0.0920 -0.0965  0.2733
 5902W        W22749  17.460   0.857  10.184 -0.3942  0.2234  0.1695
 5903W        W22750  18.494  13.270   2.086  0.3456 -0.0426 -0.2249
 5904W        W22751   9.632   5.935   2.029 -0.0315 -0.1757 -0.0622
 5905W        W22752  10.880  18.063  15.114  0.1206 -0.3705 -0.1118
 5906W        W22753  12.838   7.284  14.012 -0.1124  0.0446 -0.2245
 5907W        W22754  14.721  13.306  12.973 -0.1052 -0.0428 -0.2392
 5908W        W22755   4.371   0.806  15.852 -0.0989  0.2101  0.1342
 5909W        W22756  12.225  10.992   5.672  0.1889 -0.1881 -0.3444
 5910W        W22757  14.530   6.986  11.883 -0.1702 -0.3295 -0.1452
 5911W        W22758  16.303   5.811  14.166  0.3186  0.1513  0.1415
 5912W        W22759  12.727  10.044  14.818  0.0226  0.1501 -0.3769
 5913W        W22760  18.501   8.200   0.283 -0.3350 -0.0060  0.1517
 5914W        W22761  11.670   8.300  13.552 -0.4225 -0.0213  0.2182
 5915W        W22762  18.459  15.539   4.692  0.0593 -0.2081  0.2488
 5916W        W22763   2.648   4.888  15.077 -0.0815 -0.3407 -0.5149
 5917W        W22764  10.682   7.220   2.987 -0.2538  0.0806 -0.1051
 5918W        W22765  16.454   4.393  15.000  0.0070  0.0688 -0.0504
 5919W        W22766  16.540   1.495  15.397 -0.0063  0.1036  0.1744
 5920W        W22767   8.341   7.754   5.627 -0.0689  0.3213  0.0187
 5921W        W22768   3.743  12.542  12.412  0.2893  0.1357  0.3221
 5922W        W22769   1.781   2.832  15.336 -0.1471  0.0294  0.0185
 5923W        W22770   1.368  12.389  11.560  0.3874  0.0030 -0.0213
 5924W        W22771  13.905  10.860  11.001  0.0265  0.1800  0.2511
 5925W        W22772  10.827  11.444  14.166 -0.1213  0.0604 -0.2845
 5926W        W22773   5.431  15.097  13.116 -0.0414 -0.0581 -0.0148
 5927W        W22774   1.429   8.410  15.293 -0.2801 -0.1034 -0.1681
 5928W        W22775   5.547  12.438  15.308 -0.1475 -0.0286 -0.4236
 5929W        W22776   7.172  11.295   2.875 -0.0941  0.0953 -0.0065
 5930W        W22777  12.364  14.667  12.391 -0.1243 -0.0772  0.1741
 5931W        W22778   5.230   2.742   2.838 -0.2523 -0.0711 -0.1622
 5932W        W22779  10.571   5.103   3.591 -0.1904 -0.1204 -0.2956
 5933W        W22780  16.881   1.256  15.676 -0.0701  0.3906 -0.0219
 5934W        W22781  16.933   6.763   1.943  0.0053 -0.1443  0.2242
 5935W        W22782   1.748  14.747   4.040  0.2994 -0.0442  0.0418
 5936W        W22783  12.458   7.932  10.477  0.0876  0.1252 -0.1476
 5937W        W22784  10.788   4.105   4.679 -0.2549  0.2078 -0.2354
 5938W        W22785   8.534  17.485   3.337 -0.2314  0.0610 -0.2017
 5939W        W22786   4.281  11.606   2.307  0.1325 -0.2217  0.0531
 5940W        W22787   5.330  12.516   5.670 -0.1598 -0.2038  0.2536
 5941W        W22788   7.848   1.390   5.715  0.0204 -0.0306 -0.1882
 5942W        W22789   8.139   8.870  11.886 -0.1730 -0.1050  0.2000
 5943W        W22790  13.167  17.404  15.235 -0.2883 -0.3490  0.2764
 5944W        W22791  10.448   7.815   4.873 -0.1629 -0.3132  0.2424
 5945W        W22792   5.363   8.774   0.143 -0.0526  0.2394 -0.2527
 5946W        W22793   4.027  10.171   2.589 -0.0053  0.1317  0.0227
 5947W        W22794  16.741  15.390  14.708 -0.0595  0.2683  0.0073
 5948W        W22795  12.413  13.527   0.236  0.2391 -0.0974  0.2344
 5949W        W22796   2.030  11.118   3.766  0.0920  0.2052 -0.0694
 5950W        W22797   7.054   1.053   0.714  0.1656  0.4662 -0.1774
 5951W        W22798   6.616  12.659   6.168 -0.0173  0.0271  0.1441
 5952W        W22799  11.986  14.742   4.213  0.2820  0.2802 -0.1552
 5953W        W22800   3.985  13.246  14.121  0.0306  0.0421  0.6243
 5954W        W22801  15.317  13.887   0.742  0.1083 -0.2173  0.1385
 5955W        W22802  13.909   9.231   5.235  0.0432 -0.0305  0.1615
 5956W        W22803  13.515   3.439   0.453 -0.2035  0.0873 -0.2014
 5957W        W22804   8.943  16.643   2.868  0.0862  0.1415  0.1090
 5958W        W22805  18.323   9.862   1.973 -0.0194 -0.1845  0.2249
 5959W        W22806  12.668   9.527   4.242 -0.1095  0.1717  0.1644
 5960W        W22807  16.694  15.708   3.188  0.1746 -0.2028 -0.1768
 5961W        W22808   6.631   9.353  12.568  0.0700  0.0350 -0.1100
 5962W        W22809  15.167  17.280   0.350 -0.3952  0.1068 -0.2039
 5963W        W22810   3.034   3.353   1.012 -0.1981  0.2352  0.0161
 5964W        W22811   3.858  17.123  14.643  0.1227  0.0617 -0.1904
 5965W        W22812  11.016  16.356  11.848 -0.2080 -0.3199  0.4441
 5966W        W22813   9.663   5.117   4.510  0.1010  0.2874  0.0914
 5967W        W22814  12.477  12.533   3.113  0.0886  0.0934  0.1657
 5968W        W22815   4.515   6.476   1.669  0.1832  0.2018 -0.0211
 5969W        W22816   4.105   1.485   2.809  0.0076 -0.1625 -0.0575
 5970W        W22817   6.147   7.181   0.446 -0.1813 -0.1473 -0.3697
 5971W        W22818   5.469  10.111  10.532 -0.2901 -0.1788 -0.1059
 5972W        W22819   4.973  12.040  13.190 -0.0423  0.1142  0.0440
 5973W        W22820  13.536   3.858  11.655  0.1269 -0.0901  0.0845
 5974W        W22821   9.410   3.979  10.625  0.0353  0.2189  0.0200
 5975W        W22822   0.436  14.410  12.670  0.0944  0.0467 -0.1727
 5976W        W22823   3.365   9.602  15.116 -0.1928  0.2073  0.0433
 5977W        W22824   1.675  13.138  12.613 -0.2717 -0.1833 -0.0438
 5978W        W22825   7.293   6.368  12.337  0.0295  0.2168 -0.3026
 5979W        W22826  15.902  12.456   2.428 -0.2552 -0.1975  0.2375
 5980W        W22827  16.878  14.780  12.431  0.3093  0.1092  0.1117
 5981W        W22828   6.772  13.300  12.730  0.1601 -0.1260 -0.0950
 5982W        W22829   9.724  12.926   2.291  0.0537  0.2059 -0.2852
 5983W        W22830  11.342   1.471   5.537  0.2863  0.0788  0.0346
 5984W        W22831   7.649   6.959  14.155  0.0834 -0.1632 -0.1662
 5985W        W22832  15.050   8.547   5.177 -0.1241  0.0283 -0.1943
 5986W        W22833   6.739   9.987   1.221  0.1246 -0.0152 -0.0507
 5987W        W22834   5.498   5.260  12.125 -0.2110  0.1634 -0.3127
 5988W        W22835   2.343   7.432  14.053 -0.0279  0.3928 -0.0277
 5989W        W22836   3.444  12.920  12.551  0.2940  0.3371 -0.1992
 5990W        W22837   7.441   4.037  11.409 -0.1831  0.2966 -0.5600
 5991W        W22838  14.035  17.705   0.880 -0.0949 -0.1407  0.1395
 5992W        W22839   0.691   3.269   1.658 -0.2511  0.6004 -0.3051
 5993W        W22840   1.891   5.491  12.197  0.2577 -0.1161 -0.2997
 5994W        W22841  18.307   1.912   1.310  0.2274  0.2907  0.1476
 5995W        W22842   2.621  14.032  11.105  0.0226 -0.0026 -0.1916
 5996W        W22843  15.750  11.790  11.250  0.2714  0.0776 -0.0942
 5997W        W22844   5.984   7.955  14.533  0.0792  0.2210 -0.1567
 5998W        W22845   1.268   3.893  13.351 -0.0260  0.0261  0.3594
 5999W        W22846  11.569   1.758  14.112  0.1288 -0.0504 -0.1535
 6000W        W22847   2.545   2.378  13.765 -0.2128 -0.0632 -0.2037
 6001W        W22848  18.385   4.084  10.831 -0.0697 -0.1509  0.1117
 6002W        W22849  12.775   4.270   2.579  0.2376  0.1763 -0.2630
 6003W        W22850  13.819   8.059   5.935 -0.0705  0.0280 -0.2203
 6004W        W22851   6.342   8.993   4.918 -0.2946 -0.0758  0.2041
 6005W        W22852  17.417  10.067  11.635 -0.1071  0.0269 -0.1278
 6006W        W22853   5.726  15.836   4.929 -0.0615 -0.2090  0.1609
 6007W        W22854  17.976   6.809   5.849  0.3772  0.0409  0.2571
 6008W        W22855   4.421   0.743  14.385  0.0449  0.0804 -0.2948
 6009W        W22856  16.477   0.299   0.383  0.0142  0.1170 -0.1764
 6010W        W22857   0.607  14.598   1.921  0.0950 -0.0351  0.0272
 6011W        W22858  15.791   4.855   2.196 -0.0363  0.1235  0.1124
 6012W        W22859   3.894   4.565   4.850 -0.0393  0.0812  0.2725
 6013W        W22860  11.242  18.234   0.652 -0.0184  0.2099 -0.0590
 6014W        W22861   4.083   8.179  12.507 -0.2109  0.2160 -0.1794
 6015W        W22862  16.703  10.087  15.574  0.0401 -0.1040 -0.1753
 6016W        W22863  17.973  16.493   1.617 -0.0416 -0.1111 -0.0104
 6017W        W22864   8.812  16.159   1.910  0.1989 -0.0918 -0.0522
 6018W        W22865  10.304   6.068   0.894  0.1716 -0.0104  0.1569
 6019W        W22866  12.369  12.463  14.487 -0.0202  0.1505 -0.1689
 6020W        W22867  18.248  14.898  13.804  0.0025  0.1417 -0.1359
 6021W        W22868   3.741   5.881   5.193  0.0739  0.2085  0.2339
 6022W        W22869   3.630   1.399   2.991  0.1523  0.3249  0.0916
 6023W        W22870   2.804  15.768   1.390  0.0156 -0.0803 -0.1213
 6024W        W22871  14.673   8.806   0.372  0.1447  0.0409  0.0957
 6025W        W22872  10.840   0.783   0.141 -0.0484  0.1908  0.1609
 6026W        W22873   2.353   2.094   2.071 -0.0743 -0.4301  0.0613
 6027W        W22874  13.318   5.190   0.170 -0.1648 -0.2661 -0.0987
 6028W        W22875   3.367   6.602  15.430  0.1390 -0.1020 -0.0395
 6029W        W22876  11.821  12.831   1.664 -0.0457  0.1826 -0.0911
 6030W        W22877  17.019   6.969   0.535  0.3441  0.2747 -0.1485
 6031W        W22878   9.031   6.928   2.310 -0.1687  0.0379  0.0093
 6032W        W22879  15.653  11.180  12.115 -0.0555 -0.2314  0.1044
 6033W        W22880  15.267   1.877   0.908  0.0108  0.3117 -0.2320
 6034W        W22881  13.795  15.498  14.040 -0.1692  0.0760 -0.2660
 6035W        W22882   8.688  13.427   5.300 -0.1563 -0.0566 -0.0657
 6036W        W22883   8.921   9.088  14.062 -0.1471  0.0327  0.0716
 6037W        W22884  14.222   5.604   5.063  0.3122  0.0996 -0.2205
 6038W        W22885   8.300   4.674  10.714  0.0048  0.1792 -0.2463
 6039W        W22886  17.031  13.623   0.312  0.1627 -0.2035 -0.3000
 6040W        W22887   4.937  12.106   2.561  0.2464  0.0093 -0.3508
 6041W        W22888  13.377  16.166   0.897  0.2280  0.0709  0.0618
 6042W        W22889  10.469   6.375  10.784  0.0843 -0.4262  0.0028
 6043W        W22890   1.877  13.273  14.151  0.0569  0.0835 -0.0431
 6044W        W22891   3.444  15.309  15.366  0.1148  0.2778  0.1428
 6045W        W22892   6.619   4.769   4.495  0.0335 -0.2602 -0.0949
 6046W        W22893  13.728  15.354   4.524 -0.1632 -0.2509 -0.0093
 6047W        W22894  13.386  15.717  10.798 -0.1932  0.0448  0.2343
 6048W        W22895  16.220   2.963  12.843  0.0571  0.0239 -0.1841
 6049W        W22896   2.263   6.487   3.893 -0.3562 -0.0051  0.3890
 6050W        W22897   7.634   5.506  15.250  0.0580  0.1225 -0.0662
 6051W        W22898  14.378  11.361   5.176  0.0376 -0.1071  0.1108
 6052W        W22899  14.669  17.011  14.847 -0.1302 -0.0840  0.1669
 6053W        W22900  15.412  16.801   0.822  0.1996 -0.1275  0.1068
 6054W        W22901  10.798  17.260   1.457 -0.1264  0.1189 -0.0817
 6055W        W22902  12.327   0.061   2.590 -0.0757  0.2091  0.0963
 6056W        W22903  11.315   2.476   4.028 -0.2418 -0.0425  0.2131
 6057W        W22904   2.421   1.592   4.303  0.0778  0.1890  0.0501
 6058W        W22905  14.090   5.816   3.285  0.0883  0.3473 -0.1765
 6059W        W22906   7.027   3.541   1.975 -0.0000  0.1731  0.0808
 6060W        W22907  16.528   2.239   1.671  0.1216 -0.1522  0.1968
 6061W        W22908  12.377  15.100   4.199 -0.1733 -0.2076  0.0493
 6062W        W22909  17.707  15.692   1.755 -0.0699 -0.1023 -0.1718
 6063W        W22910   5.719   0.638   0.392  0.0260 -0.0782  0.0575
 6064W        W22911  16.920   2.981   3.430 -0.2278  0.0103 -0.0492
 6065W        W22912   6.094  10.135  12.568 -0.1236 -0.4667 -0.1189
 6066W        W22913   3.014   8.984  14.411  0.0764 -0.2507 -0.4109
 6067W        W22914   7.817  11.456  12.212  0.0733  0.1556 -0.0615
 6068W        W22915   7.427   1.695   4.744  0.2166  0.4515 -0.1983
 6069W        W22916  14.602   2.639  13.302 -0.2725  0.1021  0.2383
 6070W        W22917  14.093  12.724  12.401 -0.5513  0.4190 -0.0422
 6071W        W22918  12.676   2.287   2.333  0.0095 -0.0825 -0.0429
 6072W        W22919   0.202   6.211   3.739 -0.1071  0.1706  0.1967
 6073W        W22920   9.363   7.127   1.953 -0.0123 -0.1071 -0.0417
 6074W        W22921   6.197  15.622  12.110 -0.0469  0.2891  0.1818
 6075W        W22922  16.733   4.295  11.044  0.2499  0.0081 -0.1921
 6076W        W22923  13.987   2.628   5.181 -0.1441 -0.3311 -0.0176
 6077W        W22924   0.707  14.735   4.726  0.2131 -0.1686 -0.0414
 6078W        W22925  10.621   2.405   4.181 -0.0712 -0.0910 -0.1781
 6079W        W22926  11.240   9.806  11.555 -0.0433 -0.0330 -0.0159
 6080W        W22927   6.671  10.445   3.432 -0.0629 -0.0986 -0.0880
 6081W        W22928  17.683   3.116   3.787  0.1606 -0.0287 -0.2372
 6082W        W22929  14.467  15.214   6.196  0.0308 -0.0306 -0.0065
 6083W        W22930  16.305   5.864  15.826 -0.1026 -0.0220 -0.2105
 6084W        W22931  18.539  16.571  15.056  0.0255 -0.0777  0.4368
 6085W        W22932  15.763  12.443  14.724  0.0420 -0.1450 -0.0482
 6086W        W22933   9.461  14.560   0.855 -0.0900  0.2802  0.3016
 6087W        W22934   9.956   4.818   0.445 -0.2386  0.0067  0.0064
 6088W        W22935   0.657   1.889  15.760  0.0451 -0.2161  0.0579
 6089W        W22936  10.468  16.498  14.309  0.0666 -0.3241 -0.1744
 6090W        W22937   2.977  13.454   1.762 -0.1765 -0.0346  0.0622
 6091W        W22938   5.059   9.446   3.623 -0.2175  0.2407  0.0601
 6092W        W22939   0.281  14.929  14.235 -0.0183  0.2546 -0.1549
 6093W        W22940   6.871   5.385   4.252 -0.1964  0.0538  0.0097
 6094W        W22941  17.333   6.574  15.853  0.0014 -0.3977 -0.2231
 6095W        W22942   3.225   0.030   0.925  0.1799 -0.2896 -0.1447
 6096W        W22943  16.484  13.829   2.779 -0.2031  0.3231  0.1222
 6097W        W22944   6.301   8.623   5.829 -0.0688  0.1911 -0.1292
 6098W        W22945   9.941   0.052   4.345 -0.1314 -0.1774 -0.0047
 6099W        W22946  14.376  17.316   0.042  0.0393  0.0844 -0.2388
 6100W        W22947   1.786  14.697  14.184 -0.1610  0.1326 -0.0732
 6101W        W22948  10.903   5.064   0.062 -0.1438  0.4596  0.0277
 6102W        W22949   9.817   4.580  12.751 -0.1786 -0.0856 -0.0830
 6103W        W22950  13.098  13.060   4.736  0.2470  0.0542 -0.0674
 6104W        W22951   8.461  14.756  13.686  0.1343  0.1392 -0.1848
 6105W        W22952  11.548   1.527   1.034  0.2294  0.0586 -0.1958
 6106W        W22953   6.705   5.086  12.816 -0.0646  0.2216 -0.0910
 6107W        W22954  13.668   8.650   2.259 -0.2886 -0.0419 -0.0539
 6108W        W22955   6.094  12.041   1.829  0.0366  0.1769  0.1470
 6109W        W22956   4.323  14.119   4.879  0.2357  0.0652 -0.0746
 6110W        W22957  15.030   6.280   1.681  0.0805  0.1852  0.1363
 6111W        W22958   0.645   7.051   1.845  0.2476  0.3116  0.1256
 6112W        W22959  16.107   7.515  11.322 -0.2062 -0.0037  0.1345
 6113W        W22960   3.322  17.103  13.285 -0.1586 -0.1501 -0.2117
 6114W        W22961   8.774   5.069   4.912  0.0993 -0.2284  0.2567
 6115W        W22962   5.637  13.793  15.195 -0.0183 -0.1036 -0.0815
 6116W        W22963  17.960  12.375  11.019  0.2098  0.1645  0.2739
 6117W        W22964   6.385   8.312  14.609 -0.0004  0.2328 -0.0329
 6118W        W22965  17.074   0.122   3.058 -0.1563 -0.1094  0.1255
 6119W        W22966  15.317   7.221  13.584 -0.3072  0.1717 -0.1755
 6120W        W22967   0.755   9.973  12.145  0.2319  0.1468  0.0745
 6121W        W22968   2.781  15.835  13.571 -0.0116  0.0843  0.0622
 6122W        W22969   0.461   7.270   1.312 -0.0342 -0.3758 -0.1795
 6123W        W22970  15.089  15.300  12.047 -0.2727 -0.0134 -0.3133
 6124W        W22971   5.353   0.704  12.299  0.1499  0.1700  0.2319
 6125W        W22972  11.454   2.660   4.928 -0.0397 -0.1041 -0.2595
 6126W        W22973   8.961   8.444   3.624 -0.0357 -0.0663 -0.1024
 6127W        W22974   3.115   1.446  12.346  0.1792 -0.1194 -0.0799
 6128W        W22975  11.986   7.912   3.558 -0.0873  0.2106  0.1510
 6129W        W22976  16.616   3.470   1.454  0.2520 -0.1610  0.1214
 6130W        W22977   6.560   3.962   2.989  0.1155 -0.0788 -0.1292
 6131W        W22978  18.211  12.665   3.841 -0.1059  0.4114 -0.1575
 6132W        W22979   3.523  15.383  11.919 -0.1941  0.1356 -0.1909
 6133W        W22980  11.082   1.437  12.398 -0.1863  0.1485  0.1995
 6134W        W22981   1.778   3.379  11.648 -0.0845 -0.1595 -0.1696
 6135W        W22982   8.590   7.682   1.910  0.0763 -0.2764 -0.1383
 6136W        W22983  15.972  16.803  15.367  0.1228  0.0035 -0.4042
 6137W        W22984  16.522   8.643   5.134 -0.0071  0.0973  0.1445
 6138W        W22985  18.432   5.281  11.110  0.0471 -0.0274  0.1560
 6139W        W22986   4.462  15.196   4.374 -0.0071 -0.0154 -0.1336
 6140W        W22987  12.209  10.557  12.314  0.0264  0.2507 -0.0457
 6141W        W22988   9.865  11.202   1.265  0.0062  0.2364 -0.0227
 6142W        W22989   2.835   7.218  11.316  0.1797 -0.0958 -0.0177
 6143W        W22990  16.356   0.164   5.177 -0.2717  0.0388  0.0988
 6144W        W22991  10.393   3.878   3.444 -0.3033 -0.0481 -0.0023
 6145W        W22992  14.200  13.845   0.597 -0.0210  0.1430 -0.1074
 6146W        W22993   2.248   5.747  15.592 -0.1155 -0.1976 -0.0790
 6147W        W22994   2.580  14.891  14.587  0.0336  0.2352 -0.0059
 6148W        W22995   9.534  18.414  14.373  0.0251  0.1384 -0.0260
 6149W        W22996   4.764   0.147  11.077  0.0532 -0.1014 -0.1835
 6150W        W22997   8.148  18.044  12.448  0.0270  0.2960  0.4163
 6151W        W22998   5.396  12.412  14.493  0.3532 -0.0142  0.3740
 6152W        W22999  17.918   6.028   4.029  0.2047 -0.1135 -0.1835
 6153W        W23000   1.647   7.546   3.431 -0.3969  0.1262  0.0815
 6154W        W23001   6.689   9.257  15.331 -0.0687 -0.0942 -0.2885
 6155W        W23002   9.390  16.909   3.793  0.2631  0.0560  0.0220
 6156W        W23003  18.263  15.970   4.694 -0.0031 -0.1467 -0.2899
 6157W        W23004  10.438   2.594   1.187 -0.1737 -0.0536 -0.1197
 6158W        W23005   8.758   7.804   5.155  0.1146 -0.1057  0.0321
 6159W        W23006  16.523  14.266   1.891 -0.1897 -0.1229 -0.2378
 6160W        W23007  13.794   0.090  15.009 -0.1942 -0.3298  0.3222
 6161W        W23008  15.111   0.582   1.801 -0.1320  0.0595  0.2046
 6162W        W23009  17.053  11.700   1.793 -0.1183 -0.1450  0.0603
 6163W        W23010  13.073  16.150   4.649  0.2389 -0.0356 -0.0736
 6164W        W23011   4.141   4.013  13.577 -0.1027 -0.1672 -0.1121
 6165W        W23012   2.033  16.839   4.869  0.1608 -0.1752 -0.2094
 6166W        W23013   1.886  10.693  13.200  0.1253 -0.2128  0.1045
 6167W        W23014   9.928  17.775   1.259 -0.0417  0.1171 -0.2661
 6168W        W23015  16.768  11.333  13.162  0.0400  0.2158  0.0813
 6169W        W23016  18.454  16.724   5.344  0.1610 -0.0491  0.0242
 6170W        W23017   7.813   6.696   1.623 -0.3495  0.0312  0.1185
 6171W        W23018   9.597   5.975  11.364 -0.3447  0.1352  0.1038
 6172W        W23019  17.945  11.708  14.779  0.2541  0.0748  0.1569
 6173W        W23020  15.844   7.553  12.068  0.0547  0.2082 -0.1273
 6174W        W23021  16.779   1.471   5.773 -0.0101  0.4406  0.3003
 6175W        W23022   0.765  17.553   1.709 -0.0150 -0.3047 -0.1547
 6176W        W23023   4.009   9.086   5.025 -0.0457  0.3908  0.0329
 6177W        W23024   9.840   7.980  15.259 -0.2058  0.1671  0.1386
 6178W        W23025  11.141   8.715   0.827 -0.1441 -0.0775 -0.0295
 6179W        W23026  11.964  13.373   1.043  0.1576 -0.2200 -0.0345
 6180W        W23027   1.913  17.157  12.441  0.3147  0.0541 -0.1234
 6181W        W23028  14.618  16.775  15.290  0.0994 -0.1404  0.0232
 6182W        W23029   0.155   0.332   1.563 -0.1882  0.0232 -0.1971
 6183W        W23030  10.807  12.382  12.717 -0.0058 -0.1253 -0.0174
 6184W        W23031  11.123   1.768   0.694 -0.1049 -0.1713  0.1392
 6185W        W23032  13.414   8.130  12.036 -0.0629  0.0832 -0.1090
 6186W        W23033  11.409  15.026   2.526 -0.3752 -0.1566 -0.2820
 6187W        W23034  13.695  15.280   0.192  0.2586 -0.1793 -0.1332
 6188W        W23035   2.091  18.382  14.890 -0.2237 -0.2175 -0.0028
 6189W        W23036   2.628  15.656  15.447 -0.0320  0.0184  0.3068
 6190W        W23037   5.250   3.202   3.179 -0.0287 -0.1854  0.0073
 6191W        W23038   3.786   2.429   2.925  0.1260  0.3573  0.1599
 6192W        W23039   4.788   2.999  10.059 -0.0753 -0.1290 -0.2983
 6193W        W23040   2.350   7.190   1.931 -0.0263 -0.2962  0.0135
 6194W        W23041  10.724  16.437   2.567 -0.2011  0.0708 -0.1087
 6195W        W23042  16.334  16.526   0.358 -0.3680  0.1076 -0.1651
 6196W        W23043   7.378  16.343   0.696  0.0849 -0.1195 -0.2362
 6197W        W23044   6.108  15.987   0.097  0.1195 -0.0605 -0.1290
 6198W        W23045  16.308  17.833  12.897 -0.0643  0.0052 -0.3221
 6199W        W23046   5.354   1.402   2.483  0.1487 -0.0145  0.2808
 6200W        W23047   7.565   1.608  11.848 -0.3009 -0.0035 -0.1816
 6201W        W23048   9.202  16.809   5.771  0.1666 -0.1140  0.1156
 6202W        W23049  10.958   5.007   0.575  0.1092  0.0780 -0.0113
 6203W        W23050  11.713   2.230   5.175 -0.3141 -0.0422  0.0487
 6204W        W23051  16.809   9.436  11.469 -0.1368 -0.0854 -0.1082
 6205W        W23052  12.540   5.909   0.078 -0.1344 -0.0192 -0.3239
 6206W        W23053  15.272   2.534  11.653 -0.0176 -0.2911  0.0819
 6207W        W23054   1.098  11.535  13.838  0.0162 -0.0087 -0.1476
 6208W        W23055   9.961  12.895   1.032 -0.2642 -0.0979  0.3560
 6209W        W23056  16.671  17.425  13.771 -0.1267 -0.2101 -0.1065
 6210W        W23057   9.182  13.004  14.083 -0.1217 -0.0951 -0.0078
 6211W        W23058  17.084  15.956   0.816  0.0051  0.2115 -0.1381
 6212W        W23059   9.572   4.723   0.009 -0.1633 -0.0608  0.3426
 6213W        W23060   9.611   0.428   4.343 -0.0889  0.2376  0.2957
 6214W        W23061  14.918   1.695   1.233 -0.2930 -0.2521  0.3482
 6215W        W23062   1.314  14.663  12.938  0.1067  0.0452  0.4202
 6216W        W23063  16.772  18.494  12.635  0.5487  0.2500  0.1066
 6217W        W23064   7.141  16.897   4.916  0.2351 -0.3109  0.2409
 6218W        W23065   4.365  11.551  12.357  0.0024 -0.1992 -0.2073
 6219W        W23066  13.612  18.409  13.042  0.1504  0.4158  0.0544
 6220W        W23067   9.394  15.381   2.875 -0.1076  0.0164 -0.0929
 6221W        W23068   2.273  17.188   3.105  0.0578  0.3473  0.3066
 6222W        W23069   8.516  16.274   1.399  0.0760 -0.2194 -0.0333
 6223W        W23070   6.091   1.791   4.672  0.1569 -0.1557  0.2391
 6224W        W23071   9.423   2.670  13.674 -0.1557 -0.0485 -0.0009
 6225W        W23072   4.936   7.310  15.106 -0.1579 -0.1256  0.2056
 6226W        W23073  15.747  18.504  12.073  0.0384 -0.0680 -0.1548
 6227W        W23074  16.186  14.755   0.140 -0.0060  0.3045  0.1090
 6228W        W23075   4.422  16.032   0.934  0.0612  0.1119 -0.2486
 6229W        W23076   2.010   3.955   5.321 -0.3329  0.1695  0.2657
 6230W        W23077   2.757   5.427   2.540  0.3204  0.1207  0.1576
 6231W        W23078  15.931   9.255  12.525 -0.1484  0.0690 -0.4894
 6232W        W23079   7.430   0.094   5.109 -0.0228 -0.7230 -0.0630
 6233W        W23080   5.149  10.306   1.028 -0.3608 -0.0088 -0.1810
 6234W        W23081  11.852  10.091   2.917 -0.1476  0.0521 -0.0961
 6235W        W23082   1.387  10.801   3.192  0.1150 -0.3407  0.2041
 6236W        W23083   8.958   2.972   0.878 -0.0625 -0.0224  0.1959
 6237W        W23084  11.337  12.707   5.626  0.3437 -0.1266  0.0483
 6238W        W23085   4.084  12.813   1.716  0.0050  0.0367 -0.0449
 6239W        W23086  10.357  14.277   0.928  0.0528 -0.0797 -0.2364
 6240W        W23087   8.068   0.164  11.324 -0.0551  0.3317 -0.2173
 6241W        W23088  11.647   9.226   3.164 -0.1445 -0.0285  0.3317
 6242W        W23089   1.622   7.845   4.852 -0.2075 -0.0903  0.1040
 6243W        W23090  12.635   5.952  11.559 -0.0034 -0.0737 -0.0976
 6244W        W23091   5.890   3.837  14.209  0.0687 -0.0690 -0.2440
 6245W        W23092  18.420   4.274   1.850 -0.0203 -0.0145 -0.0368
 6246W        W23093   0.874  10.801   5.098  0.1234  0.2699 -0.0449
 6247W        W23094  10.593   6.992  10.941 -0.1389 -0.0890  0.0642
 6248W        W23095  14.630   4.020   3.547 -0.0540 -0.1602 -0.1468
 6249W        W23096   1.622  17.271  10.351 -0.0529 -0.0021 -0.3354
 6250W        W23097  14.792  13.612  15.947 -0.2283  0.1057 -0.1682
 6251W        W23098   3.861   9.383   1.096  0.1909  0.0142 -0.3003
 6252W        W23099   0.945   4.676   4.203 -0.2682 -0.0991  0.1003
 6253W        W23100   3.773  13.213   4.103  0.1452 -0.1196 -0.0758
 6254W        W23101   0.154   6.696  11.527 -0.0292 -0.0811  0.0504
 6255W        W23102  11.936  14.391  13.936  0.0519  0.1701 -0.0775
 6256W        W23103  17.465  16.152  14.650 -0.1049 -0.1019 -0.2133
 6257W        W23104  11.337  12.899   1.683 -0.6551 -0.1231 -0.2574
 6258W        W23105   0.438  16.487   6.156 -0.1169  0.4191  0.0721
 6259W        W23106  12.642  14.701   2.589  0.1982 -0.3106  0.1757
 6260W        W23107  14.507   8.016   1.455  0.2021 -0.1523  0.2393
 6261W        W23108   8.870  11.065   3.877  0.0617 -0.0143 -0.0525
 6262W        W23109   3.061   8.714   0.210  0.1398 -0.0765  0.2279
 6263W        W23110  16.385   9.874  11.395 -0.2151  0.1387 -0.2365
 6264W        W23111   4.882  14.404  14.268  0.1955 -0.6104  0.3876
 6265W        W23112  13.177  10.141   2.014 -0.0922 -0.1462  0.0278
 6266W        W23113  14.801  17.868   3.672 -0.3019  0.2769  0.1065
 6267W        W23114   2.592  10.819  13.885 -0.0377  0.1022  0.0883
 6268W        W23115   1.470  18.434   0.225 -0.1994 -0.0330  0.1804
 6269W        W23116   4.179   9.360  14.972 -0.2420  0.0155 -0.2061
 6270W        W23117   0.477  10.039  13.037 -0.1312  0.2604 -0.0521
 6271W        W23118  16.793   5.863   4.783 -0.5991  0.0536  0.0836
 6272W        W23119   1.693  11.681   4.730 -0.2870 -0.0420 -0.1244
 6273W        W23120   2.924   5.900   1.644  0.0670  0.1724 -0.3339
 6274W        W23121   0.238   7.848  15.475 -0.2568  0.2512  0.0771
 6275W        W23122  17.545   1.861  10.130  0.1041  0.0199  0.1792
 6276W        W23123  12.618   3.437   4.415 -0.1017  0.3204  0.3083
 6277W        W23124   5.660  17.406  13.992  0.1790 -0.0127  0.0470
 6278W        W23125   7.775   9.146   0.786 -0.0332  0.1363  0.2818
 6279W        W23126  12.934   1.599  10.705 -0.0643 -0.0030  0.1328
 6280W        W23127  10.488   4.684   2.821  0.0060  0.0050 -0.3165
 6281W        W23128   4.002   5.719  14.880  0.2533 -0.0497  0.1199
 6282W        W23129  13.963  12.040  11.744  0.1411  0.1856 -0.1883
 6283W        W23130   6.527   1.288   3.137 -0.2120  0.1016  0.0706
 6284W        W23131   6.298   9.492  13.165  0.0850 -0.1927  0.1716
 6285W        W23132  16.005  17.424  12.067 -0.0892  0.3015  0.2769
 6286W        W23133   0.097  16.849   2.927  0.2383 -0.2966  0.0337
 6287W        W23134   7.095   0.950  12.092  0.2200  0.2472  0.0547
 6288W        W23135   6.314   1.163  15.776  0.0390  0.1553 -0.0950
 6289W        W23136   5.042   7.152   4.529 -0.2108  0.0665 -0.2728
 6290W        W23137   9.201   7.419  11.290 -0.0464  0.0997  0.1919
 6291W        W23138   0.274   3.119  12.328 -0.1734 -0.0548 -0.1209
 6292W        W23139   5.917  11.550   1.641  0.1499 -0.3387 -0.0190
 6293W        W23140   7.117   9.597  13.659  0.2374 -0.1004  0.2376
 6294W        W23141   8.719   6.775  14.857  0.0832  0.1430 -0.0141
 6295W        W23142  13.415   1.353   3.139  0.1111  0.2124  0.0310
 6296W        W23143  15.270   3.861   4.346  0.5362 -0.1331 -0.0142
 6297W        W23144   6.785  17.220  11.132 -0.2168 -0.0809 -0.1984
 6298W        W23145  16.504  10.965   3.667 -0.3096 -0.1838  0.0049
 6299W        W23146  17.715   6.244  15.927 -0.2171 -0.4197 -0.3074
 6300W        W23147   7.628   8.081  15.321  0.3553 -0.0384 -0.1270
 6301W        W23148   2.025   7.569  13.655  0.1124  0.3710  0.3262
 6302W        W23149   5.909  16.543   0.749 -0.0994 -0.1167  0.2501
 6303W        W23150  17.075   6.040  10.814  0.2372  0.0592 -0.1648
 6304W        W23151  11.692   6.216   4.224 -0.2251 -0.1139 -0.1964
 6305W        W23152   9.769   7.474  15.837 -0.2100  0.0432  0.2310
 6306W        W23153  10.024  18.494   1.921 -0.1763  0.2614 -0.7621
 6307W        W23154   7.237  14.589   1.523  0.2875 -0.0451 -0.1913
 6308W        W23155   6.778   6.548  15.040  0.1006 -0.2635  0.0634
 6309W        W23156   5.059  16.004   3.034  0.1619  0.0191  0.1370
 6310W        W23157   2.225  12.469  11.673  0.2152 -0.0603  0.2379
 6311W        W23158  12.803  15.204  11.358 -0.2252  0.2519 -0.0195
 6312W        W23159  15.887   8.180   5.220  0.1761 -0.3195  0.1192
 6313W        W23160  11.935   2.302   1.146  0.0375  0.0736  0.2532
 6314W        W23161   7.770  16.263   2.164 -0.0276 -0.1172 -0.1199
 6315W        W23162  15.240  13.729   2.274 -0.1768  0.0702 -0.0069
 6316W        W23163   4.329   6.677  13.412 -0.2070 -0.2225 -0.0595
 6317W        W23164   9.001   7.413   3.148 -0.0688 -0.0759 -0.1145
 6318W        W23165  16.424   2.549  12.487 -0.1237  0.2749 -0.0524
 6319W        W23166   1.992   4.420   0.303 -0.1225 -0.0320  0.1591
 6320W        W23167  11.038   9.184  15.035  0.0364  0.1899  0.1350
 6321W        W23168   3.975   1.360   9.742 -0.1794 -0.0417  0.0836
 6322W        W23169   3.176   4.050   9.930  0.1067 -0.1720  0.3430
 6323W        W23170   7.086  15.609  15.191 -0.0958 -0.1607 -0.2316
 6324W        W23171   7.369   3.202  13.915  0.0364  0.2210  0.0148
 6325W        W23172  10.835   6.014   1.698  0.1995 -0.3050  0.0776
 6326W        W23173   3.207   9.575  13.325 -0.2489  0.1420  0.3186
 6327W        W23174   4.030  10.369   3.031 -0.1840  0.1082 -0.0552
 6328W        W23175  18.503   9.931   0.653  0.0823  0.2601 -0.1966
 6329W        W23176   2.691  16.358   1.397 -0.1020 -0.1328  0.0529
 6330W        W23177   0.840   9.833   2.686 -0.6436 -0.0839  0.3779
 6331W        W23178  14.078   9.997  15.076 -0.2054 -0.0482 -0.0297
 6332W        W23179  18.356   2.776   2.621  0.0834 -0.1741  0.1171
 6333W        W23180  12.498  10.350  11.302  0.0081  0.0930  0.1126
 6334W        W23181  17.512   9.699  11.223 -0.0940  0.1775  0.0268
 6335W        W23182   5.497  12.939   5.447  0.0048  0.1255  0.0561
 6336W        W23183  16.889  17.827  12.093  0.0582 -0.1655 -0.1198
 6337W        W23184   8.035   6.592   5.118  0.0456 -0.0002 -0.0729
 6338W        W23185   6.821   0.840  12.566 -0.0291 -0.1133  0.0277
 6339W        W23186   1.265  12.714  11.166  0.0011  0.0649  0.0227
 6340W        W23187   6.064   2.473  14.464 -0.0301  0.0643  0.1007
 6341W        W23188   5.330   1.738   5.465 -0.1002 -0.1185 -0.3353
 6342W        W23189  14.042  16.881  12.120  0.2394  0.0927 -0.2750
 6343W        W23190   5.567   6.911  15.456 -0.0355  0.2577 -0.2201
 6344W        W23191  15.977   1.931   4.675 -0.0361 -0.1752  0.1873
 6345W        W23192   3.377   0.221  11.342  0.0516 -0.0090  0.1135
 6346W        W23193  12.366   3.292   2.414 -0.0327  0.0083 -0.0493
 6347W        W23194  17.625   7.956   4.504  0.1017  0.1143 -0.1531
 6348W        W23195  12.098  18.372   1.309  0.0665 -0.0611 -0.4763
 6349W        W23196   0.553  13.699  15.136 -0.1065 -0.0942 -0.1146
 6350W        W23197   6.543   3.044  12.147 -0.0024 -0.0226  0.0949
 6351W        W23198  10.977  15.665  12.533  0.1048  0.0549  0.2425
 6352W        W23199   6.397   2.790   0.921  0.2688  0.1159 -0.1243
 6353W        W23200   5.859  12.390   1.299 -0.1545 -0.0843 -0.3151
 6354W        W23201  11.244   7.438   5.438  0.2433 -0.0344  0.0598
 6355W        W23202  12.970  17.120  12.544  0.0309 -0.2847  0.0648
 6356W        W23203  12.152  12.934   2.970 -0.1394  0.1283  0.0495
 6357W        W23204  17.409   3.621   3.837 -0.0071  0.5092 -0.1428
 6358W        W23205  16.479  18.190   4.465 -0.0871 -0.0856 -0.3140
 6359W        W23206  10.545  12.522   3.733 -0.0325 -0.2453 -0.0485
 6360W        W23207  12.474  11.841  12.747 -0.2880  0.2252 -0.2142
 6361W        W23208   6.015  12.807  11.978  0.0020  0.0687  0.0433
 6362W        W23209  10.624   2.576  11.382 -0.1331  0.1397  0.2305
 6363W        W23210  15.006  10.027  15.425 -0.2733  0.1140 -0.1290
 6364W        W23211   5.765   4.747   1.443  0.1672  0.2876 -0.2808
 6365W        W23212   8.522   7.924   1.032  0.0705  0.2343 -0.0478
 6366W        W23213  12.952   0.439   2.039 -0.3886 -0.1364  0.3061
 6367W        W23214  15.794   3.982   1.746 -0.0283 -0.1993 -0.1733
 6368W        W23215   3.593  10.163   2.834 -0.0156 -0.1368 -0.1160
 6369W        W23216   2.620   3.502   0.707 -0.0048 -0.0601  0.1981
 6370W        W23217  15.118  13.228  14.298  0.4505 -0.0773 -0.2453
 6371W        W23218  15.962  12.605   2.948 -0.0044  0.0249  0.2758
 6372W        W23219  16.591   6.487   1.159 -0.3713 -0.0585  0.1557
 6373W        W23220   0.189  15.130  14.701  0.5579 -0.0485  0.2710
 6374W        W23221  15.601   3.774   4.044 -0.0788  0.0718  0.0898
 6375W        W23222   4.181   9.654   3.373  0.1652  0.0132 -0.2243
 6376W        W23223   7.178  15.501  10.781 -0.2550 -0.2107  0.1059
 6377W        W23224   3.634   8.665   2.556  0.1754  0.1442 -0.2354
 6378W        W23225   8.786   5.087  15.612 -0.0089 -0.0010 -0.0152
 6379W        W23226   9.702   3.697  12.609 -0.4344  0.0398 -0.1494
 6380W        W23227   7.893   6.203   4.005 -0.0081  0.1967  0.4563
 6381W        W23228   9.167  14.010   3.172  0.2036  0.0532  0.1549
 6382W        W23229  16.594   3.364  12.750  0.1144 -0.2399  0.3375
 6383W        W23230   1.606   2.114  11.085 -0.3038  0.0662 -0.2340
 6384W        W23231   6.183   5.567  10.168  0.2249 -0.0555 -0.1581
 6385W        W23232   1.932   7.235  12.357 -0.0728  0.1527 -0.4227
 6386W        W23233  17.636  12.128  11.366  0.1960 -0.3071  0.1487
 6387W        W23234  16.777   2.775  15.104  0.0026  0.0680  0.0958
 6388W        W23235   2.983   7.303  15.795  0.1864 -0.0220  0.0207
 6389W        W23236   1.664  12.480   3.037 -0.5553  0.5156 -0.1109
 6390W        W23237   0.964   4.239  12.183  0.1308 -0.0079 -0.2780
 6391W        W23238  11.989  16.795   1.242 -0.2485  0.0310  0.0517
 6392W        W23239   6.735  17.647  14.108 -0.1324 -0.2196 -0.2583
 6393W        W23240  11.191   4.808  13.359 -0.3713  0.1426 -0.2538
 6394W        W23241  15.095  15.813   3.888 -0.0635 -0.1492  0.3149
 6395W        W23242  14.952  16.663  14.613  0.1183 -0.3909 -0.1400
 6396W        W23243   9.100   8.068  14.269  0.1022  0.1007 -0.3751
 6397W        W23244  10.070  10.447   3.417 -0.1765 -0.0200  0.2375
 6398W        W23245  10.444   5.716   4.577  0.1418  0.0371  0.1338
 6399W        W23246   7.627   8.106   2.215 -0.1145  0.3731 -0.3587
 6400W        W23247   3.101   7.253  13.238 -0.0825 -0.1754  0.0309
 6401W        W23248  16.885   4.936   1.075 -0.1180 -0.3272 -0.1217
 6402W        W23249  10.235   6.471  14.617  0.0778 -0.0877  0.0593
 6403W        W23250  10.484  13.480  14.579  0.1936  0.0699 -0.1010
 6404W        W23251   0.367   3.601  13.397 -0.0262  0.2058 -0.2098
 6405W        W23252   9.297  14.676  11.646 -0.0312 -0.1892 -0.0024
 6406W        W23253  13.788   7.125   4.291  0.1544  0.1701 -0.0654
 6407W        W23254   4.964  11.541  13.128  0.0132 -0.2225 -0.2264
 6408W        W23255  17.919   8.563   3.696 -0.0155  0.1213 -0.0726
 6409W        W23256  12.162  11.231  15.115 -0.1684 -0.4848  0.0315
 6410W        W23257  14.088  12.332   4.589  0.0634  0.0112 -0.0007
 6411W        W23258  10.987  16.988   4.069  0.1255  0.1819  0.2011
 6412W        W23259  11.492   6.586  15.504  0.1528  0.2858 -0.2563
 6413W        W23260  18.207   3.541  15.101 -0.0120 -0.4935 -0.0415
 6414W        W23261  17.012   0.592   1.240  0.4061 -0.1157  0.0723
 6415W        W23262   8.466  15.415  11.669  0.4343  0.0315  0.0808
 6416W        W23263  12.994  10.002  11.294  0.0054  0.0664 -0.1670
 6417W        W23264   2.797  10.359   3.450  0.0994  0.0816  0.2761
 6418W        W23265  15.980  16.585  13.568  0.3260 -0.0766 -0.0350
 6419W        W23266  16.818  13.122  13.184 -0.1468 -0.0641  0.0289
 6420W        W23267   7.552  13.656  11.396  0.1538 -0.0618 -0.0503
 6421W        W23268  11.983  17.431   3.132 -0.0067 -0.0322  0.4492
 6422W        W23269   1.228   6.415  15.936  0.0120 -0.1141 -0.3760
 6423W        W23270   4.157  15.959  12.230  0.4684 -0.2446  0.1743
 6424W        W23271   9.797  13.635   0.675 -0.1683 -0.1108  0.1665
 6425W        W23272   4.575   3.744  12.307  0.0527  0.0860  0.0428
 6426W        W23273   7.632   3.143   1.494 -0.4911 -0.0255  0.1013
 6427W        W23274  15.833   1.654   2.158 -0.0029  0.0416 -0.0744
 6428W        W23275  16.278   4.784   1.646  0.3070  0.0823 -0.0772
 6429W        W23276   6.035  14.982  13.873 -0.0082  0.1795  0.1081
 6430W        W23277  17.841  16.433   3.807 -0.1507  0.0212 -0.1524
 6431W        W23278  15.104   9.627  12.672  0.0141 -0.0083 -0.0797
 6432W        W23279   5.098   9.092   5.263 -0.1165  0.1493 -0.0441
 6433W        W23280   9.200  17.736   0.564 -0.0814 -0.1816  0.1486
 6434W        W23281  15.834   0.896   0.544 -0.0975 -0.1372  0.1055
 6435W        W23282   9.953  15.857  11.392  0.0101 -0.0961 -0.1929
 6436W        W23283  14.431  16.269  12.788  0.0802 -0.4361  0.0113
 6437W        W23284   7.795  13.505  15.216  0.1406  0.0212  0.3255
 6438W        W23285   1.290   4.641  12.872  0.0755  0.1594 -0.4098
 6439W        W23286   9.176   8.702   0.247  0.2148  0.0235  0.1302
 6440W        W23287   8.236   8.300   1.779 -0.0051 -0.1313 -0.0511
 6441W        W23288  13.423   3.457   0.940 -0.0013  0.0917  0.4279
 6442W        W23289   3.242   9.968  11.284  0.0724  0.1074  0.3960
 6443W        W23290  13.559  13.493  12.981 -0.1843 -0.0236  0.0075
 6444W        W23291  11.483  16.364  11.584 -0.4900  0.4381  0.0479
 6445W        W23292  10.458  13.134  12.357 -0.2448  0.0968 -0.2146
 6446W        W23293  13.633   5.676  10.256 -0.0867 -0.2230  0.1347
 6447W        W23294  11.005  17.281   3.187 -0.1005 -0.4653 -0.3152
 6448W        W23295  12.646   6.286  14.241  0.3113  0.0100  0.3155
 6449W        W23296   4.246   5.161  14.649 -0.1358  0.1640  0.1464
 6450W        W23297  10.851   2.100   9.933  0.0129 -0.0585  0.1284
 6451W        W23298   9.339   4.697  12.636 -0.0971 -0.2165 -0.0637
 6452W        W23299  13.748   8.325  15.439 -0.0363 -0.1884 -0.2675
 6453W        W23300   9.532  11.431  12.834  0.0550  0.2686 -0.1020
 6454W        W23301  16.807  16.927   1.730  0.1585 -0.0402  0.2823
 6455W        W23302   4.888   5.209   3.576  0.3490  0.3814  0.0745
 6456W        W23303   6.931  14.542   3.784 -0.0366  0.1042 -0.3043
 6457W        W23304  10.884   4.459   2.576  0.0895  0.1364  0.0755
 6458W        W23305   9.407  12.681  11.546  0.0576 -0.4428 -0.0192
 6459W        W23306  10.020  18.227  12.570  0.1511 -0.2599 -0.0137
 6460W        W23307   2.680  17.227   1.136  0.1995  0.0994 -0.3135
 6461W        W23308   1.311   6.600  14.151  0.2032  0.0260  0.0132
 6462W        W23309  13.346  10.376   5.604 -0.1380  0.2486  0.0938
 6463W        W23310   6.571   6.276   0.122  0.2823 -0.0270 -0.2204
 6464W        W23311   4.797   4.429  14.018  0.2958  0.2633  0.1563
 6465W        W23312  16.523  15.278   4.347  0.0080  0.0157  0.3331
 6466W        W23313   7.369   8.403   0.760  0.0860  0.3085 -0.0077
 6467W        W23314   3.882   1.231  13.320 -0.0957  0.0287 -0.0203
 6468W        W23315  14.267   9.917  14.065  0.3193 -0.0693  0.0280
 6469W        W23316  13.022   4.307   3.132 -0.1170  0.2731  0.0637
 6470W        W23317  17.367  13.015  12.300  0.2600 -0.1381  0.0795
 6471W        W23318   9.400   7.968  12.763  0.2343  0.2681  0.0121
 6472W        W23319  12.325  17.183  15.549 -0.2218 -0.0146 -0.3466
 6473W        W23320   6.998  11.178  14.566  0.1072  0.0783  0.0218
 6474W        W23321   0.379   7.307  13.599 -0.1067  0.0699  0.1223
 6475W        W23322   0.733   6.313   2.975  0.4005 -0.0850 -0.0298
 6476W        W23323   5.150   1.222   1.553 -0.2447 -0.1709 -0.0800
 6477W        W23324   3.062  11.429   0.801 -0.1532 -0.0949  0.3100
 6478W        W23325  12.822   8.740  14.486 -0.2078  0.2105 -0.1822
 6479W        W23326  14.823  14.565   2.226  0.1122 -0.1981  0.0281
 6480W        W23327   0.632   2.364  15.711  0.1931  0.0792 -0.1819
 6481W        W23328  12.542   1.684  12.607  0.2033 -0.2827 -0.0171
 6482W        W23329   9.539  15.272  13.361  0.0029  0.0194 -0.0402
 6483W        W23330  17.425   5.733   3.049 -0.0859  0.0015 -0.2251
 6484W        W23331   9.413   9.397  13.003 -0.0406 -0.0623  0.0175
 6485W        W23332   0.448  14.212  11.127 -0.2485 -0.1645 -0.2211
 6486W        W23333   2.077   5.072   3.056 -0.3115  0.0829  0.0324
 6487W        W23334   7.350   6.176   4.023  0.2078  0.0494  0.0675
 6488W        W23335   8.224  13.120  13.079  0.0686 -0.0499  0.0137
 6489W        W23336   6.485   1.339   0.876 -0.2149 -0.3193  0.1064
 6490W        W23337  10.905   3.309  12.426  0.1461 -0.1016 -0.2233
 6491W        W23338   0.812  15.587   3.939 -0.0077 -0.1699  0.0952
 6492W        W23339  17.244  11.487   4.805 -0.1557  0.1524 -0.3296
 6493W        W23340  18.186   7.788   2.439  0.1601 -0.0090  0.0415
 6494W        W23341  18.368   7.433  11.793 -0.1332 -0.0092 -0.1445
 6495W        W23342   1.367  11.424   1.668  0.1004  0.2434 -0.0039
 6496W        W23343   3.836  16.948   0.131 -0.0080 -0.0498  0.3155
 6497W        W23344  18.160   0.223   4.234  0.1332 -0.0071  0.1590
 6498W        W23345   9.662   4.277   0.539 -0.0117  0.2543 -0.4645
 6499W        W23346   6.754   8.493  15.618  0.1642  0.2575 -0.2786
 6500W        W23347  15.222  12.387  11.934  0.1143  0.1496 -0.1074
 6501W        W23348   5.408  18.185  14.243  0.0575  0.1123  0.1871
 6502W        W23349  11.616  12.169   2.765  0.0050 -0.1282 -0.0281
 6503W        W23350   6.694  12.471  13.471 -0.0765 -0.3213 -0.1115
 6504W        W23351  17.017   6.325   4.932 -0.1114  0.0169 -0.3262
 6505W        W23352   5.055   7.995  15.759 -0.0682 -0.1963 -0.0946
 6506W        W23353  18.473   2.349  13.793  0.0681 -0.0113  0.0908
 6507W        W23354   2.370  10.767  13.232  0.2390 -0.1208  0.2265
 6508W        W23355  14.822   2.940  12.536 -0.0229 -0.2020 -0.2191
 6509W        W23356   9.489   9.993   0.563 -0.3220 -0.0467 -0.3089
 6510W        W23357  18.487   2.898   1.984 -0.0988 -0.1880 -0.1597
 6511W        W23358   3.740   6.049  14.601 -0.0927  0.1099  0.0095
 6512W        W23359   6.995   5.033   3.591 -0.3522 -0.0150  0.3951
 6513W        W23360   2.110  13.691   0.959 -0.3380  0.0489 -0.0076
 6514W        W23361  11.649  14.275  13.535  0.0270 -0.2874 -0.4579
 6515W        W23362  13.410   7.660   3.162  0.2635  0.1507 -0.2280
 6516W        W23363   3.070   8.514   2.230  0.0094  0.0795  0.1968
 6517W        W23364  10.058   9.629  13.598 -0.0414  0.3789  0.0874
 6518W        W23365  13.172  17.372   1.068 -0.1032 -0.2569  0.0888
 6519W        W23366  16.535  12.778   3.874 -0.2281 -0.1987 -0.1434
 6520W        W23367   3.797   7.709  12.220 -0.1409  0.0810 -0.1044
 6521W        W23368  16.473  17.135  12.406 -0.0090 -0.2353 -0.1361
 6522W        W23369   9.559  11.513  15.324 -0.2700 -0.3709 -0.1427
 6523W        W23370  14.570   9.851   5.032  0.2356 -0.3208 -0.1954
 6524W        W23371  16.511  13.892   4.534 -0.1695 -0.0603  0.0612
 6525W        W23372   6.964  18.492   0.646 -0.2824 -0.3507 -0.3097
 6526W        W23373  12.984  13.577  15.550 -0.0901  0.1756  0.3952
 6527W        W23374   5.196   8.240  15.250 -0.0913 -0.0083  0.2791
 6528W        W23375   2.676   8.980  12.845  0.5408 -0.1074 -0.1084
 6529W        W23376   2.960   3.024   3.247 -0.2011 -0.2377  0.1913
 6530W        W23377   0.137   4.310   5.908  0.3144  0.0752 -0.0657
 6531W        W23378   7.299   2.060   0.754 -0.1394  0.1164  0.0964
 6532W        W23379   7.157   4.598   0.006  0.3322 -0.1876  0.2062
 6533W        W23380   0.959  12.227  12.130  0.0081  0.4157  0.1773
 6534W        W23381   7.195  16.377  13.553 -0.0081 -0.3897 -0.0142
 6535W        W23382   7.899   7.220  11.960  0.2508 -0.1738  0.3880
 6536W        W23383  17.506  17.843   1.738 -0.1900 -0.1979 -0.0262
 6537W        W23384   9.757   2.441   5.497 -0.3026  0.3424  0.2183
 6538W        W23385   8.422   6.762  10.871  0.0368  0.1191  0.1046
 6539W        W23386   3.865  12.367   2.039  0.2774 -0.0349 -0.0707
 6540W        W23387   3.222   5.463   2.440 -0.0028 -0.0468 -0.3818
 6541W        W23388   9.525  10.625   1.245  0.1403 -0.0980 -0.2365
 6542W        W23389   1.399  18.043  14.002 -0.2325  0.0176 -0.5780
 6543W        W23390   3.884   0.517   0.576  0.0879 -0.0757  0.2444
 6544W        W23391   1.812   8.737  13.645  0.0238 -0.2109  0.2594
 6545W        W23392  14.042  17.726  14.107  0.4369  0.2504  0.0490
 6546W        W23393  11.581   0.302  14.101  0.3252  0.1584  0.0456
 6547W        W23394   0.266   6.554   0.797 -0.0344  0.1399 -0.2483
 6548W        W23395  17.983   1.110  10.372  0.0013  0.0904  0.0821
 6549W        W23396  12.396   2.029   1.057 -0.0069  0.1383 -0.0602
 6550W        W23397  14.731   4.513  13.089 -0.1134 -0.0390  0.0968
 6551W        W23398   3.947   8.643  15.843 -0.0328 -0.1414 -0.1160
 6552W        W23399   4.174  16.342   1.379  0.1134 -0.0039 -0.2380
 6553W        W23400  16.259  16.332  12.729 -0.0925  0.1116 -0.4468
 6554W        W23401   2.402   5.240   4.624 -0.0777  0.0716 -0.1360
 6555W        W23402  16.405  10.062  12.577 -0.1164 -0.2722 -0.1357
 6556W        W23403  12.692   7.196   5.177 -0.0835 -0.2071 -0.3418
 6557W        W23404   9.281   1.198   0.537  0.3678 -0.0049 -0.1727
 6558W        W23405   4.469   3.284  14.229  0.0515  0.0436  0.2438
 6559W        W23406   6.717  18.423   2.647  0.1509  0.0785 -0.3408
 6560W        W23407  18.309   3.782   3.581  0.0864  0.0902  0.2122
 6561W        W23408  14.684  17.389  14.578  0.1376 -0.0929  0.0285
 6562W        W23409  10.303   2.208  11.577  0.1703  0.1613  0.1261
 6563W        W23410   5.845   5.548  12.969 -0.0545  0.0244 -0.1253
 6564W        W23411   1.781   9.316  10.455 -0.1239 -0.0998  0.1317
 6565W        W23412  13.654  12.987  12.248 -0.1046 -0.2099 -0.1808
 6566W        W23413  13.973   4.145   0.741 -0.1662 -0.0178 -0.2964
 6567W        W23414   0.860  16.118   1.627 -0.1238  0.0406 -0.1790
 6568W        W23415  17.093   6.563  13.039  0.0590  0.1191 -0.2244
 6569W        W23416  17.186   0.592  11.390  0.1764 -0.2550 -0.0178
 6570W        W23417  14.256  15.889   0.624 -0.2793 -0.0098  0.1125
 6571W        W23418   5.422   8.229   5.637  0.2217 -0.1234  0.0431
 6572W        W23419   0.552   7.891   6.037 -0.3142  0.1733 -0.2618
 6573W        W23420   7.683  10.224   1.206  0.1370 -0.0231  0.0279
 6574W        W23421  10.690   0.704   1.943  0.0196 -0.0240 -0.2116
 6575W        W23422  10.917  12.859  13.443  0.0333  0.0099  0.0200
 6576W        W23423  15.327   8.941  14.532  0.2044 -0.1675 -0.0844
 6577W        W23424   6.824   3.824  12.592 -0.0311 -0.1734 -0.2889
 6578W        W23425   2.615  17.961  13.183  0.3449  0.0196  0.0371
 6579W        W23426   8.630  13.292   3.806 -0.2045  0.0329 -0.1833
 6580W        W23427   3.269   8.697   4.690 -0.0194 -0.1675 -0.1885
 6581W        W23428  16.136  13.444   0.563  0.1316  0.0788 -0.0936
 6582W        W23429   1.141   6.125   1.126 -0.1789  0.0139 -0.1994
 6583W        W23430  11.995  12.376  14.183 -0.1448 -0.0915  0.0433
 6584W        W23431   5.942   9.541   3.716  0.3457 -0.0357  0.2409
 6585W        W23432  16.398  12.593   0.981  0.0453 -0.1288 -0.1695
 6586W        W23433  10.998  12.594   1.441  0.3008  0.2204 -0.2997
 6587W        W23434   6.135  14.613   2.642 -0.0514  0.0211  0.0918
 6588W        W23435   8.939  15.991   1.452 -0.1945 -0.0089  0.1257
 6589W        W23436   8.222  17.289   4.134 -0.1054 -0.0872 -0.0018
 6590W        W23437   7.318  18.327   4.664  0.0597 -0.1586 -0.3756
 6591W        W23438  11.778   0.244   0.498  0.3416  0.1182  0.1344
 6592W        W23439   2.201   4.289   4.078 -0.0931  0.1611 -0.0367
 6593W        W23440   0.487   3.285   5.606  0.0202  0.2891  0.2391
 6594W        W23441  13.800  14.162   0.894 -0.0692 -0.0814  0.1652
 6595W        W23442   7.237  12.174  12.019 -0.1523 -0.1676  0.2501
 6596W        W23443   3.810   2.874   1.506  0.1897  0.0521  0.0268
 6597W        W23444  18.380  10.816  12.415 -0.0151  0.0991 -0.0506
 6598W        W23445   6.109  10.361  13.350 -0.1093 -0.2084  0.0988
 6599W        W23446   1.769   3.191  13.787  0.2942  0.0605  0.1429
 6600W        W23447   8.971   4.726   1.886 -0.1896 -0.2948 -0.1888
 6601W        W23448   5.338   1.662  11.807 -0.2905  0.0581  0.0411
 6602W        W23449  13.312   7.961   1.818 -0.1141  0.0772  0.2585
 6603W        W23450  11.420   9.320  11.688 -0.0439  0.1432 -0.2547
 6604W        W23451  12.098   4.061  14.797 -0.0058 -0.1141  0.1298
 6605W        W23452  11.181  11.227  14.458  0.1761  0.2693 -0.2949
 6606W        W23453   7.656   6.679  13.758 -0.2827  0.1453  0.0988
 6607W        W23454  17.835  11.615   0.699  0.0574 -0.1705 -0.2025
 6608W        W23455   5.975  15.063   1.916 -0.1803  0.0092  0.0044
 6609W        W23456   0.895  15.088   0.421 -0.1109 -0.2471 -0.3544
 6610W        W23457  17.463   2.589   5.615 -0.1891 -0.0779  0.0034
 6611W        W23458   9.099  18.157  14.510  0.0287  0.2490  0.0159
 6612W        W23459   4.393   0.630  13.385  0.3027  0.3300 -0.0671
 6613W        W23460   2.536   2.607   0.408  0.4266 -0.1544  0.0416
 6614W        W23461   2.754  16.515  15.378 -0.1839  0.0129  0.2214
 6615W        W23462  15.847   8.836   4.349 -0.1365 -0.3786  0.0601
 6616W        W23463   5.738   3.205   3.076 -0.0622 -0.0409 -0.3072
 6617W        W23464  11.115   0.324  10.987  0.1176 -0.0134 -0.0419
 6618W        W23465  11.625   3.195  12.783  0.2957  0.1660 -0.2531
 6619W        W23466  17.226  17.354  14.632  0.1053  0.1749  0.2561
 6620W        W23467   9.427  17.376  11.163 -0.1476 -0.0694 -0.1455
 6621W        W23468  10.296  13.564  15.282 -0.2177  0.1276  0.1573
 6622W        W23469  14.123   5.149   4.822  0.0442  0.3450  0.1588
 6623W        W23470  15.227   1.907  15.891 -0.0009  0.0032 -0.5484
 6624W        W23471   4.765   6.701  15.459  0.3751  0.0583 -0.1493
 6625W        W23472  12.158  16.889   2.345 -0.0529 -0.1453 -0.1597
 6626W        W23473   3.916  14.155  15.602  0.0413 -0.0156 -0.0279
 6627W        W23474   8.238  11.567  12.535  0.0501  0.1235  0.1604
 6628W        W23475  12.736   8.005  13.946  0.1078 -0.2620  0.4757
 6629W        W23476   6.156  16.941  11.222  0.2573  0.3339 -0.1897
 6630W        W23477  12.219   7.122  10.805  0.2497  0.2591 -0.0334
 6631W        W23478  14.284  14.834  12.934 -0.2345  0.1574  0.0028
 6632W        W23479  13.493  18.415   2.469 -0.2608 -0.0350  0.0373
 6633W        W23480   0.068  11.323   0.740  0.1465  0.1333  0.0068
 6634W        W23481   9.631   4.004  13.466  0.1655  0.2326  0.2908
 6635W        W23482   7.350   3.706  12.736 -0.0549 -0.0925 -0.0185
 6636W        W23483   3.950   4.773  12.341  0.1904 -0.0062 -0.0014
 6637W        W23484   5.976  17.238  12.287 -0.0876 -0.1561 -0.2121
 6638W        W23485   4.329   4.061   1.899 -0.1452  0.0072 -0.1314
 6639W        W23486   5.150   3.860   9.990 -0.3263  0.1847 -0.0684
 6640W        W23487   4.162   8.198   0.210  0.3366 -0.1052  0.0135
 6641W        W23488  10.281  16.939   4.726 -0.1319 -0.2448  0.0828
 6642W        W23489   6.057  16.838   4.131  0.2207  0.2108  0.1121
 6643W        W23490  18.461  14.790  11.733  0.2089  0.1520 -0.1778
 6644W        W23491   8.696  13.768  11.254  0.3438 -0.0031 -0.0537
 6645W        W23492  12.946   6.297   4.795  0.1893  0.0590  0.0656
 6646W        W23493  15.606   2.228   3.889 -0.0832  0.0479  0.1861
 6647W        W23494  13.662  16.053  15.850 -0.1077  0.1671 -0.3971
 6648W        W23495   0.487  16.793  12.709  0.1115  0.2684 -0.6061
 6649W        W23496  12.058  15.438  12.681 -0.0754  0.1254 -0.0924
 6650W        W23497   0.017   2.028  11.383 -0.2794 -0.3709  0.0840
 6651W        W23498   4.255   3.767   5.358  0.0792 -0.0514 -0.2851
 6652W        W23499  17.244   5.945   4.571  0.0204 -0.2046 -0.0016
 6653W        W23500   9.551  18.307   1.014  0.2797  0.0574 -0.0043
 6654W        W23501   8.236  10.051  14.897 -0.2796 -0.0460  0.2920
 6655W        W23502  13.877   9.471   4.027  0.1101 -0.1840 -0.0784
 6656W        W23503   4.345   9.002  15.770 -0.1004  0.0045 -0.0809
 6657W        W23504   0.250  11.201   2.443 -0.0699 -0.0543 -0.1226
 6658W        W23505  17.047   4.709   0.607  0.2174  0.1208 -0.3646
 6659W        W23506   7.980  17.244  13.613 -0.1667  0.1116  0.0799
 6660W        W23507  13.834   0.357   4.033 -0.0006  0.2519  0.1886
 6661W        W23508   3.748  15.095   1.954  0.0030  0.0283 -0.2228
 6662W        W23509  14.028   5.818  11.785  0.1490  0.0059  0.1585
 6663W        W23510   5.909  16.974   0.307  0.0594  0.1018  0.1741
 6664W        W23511   1.637   8.713   2.696 -0.1099 -0.1170 -0.0603
 6665W        W23512   2.550   3.653   5.061  0.1227 -0.0396 -0.2736
 6666W        W23513   5.862   1.939   4.227 -0.2123 -0.0418  0.0468
 6667W        W23514  10.027  13.481  12.377  0.2072  0.1621  0.1574
 6668W        W23515  10.054  11.087   4.688 -0.0822  0.0392 -0.4383
 6669W        W23516   4.309   2.052  14.754  0.0825  0.0520  0.1014
 6670W        W23517   7.567  15.472  12.133 -0.1861 -0.2556  0.0604
 6671W        W23518  12.053   4.288   1.897  0.2358  0.1071  0.1328
 6672W        W23519   9.289   6.126  13.262  0.4123  0.4989 -0.0793
 6673W        W23520   3.352   1.100   5.247  0.1698  0.0285 -0.0830
 6674W        W23521  13.883   4.536  12.792  0.1662  0.0002  0.0877
 6675W        W23522  14.498   1.538   2.336 -0.1018 -0.1248  0.0119
 6676W        W23523   6.824  17.554   0.489 -0.4591  0.1030 -0.1221
 6677W        W23524  18.199  14.766   4.961 -0.0666 -0.1661  0.1474
 6678W        W23525   4.433  12.503   1.405 -0.1097 -0.2360 -0.1427
 6679W        W23526   1.166  15.384   3.537 -0.0870  0.0617 -0.0383
 6680W        W23527  13.755  17.380  14.777 -0.1139  0.0313  0.1790
 6681W        W23528  10.904  12.924  14.083 -0.1217  0.5195 -0.0427
 6682W        W23529   8.070   4.978  14.752  0.0633 -0.0415 -0.1137
 6683W        W23530   5.512   4.715   0.485 -0.0404  0.1467 -0.0281
 6684W        W23531   1.894  12.767  14.302  0.1914  0.2176 -0.0837
 6685W        W23532   5.655  15.552  13.171 -0.0259 -0.0764  0.1231
 6686W        W23533   3.157   6.685   2.237 -0.2503 -0.0909  0.2122
 6687W        W23534  13.154   1.903  11.965 -0.0033  0.0616 -0.1373
 6688W        W23535  18.191   4.591  11.493  0.1461  0.1432 -0.0363
 6689W        W23536   5.681  17.486  11.970 -0.2179 -0.1388 -0.2545
 6690W        W23537   6.974  15.081   3.912  0.0062 -0.0082  0.1944
 6691W        W23538  10.062   4.128   2.286 -0.0767  0.1807  0.0150
 6692W        W23539  11.519  12.092  11.495 -0.2139 -0.0638  0.0564
 6693W        W23540  15.820  10.254   3.494 -0.2773  0.0766 -0.1245
 6694W        W23541  16.622   4.290  14.325 -0.0881  0.0835  0.0513
 6695W        W23542  13.232  13.801  14.317  0.0088  0.0168 -0.1035
 6696W        W23543  11.110   9.166   2.167 -0.2495  0.1713  0.1651
 6697W        W23544  17.778   9.625  11.638  0.0669  0.2247 -0.0931
 6698W        W23545  10.941   1.654  11.860 -0.1788  0.1623  0.0602
 6699W        W23546  17.003  18.120  11.451  0.0936  0.1000 -0.3573
 6700W        W23547   8.337   2.674   5.970  0.0102  0.1089 -0.1890
 6701W        W23548   8.969  17.788   2.643  0.0936  0.3492 -0.0205
 6702W        W23549  18.394   8.478   3.234 -0.3110 -0.1643 -0.2267
 6703W        W23550   1.050  17.460   2.089 -0.0720 -0.0544 -0.1429
 6704W        W23551  11.106   2.647  15.789 -0.0067 -0.2891 -0.0404
 6705W        W23552   3.679  15.452   1.571 -0.0095  0.0879  0.1795
 6706W        W23553   6.603  13.751   5.140  0.0889  0.2749  0.0105
 6707W        W23554   4.503   2.112   2.343 -0.1058  0.2148 -0.2622
 6708W        W23555   9.640   2.874  14.139 -0.1300 -0.0822 -0.0620
 6709W        W23556   3.094  14.428   2.594  0.1789 -0.3036 -0.1189
 6710W        W23557  17.728   9.019   3.541  0.0331 -0.1318 -0.0301
 6711W        W23558   8.066  10.942   6.037  0.2185  0.1521  0.2043
 6712W        W23559   4.718  11.515   3.133  0.2438  0.0179  0.0977
 6713W        W23560   8.004  13.318   2.214  0.0506 -0.1156  0.1416
 6714W        W23561   0.882   7.162   5.465  0.1018  0.0057 -0.0901
 6715W        W23562  17.943  13.618   4.642 -0.1440  0.1092 -0.2416
 6716W        W23563  12.288   1.219  12.029  0.1490 -0.1259 -0.1115
 6717W        W23564   1.655   3.688  14.913  0.1524  0.1004  0.0923
 6718W        W23565  10.892   6.988   4.460  0.0647 -0.1640  0.0691
 6719W        W23566   7.073   5.021   1.242  0.2981  0.0033  0.2042
 6720W        W23567  17.513  13.426   2.272 -0.4153  0.1686 -0.1481
 6721W        W23568   6.501  11.116   1.468  0.0877  0.1462  0.0265
 6722W        W23569   9.068   6.465   5.002 -0.1566 -0.4030  0.2679
 6723W        W23570   6.770   1.609   5.440 -0.3321  0.0454  0.4383
 6724W        W23571   0.794  12.559   2.795  0.1085  0.1061 -0.0750
 6725W        W23572   6.925   9.834   4.009  0.0904  0.0474  0.0728
 6726W        W23573   1.982  10.728   0.576 -0.0001  0.0103 -0.1999
 6727W        W23574   9.410   9.224   1.012 -0.1703  0.3198 -0.0338
 6728W        W23575   3.685  16.213  15.566 -0.2199  0.0177 -0.0093
 6729W        W23576  15.348  15.247  12.825 -0.0439  0.1161  0.0349
 6730W        W23577  14.009   1.455  15.565 -0.3201  0.0484 -0.1704
 6731W        W23578   1.410   0.737   4.944 -0.3174  0.2254  0.2013
 6732W        W23579  12.941   5.613   3.648  0.0612 -0.0372  0.1210
 6733W        W23580   3.843  14.336  14.624 -0.0599 -0.2392  0.1115
 6734W        W23581   3.228   2.814  15.471 -0.1556 -0.0267 -0.2102
 6735W        W23582  18.311  14.866   5.584  0.0743  0.1960 -0.0544
 6736W        W23583  12.376   2.156  14.293 -0.0930  0.3709 -0.2246
 6737W        W23584   9.119   6.497   1.978  0.0156  0.1464 -0.1637
 6738W        W23585   7.478  12.409  13.862 -0.0542 -0.1548  0.0877
 6739W        W23586  12.128   2.536  12.468  0.1690 -0.0566  0.1409
 6740W        W23587   5.837   9.867  11.591  0.0682 -0.0960  0.2158
 6741W        W23588  13.157  14.225  14.760  0.1452 -0.0486  0.0065
 6742W        W23589  17.696   5.026  12.192 -0.2269  0.2006 -0.2151
 6743W        W23590  16.562  17.936   3.191  0.0011  0.3968 -0.0158
 6744W        W23591   8.658  13.360  11.983 -0.0080  0.0381  0.3905
 6745W        W23592  12.120   6.882   0.560  0.4163  0.0041  0.1890
 6746W        W23593  17.503   6.396  11.662  0.1992  0.0566  0.0116
 6747W        W23594  11.510  10.918   4.547 -0.1712 -0.2047 -0.0807
 6748W        W23595   9.875   7.290   3.386  0.0338 -0.1352  0.0869
 6749W        W23596   6.697  12.286   0.053  0.0791 -0.2967  0.2059
 6750W        W23597   6.692  18.423  15.588 -0.2365 -0.1405  0.2266
 6751W        W23598   4.996   4.973  10.970 -0.1035  0.0902 -0.1044
 6752W        W23599  11.577   0.372   3.166  0.0294 -0.1320  0.0692
 6753W        W23600  15.578  11.278   5.049 -0.4673  0.0235 -0.3285
 6754W        W23601  11.615   1.267  15.818 -0.0702  0.1943  0.3865
 6755W        W23602  14.031   2.131  10.498 -0.0185  0.1932 -0.1781
 6756W        W23603  12.830   5.441  11.273  0.0353 -0.2218 -0.0169
 6757W        W23604   5.923   9.980   3.904 -0.0978  0.0832 -0.2208
 6758W        W23605  17.818  15.502  13.197  0.3308  0.2740 -0.0037
 6759W        W23606   8.204  17.701  15.496 -0.0931  0.0272 -0.0727
 6760W        W23607   6.349  10.434  11.126  0.2648 -0.1379 -0.3195
 6761W        W23608   3.824  12.675  12.876  0.5148  0.2735 -0.0232
 6762W        W23609  14.606  10.123  14.389 -0.0169  0.2786  0.0705
 6763W        W23610   5.968  13.867  11.587  0.3625 -0.1177  0.0600
 6764W        W23611   6.308   0.064   4.559  0.3165 -0.0383  0.0635
 6765W        W23612   0.308   4.854   0.173  0.1750 -0.2155  0.1766
 6766W        W23613   1.658  11.018  13.908  0.0504 -0.0752 -0.2624
 6767W        W23614  15.105  12.406  12.924 -0.0534  0.1547  0.0556
 6768W        W23615  12.352  10.951   2.177  0.2476 -0.3695  0.0268
 6769W        W23616  14.941  12.613   0.399  0.0121 -0.1982 -0.4899
 6770W        W23617   5.976   7.730   5.760  0.1130 -0.2127  0.1088
 6771W        W23618   3.913   3.649   0.484  0.1001  0.0845  0.5026
 6772W        W23619  10.143   3.884   1.605  0.1524 -0.1328 -0.2455
 6773W        W23620  16.975  16.412  13.370  0.0814 -0.2910 -0.0365
 6774W        W23621  11.494  11.958   0.627  0.0851  0.2703 -0.0285
 6775W        W23622   6.836  16.251  14.932 -0.1205 -0.1695 -0.1981
 6776W        W23623  16.194   5.535   2.826  0.2200  0.1945  0.4539
 6777W        W23624  13.520  11.807  15.594  0.0051 -0.0980  0.0637
 6778W        W23625   8.361  12.490   3.735  0.0909 -0.2139 -0.4032
 6779W        W23626   2.325   1.519  14.858 -0.3062  0.3276  0.1633
 6780W        W23627  15.385   9.220  12.590  0.1206  0.1097 -0.0511
 6781W        W23628  10.434  11.681   3.447  0.1728  0.1911  0.0980
 6782W        W23629  15.661   5.964  11.275 -0.3831 -0.3301  0.0327
 6783W        W23630  11.947   2.525   0.244 -0.0275 -0.1022  0.4914
 6784W        W23631   9.718   7.562   2.146  0.1612  0.1874  0.0489
 6785W        W23632  15.265   3.942  12.322 -0.1176 -0.0270  0.1400
 6786W        W23633   5.700  15.180   5.496 -0.3463  0.0563 -0.2405
 6787W        W23634   3.060   9.961  14.899 -0.2659  0.1724 -0.3084
 6788W        W23635  13.795   2.565   1.731 -0.3252 -0.3612 -0.1714
 6789W        W23636  11.170   1.156  13.583  0.1521  0.2045  0.2455
 6790W        W23637  11.034   5.281  14.969 -0.2139 -0.2571  0.3313
 6791W        W23638  18.436   9.373   2.802 -0.0708  0.0407 -0.2535
 6792W        W23639  15.906  15.616   5.792 -0.1799  0.1180 -0.1519
 6793W        W23640  17.862  14.884   1.728 -0.0837  0.0112  0.3217
 6794W        W23641   0.192  15.682   0.589 -0.1753  0.2081 -0.0796
 6795W        W23642   4.813  11.412   0.964  0.2849 -0.4264  0.0192
 6796W        W23643   0.208   3.026  15.033 -0.2016 -0.0793  0.0145
 6797W        W23644  10.309  10.128  13.686  0.0494  0.0097 -0.0857
 6798W        W23645   6.362   0.085  13.786  0.0966  0.3406 -0.2664
 6799W        W23646  13.175  17.673  14.200  0.2408 -0.2213 -0.0494
 6800W        W23647   6.744  11.837   3.484  0.2015  0.1368  0.1605
 6801W        W23648   2.584  11.301   3.102 -0.0185 -0.1542 -0.2915
 6802W        W23649  11.908  11.989   0.323  0.0690  0.1062  0.1391
 6803W        W23650  10.117   6.157  12.993  0.1333  0.0040  0.0845
 6804W        W23651   6.853   6.542  11.522  0.0849 -0.2932 -0.0878
 6805W        W23652   2.978   5.896   2.580  0.0739  0.0714 -0.0352
 6806W        W23653  10.361   8.389  14.094  0.1111  0.2302 -0.1707
 6807W        W23654  12.916  12.375   2.129 -0.3070  0.0248  0.0056
 6808W        W23655  13.004  17.654  10.945  0.1069  0.3229 -0.1027
 6809W        W23656   4.932   7.316   0.469 -0.2016  0.0347 -0.1027
 6810W        W23657   3.952   6.422  14.379  0.0120 -0.0460 -0.1291
 6811W        W23658  17.077   8.533   3.920 -0.2148  0.1034 -0.0335
 6812W        W23659  15.126  13.816  13.036 -0.0757  0.1998 -0.0995
 6813W        W23660   1.008   6.582  11.544  0.0150 -0.0146 -0.1811
 6814W        W23661   3.711  11.423   0.382  0.5411 -0.2711 -0.0323
 6815W        W23662  10.472  15.015  13.846 -0.0040  0.0655 -0.3665
 6816W        W23663   2.702   0.593  15.208  0.2938  0.1058  0.0993
 6817W        W23664  16.193  11.198   0.122 -0.0196 -0.0315  0.0265
 6818W        W23665  15.798   9.779   2.231  0.0209  0.0538 -0.0632
 6819W        W23666   7.388   7.044   3.311  0.1890  0.1253 -0.4269
 6820W        W23667  10.506  18.280  12.721 -0.0751  0.1761  0.0139
 6821W        W23668   2.400  14.785   3.201  0.1910  0.0315 -0.0118
 6822W        W23669   4.767  17.485  10.364  0.0935  0.0510 -0.0871
 6823W        W23670   3.478  14.169  13.731  0.1481  0.0709  0.0789
 6824W        W23671   0.858   1.030  15.639  0.1281  0.1501 -0.0419
 6825W        W23672  18.446  11.588   1.757 -0.2163 -0.0643 -0.0912
 6826W        W23673   4.044  12.171  13.093  0.0366 -0.0523  0.1307
 6827W        W23674   5.071  16.294  11.631  0.0590  0.0010 -0.2981
 6828W        W23675  15.269   7.172   1.271  0.0998 -0.0091 -0.1373
 6829W        W23676   8.108  13.940   4.733 -0.1728  0.2772 -0.1356
 6830W        W23677   5.044   8.274  11.837  0.0324 -0.2341  0.1708
 6831W        W23678   4.708  15.346  12.958 -0.0348 -0.0759 -0.1992
 6832W        W23679  15.912  11.401   4.670  0.2909  0.1035 -0.2409
 6833W        W23680  13.727  11.082   1.445 -0.0105  0.0534  0.1363
 6834W        W23681   4.705  14.887   3.936 -0.1165 -0.3414  0.0582
 6835W        W23682  11.496   2.130   3.672 -0.0879 -0.0606 -0.3521
 6836W        W23683   6.830  16.784   1.868 -0.1263  0.3265 -0.0191
 6837W        W23684   7.510  11.395  14.727  0.4604  0.3613  0.2946
 6838W        W23685  17.423   4.225   0.752 -0.0591 -0.1722 -0.2409
 6839W        W23686   5.935   6.806  12.022 -0.4044  0.1512  0.2128
 6840W        W23687  12.627   7.176   4.145  0.0552  0.4568  0.0653
 6841W        W23688   8.522   1.275   4.217  0.2615  0.0576 -0.0221
 6842W        W23689  11.357   9.988   5.303 -0.1951 -0.1248 -0.2593
 6843W        W23690   2.895   1.312  13.164  0.2387 -0.0422 -0.0416
 6844W        W23691  12.553   4.804  13.251  0.0475 -0.1524  0.1306
 6845W        W23692   6.917  11.753  15.941  0.0569  0.2782 -0.0788
 6846W        W23693  17.311   0.277   0.876 -0.0056 -0.2589 -0.2404
 6847W        W23694   0.053  14.021  12.840 -0.0313 -0.3263 -0.0259
 6848W        W23695  11.089  14.112  13.702 -0.0552 -0.3326 -0.3826
 6849W        W23696   0.713   0.450  14.498  0.0697 -0.1759 -0.2053
 6850W        W23697  14.320   2.994   5.276  0.4320 -0.0531 -0.0630
 6851W        W23698   6.725   7.971   6.219  0.2825 -0.0840 -0.0348
 6852W        W23699   0.274  17.074   5.365  0.0324 -0.1572 -0.1198
 6853W        W23700  12.267   3.021   4.901 -0.1905 -0.0303  0.1463
 6854W        W23701   8.460   7.276   2.199  0.2918 -0.1569  0.1899
 6855W        W23702  13.043  15.474  12.441 -0.1562  0.0701  0.0726
 6856W        W23703   1.621   5.857  10.953 -0.0637 -0.3116 -0.2082
 6857W        W23704   5.410   4.958  13.697  0.0082 -0.0346  0.0362
 6858W        W23705  12.729   8.622   4.279 -0.0216 -0.1047 -0.1041
 6859W        W23706  11.758   7.760  15.398  0.0409  0.2041  0.3507
 6860W        W23707  12.846  12.275  13.268 -0.1057  0.0097  0.1577
 6861W        W23708   9.493   1.042  12.904 -0.2221  0.0466  0.2751
 6862W        W23709   4.685  12.491  13.258  0.1090 -0.3501 -0.3181
 6863W        W23710  14.250   3.736  12.500 -0.0290  0.0475 -0.0493
 6864W        W23711   3.547  14.713  14.328  0.2197  0.0906 -0.0140
 6865W        W23712   5.788   7.834   2.941  0.2655  0.1382 -0.0936
 6866W        W23713   7.130  16.463  12.712 -0.3023 -0.0848 -0.0082
 6867W        W23714  13.420   9.607   3.275 -0.0476 -0.2080 -0.0216
 6868W        W23715   0.731   9.222  13.298 -0.1045 -0.2726 -0.0164
 6869W        W23716   8.178  11.463  15.896  0.3861 -0.2971  0.2071
 6870W        W23717  14.220  13.117   3.733 -0.0540 -0.1517  0.0224
 6871W        W23718   8.154  14.981  12.870  0.1968  0.1105 -0.0255
 6872W        W23719   1.138   4.758  12.234  0.4080 -0.1331 -0.1998
 6873W        W23720  15.677  11.716   0.704  0.0910  0.4292  0.0276
 6874W        W23721   5.659  10.505   3.248 -0.0546  0.4559 -0.1421
 6875W        W23722   9.170   5.715   2.683 -0.3851  0.1440  0.1373
 6876W        W23723  18.249  16.795   3.709  0.2218  0.1078  0.0175
 6877W        W23724  17.591   2.479   2.808  0.3205 -0.0462  0.0425
 6878W        W23725   9.345   3.659  14.574 -0.0122  0.1435  0.2171
 6879W        W23726   6.300  14.522  14.117 -0.0328  0.2984 -0.1048
 6880W        W23727  15.807   6.976   1.283  0.0763 -0.0066 -0.2158
 6881W        W23728   5.314  15.565  12.168 -0.2037  0.1746 -0.1420
 6882W        W23729   9.741  15.069   3.732 -0.0816  0.1916 -0.0057
 6883W        W23730   4.778   1.863   5.776  0.3259 -0.2417  0.1069
 6884W        W23731  13.265   1.198  12.312 -0.0414 -0.0970 -0.1040
 6885W        W23732  17.257   4.620  10.029 -0.1957  0.0461  0.2826
 6886W        W23733   5.525   3.113   2.179 -0.1005 -0.5513 -0.1801
 6887W        W23734  14.953  13.830   1.285 -0.0652  0.0096  0.2093
 6888W        W23735   9.489   0.242  10.825  0.1759 -0.0621 -0.2075
 6889W        W23736  14.686  14.787  14.751  0.0396 -0.2857 -0.1779
 6890W        W23737   3.437  15.987  11.664  0.2554 -0.1668  0.1815
 6891W        W23738   0.088   9.410   3.297  0.0541 -0.0020 -0.0124
 6892W        W23739   4.015  12.250   1.570  0.1378  0.2669 -0.0791
 6893W        W23740  11.184   7.699   2.998  0.1509 -0.2677  0.1431
 6894W        W23741   7.253   6.857  11.398  0.1191 -0.3311 -0.1890
 6895W        W23742  14.461  17.881  14.305 -0.1424  0.1373 -0.2279
 6896W        W23743  18.461  16.842   1.878 -0.1603  0.0453  0.2627
 6897W        W23744   6.232   3.785   1.368  0.0807  0.1723  0.0603
 6898W        W23745  14.706   9.985   3.862  0.1631  0.0673 -0.2679
 6899W        W23746  10.377   8.477  11.062  0.3400  0.0389  0.0362
 6900W        W23747   5.217   0.123  10.960 -0.1339  0.1263 -0.0138
 6901W        W23748   1.576   4.833   4.580  0.2142 -0.0990  0.0989
 6902W        W23749   1.000   0.176  14.194  0.3620 -0.0146 -0.0138
 6903W        W23750   3.895   1.165  15.026  0.1708 -0.0759  0.4313
 6904W        W23751   3.625  13.196   2.254 -0.1315 -0.1938  0.1493
 6905W        W23752  12.768  17.144  15.259  0.1396 -0.1440 -0.1332
 6906W        W23753  13.061  18.203   1.314 -0.2313 -0.1127 -0.0834
 6907W        W23754   3.774   6.588  13.394  0.2173 -0.0713 -0.1079
 6908W        W23755   3.781  10.781  12.652  0.0033 -0.2788  0.2643
 6909W        W23756   2.444   1.011   2.937 -0.1535  0.0694 -0.0866
 6910W        W23757  10.472   9.934   0.183 -0.1587  0.2940  0.1554
 6911W        W23758  12.183  16.612   3.266 -0.0225  0.1606  0.0654
 6912W        W23759   7.466  15.790   1.894  0.4032  0.0677  0.0891
 6913W        W23760  13.965  11.457  15.608 -0.1184  0.2067  0.1696
 6914W        W23761  12.310  12.568   3.838 -0.0376 -0.1503  0.1864
 6915W        W23762   8.552  13.532   0.489 -0.0596  0.0462 -0.0354
 6916W        W23763   6.826  12.874  10.372 -0.0733  0.3150 -0.0586
 6917W        W23764  13.541   1.350   5.094 -0.1274  0.1068 -0.0605
 6918W        W23765   5.073  14.079   3.580 -0.1569 -0.2190 -0.0868
 6919W        W23766  14.202  12.560   1.234 -0.0017 -0.0978 -0.1702
 6920W        W23767   5.422  12.478   1.615  0.0519 -0.0066  0.0036
 6921W        W23768  17.959   4.973   0.541 -0.4555 -0.2312  0.0446
 6922W        W23769  10.854  14.309   2.311  0.2065  0.0960  0.1147
 6923W        W23770  17.294   0.890   5.105 -0.0234  0.3135 -0.1513
 6924W        W23771   4.598   6.017   0.679 -0.3513 -0.0324  0.1456
 6925W        W23772   6.892  16.724  14.407 -0.0357 -0.0004  0.1423
 6926W        W23773  16.749  17.450   5.012  0.0034  0.1109  0.0126
 6927W        W23774   5.813   9.144  13.518  0.3500 -0.1386 -0.0581
 6928W        W23775   6.867  16.844  12.389  0.1681  0.3247 -0.2781
 6929W        W23776  14.012  16.632  15.772 -0.0655  0.3731  0.0610
 6930W        W23777  14.106   5.638  14.500  0.3525 -0.1822 -0.0652
 6931W        W23778  13.417  15.728   3.212 -0.0235  0.1971  0.0852
 6932W        W23779   9.023  18.432   5.227 -0.1953  0.3507  0.1824
 6933W        W23780  15.716   3.506  10.204  0.1934  0.3665  0.3983
 6934W        W23781   4.280  12.038  11.821  0.1978  0.0768 -0.1785
 6935W        W23782  14.935  15.436   3.631  0.1008 -0.0194  0.0257
 6936W        W23783  10.515   5.038  11.228 -0.1539 -0.2905  0.1516
 6937W        W23784   7.734  11.838   3.112 -0.0782  0.3438  0.0893
 6938W        W23785   9.125   1.606   0.685 -0.1401 -0.3123  0.1219
 6939W        W23786   1.897   6.943  12.867 -0.0558 -0.4925  0.0014
 6940W        W23787  11.976   7.393   3.458 -0.0838 -0.0236 -0.1622
 6941W        W23788  10.285   9.286   1.512 -0.0694 -0.0412 -0.1775
 6942W        W23789   1.367  16.860   3.660 -0.2075 -0.3614  0.0829
 6943W        W23790  16.570  11.592   0.747 -0.1497  0.1966 -0.2319
 6944W        W23791  11.377   8.025   2.654 -0.3656 -0.1679 -0.0931
 6945W        W23792  17.110  16.789  12.967  0.1120 -0.3571 -0.0925
 6946W        W23793   2.768  14.467  14.864  0.1848 -0.1368  0.4182
 6947W        W23794   2.296   2.187   1.560  0.2306  0.0504 -0.3215
 6948W        W23795   0.337  14.953   5.898  0.1028 -0.2050  0.0223
 6949W        W23796   6.695   0.492  13.891  0.1789 -0.0911  0.1647
 6950W        W23797   9.057   3.831   0.227 -0.0199  0.1777  0.0746
 6951W        W23798  10.043   1.093   1.595  0.0684 -0.1751  0.2122
 6952W        W23799   6.195   3.330   4.135  0.0804  0.0559 -0.0160
 6953W        W23800   4.653   1.032   3.975  0.0331  0.4405  0.1119
 6954W        W23801   7.666  13.281  11.786 -0.2318 -0.0549 -0.0313
 6955W        W23802  16.431   5.810   3.230 -0.1471  0.1307 -0.0721
 6956W        W23803  11.839   7.039   3.180 -0.3217 -0.1184 -0.0453
 6957W        W23804   0.321   0.188  13.774  0.0035  0.0305 -0.3438
 6958W        W23805   5.669   8.932   0.636  0.1822  0.2425  0.1214
 6959W        W23806   8.303   0.949  15.308 -0.1614  0.2265  0.1535
 6960W        W23807  14.267   4.172   4.488 -0.0676  0.0508 -0.0308
 6961W        W23808   5.178  14.789  14.952  0.1770 -0.0412 -0.0310
 6962W        W23809   9.885  16.476   0.025  0.1798 -0.1592 -0.0597
 6963W        W23810  15.673   6.315  15.325 -0.2600  0.1150  0.0395
 6964W        W23811  13.487   9.227  15.648 -0.2260  0.0083  0.0452
 6965W        W23812   3.727   9.912  13.760  0.0979  0.2037  0.0694
 6966W        W23813   6.184  10.380   3.464  0.0415 -0.1907 -0.3820
 6967W        W23814   3.113   6.807  15.811  0.0148  0.0210 -0.3822
 6968W        W23815   2.883  13.448  15.187 -0.0188 -0.0631  0.0696
 6969W        W23816   2.914   1.531  13.631  0.2188 -0.5037 -0.0463
 6970W        W23817   1.968  18.036   1.169  0.0926  0.2986 -0.0955
 6971W        W23818   1.449   2.173   1.061  0.1215 -0.2356 -0.1916
 6972W        W23819  12.649  16.020  12.898 -0.0286  0.2766  0.4048
 6973W        W23820   7.763  12.207   4.924 -0.0499  0.1605 -0.1911
 6974W        W23821   3.184   7.458   0.812  0.1094  0.2398 -0.4064
 6975W        W23822   4.192  13.191   3.632  0.1342  0.0924  0.2611
 6976W        W23823   1.296   9.362  15.440 -0.0924  0.1512  0.0034
 6977W        W23824   6.793   8.595   4.200  0.1105 -0.1291  0.0570
 6978W        W23825   4.354   4.071  15.783  0.3223 -0.2212  0.0673
 6979W        W23826  17.989  15.965  11.470 -0.0588  0.1118  0.0720
 6980W        W23827  15.944   7.130  13.760  0.2650  0.0182 -0.2214
 6981W        W23828  13.188   9.149  13.519 -0.1867  0.6893 -0.1250
 6982W        W23829   8.774   2.071   4.476  0.0604 -0.1500  0.2714
 6983W        W23830   0.176  10.454   3.615 -0.3045 -0.1243 -0.0101
 6984W        W23831   5.933  17.015   1.107  0.0764 -0.1791  0.0693
 6985W        W23832   7.723   7.519   1.325  0.1780 -0.2693 -0.1460
 6986W        W23833   5.090  17.092  13.850 -0.0674  0.0434  0.2931
 6987W        W23834  11.987   1.758   1.196 -0.1377  0.0548  0.1626
 6988W        W23835   6.492   5.753   1.948 -0.0054  0.1130  0.1142
 6989W        W23836   9.052  15.122   5.703 -0.0418 -0.0186  0.0122
 6990W        W23837  12.563  16.542   4.082  0.3475  0.1619  0.0393
 6991W        W23838   8.191   8.944   0.546 -0.0156  0.2698  0.0709
 6992W        W23839   9.266  14.432  15.126  0.2046  0.1231  0.0179
 6993W        W23840  18.224   6.165   3.631 -0.0881 -0.1199 -0.3239
 6994W        W23841  15.329  14.270   3.869 -0.0756  0.0712  0.0082
 6995W        W23842   2.364   9.463  13.877 -0.1331  0.2343  0.2176
 6996W        W23843  12.640   9.782   1.334  0.0575 -0.0697  0.0958
 6997W        W23844  11.912  12.103  11.168 -0.1119 -0.1411  0.0863
 6998W        W23845   2.099  17.990   4.846  0.0797  0.0778  0.0103
 6999W        W23846   7.766  12.266  14.702  0.1509 -0.1529  0.2079
 7000W        W23847  13.611   2.466  12.441  0.1834 -0.1418 -0.0225
 7001W        W23848   1.121   9.142   1.511  0.0016 -0.1302  0.0024
 7002W        W23849  17.962  11.907   1.583 -0.0084  0.0693 -0.0012
 7003W        W23850   3.991   4.663  11.869  0.0191 -0.0209 -0.0349
 7004W        W23851  13.721   5.330   5.788 -0.0841  0.4247 -0.0587
 7005W        W23852   0.429  17.274   3.705  0.1862  0.2560  0.0315
 7006W        W23853  15.318  18.386   1.081 -0.1673  0.1626  0.2787
 7007W        W23854  11.372   0.711  11.859  0.0136 -0.2143  0.2737
 7008W        W23855   1.435  16.550   2.296 -0.3068  0.0667  0.0459
 7009W        W23856   3.853   8.109  13.111 -0.1780 -0.0050 -0.0115
 7010W        W23857   6.158  18.394  15.854 -0.2899  0.0446 -0.0726
 7011W        W23858   0.254   4.074  15.627  0.2659 -0.0674 -0.1155
 7012W        W23859  15.702  11.224  14.785  0.0186  0.2351 -0.2860
 7013W        W23860  17.854  10.210  11.425  0.0462 -0.2673 -0.2031
 7014W        W23861   9.842   8.230  13.460 -0.2466  0.2833  0.1371
 7015W        W23862   6.978   1.702  14.681  0.2035  0.0071  0.0226
 7016W        W23863  13.487   7.806  12.453  0.0275  0.2932 -0.3163
 7017W        W23864   9.310   3.963   0.612  0.1884 -0.1511 -0.0462
 7018W        W23865   3.134   2.383   4.398 -0.0357  0.0628  0.2841
 7019W        W23866   6.437   8.646  11.063 -0.4386 -0.0290 -0.0663
 7020W        W23867   1.481   4.482  12.426  0.1513  0.2246 -0.0884
 7021W        W23868   1.395  12.398   2.081  0.1095 -0.0680  0.1319
 7022W        W23869   2.917  10.600  13.093  0.2166  0.0908 -0.1122
 7023W        W23870  11.023   8.775  12.102 -0.1663  0.2144 -0.0960
 7024W        W23871  13.479  18.144  11.731 -0.1193  0.1267  0.1984
 7025W        W23872   5.195   3.421  13.654 -0.1564  0.2125  0.1890
 7026W        W23873   8.556   7.022   2.635 -0.3582 -0.2301 -0.1644
 7027W        W23874   5.980  12.018   0.492 -0.0845  0.3305  0.1755
 7028W        W23875   2.712  10.166   2.956 -0.0707  0.3010 -0.3042
 7029W        W23876  14.896   6.824  12.821 -0.1926  0.1701  0.0613
 7030W        W23877   7.992  14.809   3.122 -0.1250  0.0379 -0.2522
 7031W        W23878  17.257   2.775  13.918 -0.4266 -0.0634  0.0214
 7032W        W23879   3.057  18.313   5.162  0.0752 -0.4016 -0.2769
 7033W        W23880   4.295   8.019   3.653  0.0384  0.1310  0.1983
 7034W        W23881  12.019   4.085  11.844 -0.0262  0.2652 -0.1679
 7035W        W23882  18.191   6.804   4.515 -0.1672  0.3422 -0.1501
 7036W        W23883  12.529  10.606  15.880  0.0074 -0.2128 -0.1607
 7037W        W23884   5.946   6.150   2.684  0.5004 -0.0901  0.1132
 7038W        W23885  16.919   5.211  13.427  0.1565 -0.2402 -0.0296
 7039W        W23886   3.921  17.603  14.603 -0.2220 -0.0202  0.1331
 7040W        W23887   7.581   9.919   0.833  0.3474  0.0413  0.4784
 7041W        W23888   3.121   7.970  11.866 -0.3214 -0.0979  0.2875
 7042W        W23889  13.311  12.321   4.576 -0.1538 -0.0025 -0.0492
 7043W        W23890   0.558  13.094   4.504 -0.0175  0.0681 -0.0551
 7044W        W23891   1.735   0.365   5.058  0.0103 -0.1713 -0.0970
 7045W        W23892   6.162  16.064  15.205 -0.1141 -0.1207  0.0080
 7046W        W23893  15.893  17.820  15.724  0.0004  0.0870 -0.1702
 7047W        W23894   0.743  17.977   4.795 -0.0035 -0.1907  0.3137
 7048W        W23895   3.922   3.938   4.949  0.1421  0.3230  0.2100
 7049W        W23896  13.558   4.562   0.762  0.2791  0.1599  0.0892
 7050W        W23897  15.610   7.311   4.000 -0.0384  0.3841 -0.2402
 7051W        W23898  16.151   5.369  13.910  0.1103  0.3919  0.0616
 7052W        W23899  17.769  13.251  12.993  0.0707 -0.0669 -0.2064
 7053W        W23900   4.957  17.991  14.346  0.0329  0.1176 -0.3068
 7054W        W23901  11.660  11.687  11.151 -0.3256 -0.0856  0.1758
 7055W        W23902  14.182  13.175  13.745 -0.1078  0.1545  0.0882
 7056W        W23903   8.909   0.896  12.037  0.1262  0.2942 -0.0008
 7057W        W23904  18.344   6.572  11.815  0.0973  0.0079  0.1094
 7058W        W23905  15.498  17.223   4.697  0.1975 -0.1511  0.0021
 7059W        W23906  17.203  10.337   0.310 -0.0923  0.0759 -0.1638
 7060W        W23907   8.208  12.045  13.833  0.0523  0.2316 -0.0345
 7061W        W23908  17.186  17.310   4.681 -0.0757 -0.0076 -0.0340
 7062W        W23909  15.879  17.564   2.442 -0.0287  0.0865  0.0844
 7063W        W23910   7.049  15.124  12.144 -0.1053 -0.0295  0.1302
 7064W        W23911   7.930  16.781   2.946  0.0167 -0.1498 -0.0883
 7065W        W23912  16.231   4.998   5.382 -0.0140  0.1759 -0.0026
 7066W        W23913  17.917  10.516   4.053  0.1126 -0.0185 -0.2710
 7067W        W23914   4.545  16.537  15.220 -0.1136  0.0853  0.0321
 7068W        W23915  14.299  10.487  14.228 -0.1105  0.0176  0.2910
 7069W        W23916  11.032  10.046   1.727 -0.1552 -0.0864 -0.1438
 7070W        W23917  13.153   9.231  12.138  0.1952  0.0972 -0.2811
 7071W        W23918   5.077  15.968  10.497  0.0614 -0.0146  0.1530
 7072W        W23919   5.367  13.434   1.950 -0.0539  0.1508  0.3094
 7073W        W23920  14.522   4.336   1.459  0.3850 -0.0812 -0.1099
 7074W        W23921   9.684  13.574  13.269 -0.0092 -0.2595 -0.1946
 7075W        W23922  15.467   1.489   2.661 -0.1115  0.0221 -0.0981
 7076W        W23923  15.517  12.513   3.113 -0.2963 -0.0305 -0.0253
 7077W        W23924   6.934  17.481  14.930  0.4442 -0.2733 -0.1632
 7078W        W23925  10.419   6.999  11.901 -0.0014  0.3159  0.0488
 7079W        W23926  13.216   7.488  13.256 -0.0679  0.3547  0.0425
 7080W        W23927   7.041  13.839   4.956 -0.0097 -0.1351  0.1404
 7081W        W23928  16.887  11.212  15.241 -0.1130  0.1646 -0.0376
 7082W        W23929   3.045  14.159   0.007  0.1357 -0.2676 -0.2540
 7083W        W23930  14.016   3.793   1.763  0.1942 -0.1040 -0.1054
 7084W        W23931  18.345  17.360   1.772  0.0674 -0.1058  0.1831
 7085W        W23932   7.238   9.410  10.170  0.3047 -0.0810  0.0228
 7086W        W23933  14.845   3.697  13.204  0.2222 -0.1076 -0.0572
 7087W        W23934  11.222  18.268   1.681  0.2800  0.1163  0.0765
 7088W        W23935   8.059   3.874   4.738 -0.4891 -0.0681  0.3034
 7089W        W23936  17.900   3.056  13.878  0.0630 -0.2050  0.1987
 7090W        W23937   9.942  15.990   0.050  0.1762  0.0914  0.0653
 7091W        W23938   1.024   4.648   0.278 -0.4093  0.1016 -0.0882
 7092W        W23939   2.018   8.064  12.774  0.4846  0.0319  0.1672
 7093W        W23940   6.196  13.550  11.936 -0.1209 -0.0506  0.0732
 7094W        W23941  16.931  10.924   2.433  0.0994  0.0816 -0.0810
 7095W        W23942   8.805   1.067   4.705 -0.1300 -0.1100 -0.1739
 7096W        W23943  16.916   9.312   4.994 -0.2636 -0.2667 -0.1005
 7097W        W23944  12.773  11.982  15.853  0.0486  0.2006  0.1164
 7098W        W23945   6.416   1.301   4.787 -0.0467 -0.0013  0.2417
 7099W        W23946  11.857  17.509  13.624 -0.0225  0.0163  0.2986
 7100W        W23947   4.703   4.368   1.501 -0.0582  0.1756 -0.2956
 7101W        W23948   2.007  17.134  15.760 -0.1465  0.1172 -0.0405
 7102W        W23949  15.242  16.346  14.200 -0.0450 -0.0014 -0.1320
 7103W        W23950   6.714  12.835  12.607  0.0773  0.1898  0.1240
 7104W        W23951  18.188   3.399   0.284  0.2614  0.0161 -0.1662
 7105W        W23952  14.160   1.939  13.120 -0.3425 -0.0647 -0.1750
 7106W        W23953   6.371   9.043  15.713 -0.3229  0.3629 -0.4087
 7107W        W23954   3.503   0.049   5.103 -0.0388 -0.2556  0.0567
 7108W        W23955   5.478  12.644  11.978  0.0478  0.0792 -0.1298
 7109W        W23956   0.890   0.284   1.619 -0.1146  0.2108 -0.2289
 7110W        W23957   4.057  17.224  12.806  0.2821 -0.0483 -0.3011
 7111W        W23958   7.868   1.618  13.659 -0.2252  0.0808  0.0508
 7112W        W23959   8.693  13.149  14.105 -0.3132  0.0071  0.3120
 7113W        W23960   3.436  11.235  12.689  0.1918  0.0556 -0.0946
 7114W        W23961  17.997   2.852   3.547  0.0414 -0.2407  0.2622
 7115W        W23962  11.380  11.505   1.418  0.1300 -0.1972 -0.1429
 7116W        W23963   4.664  17.569  13.907  0.1775 -0.3664 -0.2786
 7117W        W23964  17.845   0.531  12.155 -0.1883 -0.2229 -0.1181
 7118W        W23965  10.837  14.368  14.893  0.0962 -0.3171  0.0367
 7119W        W23966  17.181   1.633   0.565 -0.0075 -0.2862 -0.1655
 7120W        W23967   0.712  17.193   1.353  0.0588 -0.2538  0.2180
 7121W        W23968   3.389  15.653   3.073 -0.2781  0.0258  0.3052
 7122W        W23969  11.801  13.591   1.887 -0.0865 -0.1592 -0.2173
 7123W        W23970  12.649  10.044   2.297 -0.1690 -0.2462  0.4010
 7124W        W23971  11.706   8.329   2.971  0.3906  0.0573  0.0873
 7125W        W23972   8.328   5.389   4.221  0.0654 -0.1294 -0.2791
 7126W        W23973  14.011   8.955  12.066  0.1644 -0.2198 -0.1088
 7127W        W23974  17.452   6.885  12.387  0.1753  0.0352  0.2715
 7128W        W23975   5.619   3.278  13.931 -0.2285  0.0813 -0.1292
 7129W        W23976   9.441   9.118   0.008 -0.0083  0.0745  0.1739
 7130W        W23977   3.711   8.850   5.782 -0.1300 -0.0559 -0.3791
 7131W        W23978   7.798   4.279   5.781 -0.0570 -0.2775 -0.1744
 7132W        W23979   6.436  13.660  13.305 -0.2128  0.1810 -0.0561
 7133W        W23980   4.206   6.023  14.473  0.1149 -0.1642 -0.0416
 7134W        W23981   3.575   0.371   5.509 -0.1835 -0.1465  0.1464
 7135W        W23982  12.044  11.117   3.857  0.2562 -0.1620  0.0058
 7136W        W23983   5.575  15.329  12.691 -0.1066  0.0572 -0.0298
 7137W        W23984  13.008   7.812   9.545 -0.0159  0.3278  0.0358
 7138W        W23985   5.699  17.016   4.897  0.0356 -0.0057 -0.3864
 7139W        W23986  14.172  12.271  10.638 -0.2055 -0.0271 -0.2191
 7140W        W23987  12.228  14.462  14.388 -0.0366 -0.3234  0.0125
 7141W        W23988   3.155   9.300   2.758  0.0958 -0.0580  0.0519
 7142W        W23989   7.952  15.282  15.088  0.0155 -0.0939  0.2141
 7143W        W23990  18.503  17.142  12.656  0.1819  0.0245 -0.2938
 7144W        W23991  12.441   5.815   4.563 -0.3530  0.3929 -0.3112
 7145W        W23992   9.320   7.260  13.670 -0.2681 -0.1069  0.1187
 7146W        W23993   7.964   8.179  12.387  0.0793  0.1517 -0.3548
 7147W        W23994   8.370   2.310  14.485 -0.1353  0.1822 -0.0833
 7148W        W23995  13.930  11.738   1.087  0.1479  0.0670 -0.1963
 7149W        W23996  17.841   3.230   3.181  0.1669 -0.2020  0.1742
 7150W        W23997   2.651   0.603  11.644  0.2642 -0.1806 -0.1194
 7151W        W23998  10.558   6.960   3.451 -0.0858  0.4357 -0.0477
 7152W        W23999   4.643   8.076  12.683  0.0263 -0.1034 -0.1385
 7153W        W24000  11.701  18.017   3.411  0.1811  0.0522  0.1338
 7154W        W24001  10.082  13.221   3.343  0.0219 -0.2048  0.2341
 7155W        W24002  12.567   1.105   2.452 -0.2564 -0.1529 -0.0200
 7156W        W24003  10.828  12.691  11.672  0.1591 -0.0368  0.0913
 7157W        W24004  11.175   2.657  14.786  0.1964 -0.0037 -0.2553
 7158W        W24005  17.618   0.293   1.812  0.0062 -0.1779 -0.0988
 7159W        W24006   3.184   5.663  12.333  0.0315  0.2768  0.1175
 7160W        W24007   1.688  14.573  13.735  0.1934  0.0968  0.2812
 7161W        W24008   4.379  12.957   2.741 -0.2943 -0.1648 -0.0013
 7162W        W24009  15.403   1.680   1.462  0.2096  0.0254 -0.3437
 7163W        W24010  10.388   1.739   0.064  0.2246  0.0965 -0.0688
 7164W        W24011   3.485  16.254   4.703  0.1070  0.1912  0.0906
 7165W        W24012   0.118  14.329   1.124  0.2006  0.0345  0.0696
 7166W        W24013   9.408   3.010  15.444 -0.5498 -0.3169  0.0565
 7167W        W24014  13.261  14.771  12.601  0.0099  0.1471 -0.0127
 7168W        W24015   5.320  15.579   4.724  0.1017 -0.2708  0.2125
 7169W        W24016   8.917  12.169  12.962  0.1698 -0.1491  0.0259
 7170W        W24017  14.291   7.759  14.314 -0.0287 -0.1587  0.0276
 7171W        W24018   8.919   0.392  14.941  0.2293  0.0557  0.0252
 7172W        W24019   4.855  17.320  11.497  0.0048 -0.0303  0.0272
 7173W        W24020   3.895   2.153  15.764 -0.1463  0.0301 -0.1444
 7174W        W24021  12.001  13.818   0.413  0.2185 -0.0801  0.1675
 7175W        W24022   9.595  14.537   3.678 -0.1005 -0.1489 -0.0853
 7176W        W24023  11.046  16.427  10.807  0.1408  0.0042 -0.2884
 7177W        W24024  11.591   6.497   2.925 -0.2007  0.0911 -0.0386
 7178W        W24025   9.598  15.018  11.291 -0.0370 -0.1375 -0.2796
 7179W        W24026  14.747   8.538   4.312 -0.1941 -0.0555 -0.2770
 7180W        W24027   0.749  16.007  14.893  0.2656 -0.2805 -0.2525
 7181W        W24028  13.900  18.425   2.122  0.0359 -0.2365 -0.3435
 7182W        W24029   8.927  15.796  14.954  0.1694 -0.2338  0.1928
 7183W        W24030   7.116   3.910   4.329  0.1286 -0.2736 -0.0422
 7184W        W24031   8.822   2.477  15.741  0.1695  0.3055 -0.0881
 7185W        W24032  17.603  15.281   3.459 -0.2892  0.0012  0.1202
 7186W        W24033  16.574   4.561   4.481 -0.0149  0.0625  0.0225
 7187W        W24034   3.727   7.491   2.985 -0.0841 -0.0327  0.1657
 7188W        W24035   8.101  11.092  13.622  0.2187 -0.0294  0.0216
 7189W        W24036  11.120   8.213  15.750  0.2506  0.1169  0.0918
 7190W        W24037   5.549   8.805   5.355  0.1900  0.0310 -0.1322
 7191W        W24038  11.777  11.893  14.015  0.0990  0.5036 -0.0334
 7192W        W24039  13.035  13.306   5.253 -0.1662 -0.1149  0.0476
 7193W        W24040   2.044   4.959   3.609 -0.2592  0.3055  0.0923
 7194W        W24041  12.807   2.312   1.004  0.0304 -0.3606 -0.4068
 7195W        W24042  10.432  14.319   4.979 -0.0905  0.0061  0.0079
 7196W        W24043   5.644   7.873  13.481 -0.0435  0.0818  0.3454
 7197W        W24044   7.207   0.545   4.055 -0.1315  0.2258 -0.0703
 7198W        W24045   3.434   3.708  15.751  0.1358 -0.1823 -0.1272
 7199W        W24046  12.434  10.719  12.734  0.3053  0.1430  0.0667
 7200W        W24047   7.668  10.132   3.403 -0.2300 -0.1471  0.0830
 7201W        W24048   0.904  12.216   6.202 -0.0520 -0.1828 -0.0568
 7202W        W24049  12.785  18.330   2.561  0.0459  0.0858 -0.0889
 7203W        W24050   4.705   3.880   1.555  0.0847 -0.1653  0.0628
 7204W        W24051  15.824   8.307  12.819  0.2187 -0.1450 -0.3730
 7205W        W24052  13.797   9.015  13.156  0.0299  0.1918 -0.0284
 7206W        W24053  16.516   9.090  12.086 -0.1237  0.0961  0.3613
 7207W        W24054   1.561   6.700  14.567  0.1143  0.1080  0.1005
 7208W        W24055  14.814  12.585  13.604 -0.0549  0.1291  0.1832
 7209W        W24056  16.531   0.468   4.814  0.1781 -0.0835 -0.0738
 7210W        W24057   7.470   3.861   0.605 -0.0583 -0.1859 -0.2383
 7211W        W24058   2.762   7.623   4.370  0.2246 -0.1698 -0.0412
 7212W        W24059   5.986  16.842   2.379 -0.0322  0.0663 -0.1835
 7213W        W24060  11.448   4.794  14.099 -0.1530  0.0979  0.1238
 7214W        W24061  13.946   7.475   5.102  0.0848  0.1636  0.0034
 7215W        W24062  13.370   4.735  12.923 -0.3658  0.1055 -0.0461
 7216W        W24063  13.097   1.500  14.809  0.5852 -0.1019  0.0085
 7217W        W24064   9.612   2.364   3.354 -0.0459  0.1304  0.0544
 7218W        W24065   2.939   9.426  14.651 -0.3678 -0.2213 -0.1901
 7219W        W24066   7.596   8.635   5.494  0.0572 -0.0626  0.0125
 7220W        W24067   3.867  16.194  11.784  0.0371 -0.0003  0.0856
 7221W        W24068   6.999   1.010  15.060 -0.1332  0.0097 -0.0453
 7222W        W24069   0.757   6.470  14.167  0.1988  0.1024  0.1443
 7223W        W24070   6.897  10.952  15.604 -0.0726  0.0767 -0.2916
 7224W        W24071  17.484  15.142  13.412 -0.0148 -0.0426  0.1807
 7225W        W24072   2.012  10.861  11.657 -0.3950  0.2725  0.1727
 7226W        W24073  11.061   5.436   0.859 -0.1430  0.2745  0.2516
 7227W        W24074   5.699   9.999   0.566  0.0356 -0.0546  0.0253
 7228W        W24075  14.721   6.737   1.725  0.0643  0.0810 -0.2412
 7229W        W24076   3.551  10.117  12.077 -0.2778  0.1175  0.2748
 7230W        W24077   7.254   3.563   0.165 -0.2001  0.0030  0.1091
 7231W        W24078   0.933  13.189   5.676 -0.2687 -0.0329  0.1136
 7232W        W24079   9.382  12.517  13.179 -0.2169  0.2502  0.1941
 7233W        W24080  10.901  12.484   4.091  0.0130 -0.0883  0.1000
 7234W        W24081   3.814   9.687  14.850  0.1104  0.2714  0.1829
 7235W        W24082  14.054  13.489   1.832 -0.0732  0.0569 -0.1254
 7236W        W24083  15.155   5.756   2.660  0.1313 -0.0768  0.0438
 7237W        W24084   7.244   3.410  10.518 -0.2844 -0.0960 -0.1061
 7238W        W24085  13.134   6.717   1.023 -0.3994 -0.1553  0.1110
 7239W        W24086   7.889   3.986  12.006 -0.0638 -0.0808 -0.3548
 7240W        W24087   3.700   9.792  12.484 -0.0780  0.3018  0.3231
 7241W        W24088   0.048   3.938   4.028  0.0429  0.0028 -0.2058
 7242W        W24089  11.846  10.402  15.092  0.2413 -0.1385 -0.3612
 7243W        W24090  13.727  14.075   3.525 -0.0277 -0.2010 -0.3896
 7244W        W24091   7.375  13.061   5.989  0.0422  0.0280  0.0614
 7245W        W24092  18.196   3.726  10.010  0.0962  0.1984  0.4054
 7246W        W24093   8.451   5.514  12.632 -0.0875 -0.2028  0.1847
 7247W        W24094  14.323   1.526  15.095  0.5051  0.1281 -0.1097
 7248W        W24095  15.421  17.394   1.947  0.0503 -0.1732 -0.2657
 7249W        W24096   6.450  18.035  14.367  0.1689 -0.2168 -0.1616
 7250W        W24097   8.679   8.301  12.390 -0.0452  0.1557 -0.1462
 7251W        W24098   7.572  15.633  14.900  0.0149 -0.1928  0.2445
 7252W        W24099   0.951  15.845   5.352  0.1005 -0.3180  0.1986
 7253W        W24100  17.563  16.507   0.112 -0.0615 -0.1785 -0.1060
 7254W        W24101   3.562   4.653   1.893  0.2358 -0.1512 -0.1857
 7255W        W24102  16.020  10.244  11.475 -0.1327 -0.1416 -0.1587
 7256W        W24103   2.276   9.674  14.365 -0.0286 -0.2150 -0.2917
 7257W        W24104   7.847   4.419  14.056  0.2628  0.1294 -0.2715
 7258W        W24105   8.104   3.393  14.987  0.0925  0.4942  0.0317
 7259W        W24106   7.099  18.168  15.829  0.1483 -0.1507 -0.1030
 7260W        W24107   0.555  11.206   1.509  0.0093 -0.3611  0.1038
 7261W        W24108  13.576   3.768   3.550 -0.2929  0.1150 -0.0174
 7262W        W24109  12.263   9.520   4.803 -0.2267  0.0480 -0.1525
 7263W        W24110   7.209   2.169  13.865 -0.0315  0.0531  0.0971
 7264W        W24111  16.906   0.680  11.916  0.0447  0.3587 -0.1325
 7265W        W24112  10.689   7.114  12.948 -0.1664 -0.0610 -0.0378
 7266W        W24113   1.915   1.678   4.119  0.0344  0.0082  0.2169
 7267W        W24114   4.930   4.662  14.651  0.0634 -0.1138  0.0781
 7268W        W24115   6.313   4.698   1.634 -0.2198  0.0026  0.0914
 7269W        W24116  12.577   3.799   2.433 -0.1339 -0.2067 -0.0863
 7270W        W24117   8.827   2.676   0.280  0.2460  0.2470  0.2269
 7271W        W24118   6.641  11.776  15.133 -0.0224  0.3158  0.1229
 7272W        W24119  11.636   8.962   1.552  0.0306 -0.1508 -0.0644
 7273W        W24120   3.312   6.108  11.146  0.1717  0.1541  0.0922
 7274W        W24121  18.032   4.253  13.143  0.1474  0.1774  0.0244
 7275W        W24122   5.963  14.818   4.669 -0.1318  0.1366  0.2290
 7276W        W24123   9.019   5.640  10.855  0.1003 -0.0012  0.0434
 7277W        W24124  13.080  10.064   1.154 -0.0111  0.4680 -0.2252
 7278W        W24125   4.877  17.231   1.156 -0.1701 -0.1666  0.0102
 7279W        W24126  14.661   8.982  10.105 -0.2160 -0.0512  0.3584
 7280W        W24127   1.137  15.722  11.279  0.3610  0.1703 -0.0252
 7281W        W24128   4.401   2.704   9.739 -0.0116  0.1571  0.1385
 7282W        W24129  15.433  17.092   5.734 -0.3172 -0.0695  0.1358
 7283W        W24130   0.886  15.015  13.251 -0.0146 -0.2083  0.3283
 7284W        W24131  18.026   8.150   3.257  0.2896  0.1727  0.1867
 7285W        W24132   5.602  16.982   0.719  0.1081  0.2209 -0.0360
 7286W        W24133  13.289  15.316  11.554 -0.0569 -0.0284  0.2380
 7287W        W24134  10.786  16.717   4.843 -0.2303  0.0666 -0.0398
 7288W        W24135  14.326  15.452  13.688  0.0125 -0.0591 -0.0855
 7289W        W24136  11.553   4.367   4.021 -0.3295  0.1109 -0.0626
 7290W        W24137   3.144  13.228  12.757 -0.0053  0.0983 -0.2202
 7291W        W24138   4.752  17.523   3.281 -0.0896 -0.3034 -0.0351
 7292W        W24139  15.158   3.452   4.021 -0.1562  0.3555  0.2470
 7293W        W24140   3.571  12.411   1.019  0.0375 -0.0747  0.2292
 7294W        W24141   5.788  14.145  12.064  0.1121 -0.2015  0.0577
 7295W        W24142  15.156   6.642   2.567  0.4047 -0.5072  0.0059
 7296W        W24143  14.833  14.257  14.854 -0.0336  0.0126 -0.0972
 7297W        W24144  14.277  16.265  13.470 -0.1138  0.0277 -0.2071
 7298W        W24145   3.520   6.544  11.288  0.2459  0.0758 -0.0598
 7299W        W24146  17.720   5.842   6.022 -0.1955 -0.0149  0.2880
 7300W        W24147  12.790  13.489  14.345 -0.1021  0.0042 -0.2413
 7301W        W24148  14.795   9.273  13.456 -0.0735 -0.2024  0.1259
 7302W        W24149   8.842   6.078   4.169  0.1248  0.1748 -0.0391
 7303W        W24150   4.657   9.135   1.991  0.0993 -0.1455  0.1442
 7304W        W24151  11.037   5.259  12.475  0.0196 -0.2410  0.0974
 7305W        W24152  15.665   3.895  10.489 -0.3715  0.2068 -0.0127
 7306W        W24153   2.627  11.339   0.981  0.0851  0.2809  0.1147
 7307W        W24154   1.244   2.870   2.629  0.0799  0.0517  0.0815
 7308W        W24155   5.653   9.754  15.828 -0.1690  0.0830  0.0579
 7309W        W24156   4.592   9.197  15.323 -0.0408 -0.3415  0.1151
 7310W        W24157  15.917  12.672  15.407 -0.2091  0.2387 -0.3305
 7311W        W24158   5.496  14.337  13.489 -0.1121  0.0864  0.1398
 7312W        W24159   1.460   1.402  15.016 -0.0643 -0.1102 -0.0391
 7313W        W24160   1.264  11.103   2.622 -0.0649 -0.0642  0.0140
 7314W        W24161  15.103   1.903  14.838 -0.1298 -0.1532  0.2243
 7315W        W24162   0.031   1.657   1.760  0.0155 -0.0970 -0.1945
 7316W        W24163   7.962  11.338   3.020  0.1906 -0.1675 -0.0522
 7317W        W24164  15.056  18.239  14.652  0.3032  0.3140 -0.0821
 7318W        W24165   4.384  16.625  10.511 -0.0970  0.1881  0.0470
 7319W        W24166   4.513  14.264  15.660 -0.0453  0.1015 -0.0575
 7320W        W24167   4.493   8.009   2.147  0.0950  0.0059 -0.1490
 7321W        W24168  11.846   3.020   4.636  0.2256 -0.0251  0.1729
 7322W        W24169   5.625   1.631   4.572 -0.0937  0.2584  0.2515
 7323W        W24170   6.416  18.009  15.589 -0.3531  0.1080  0.0770
 7324W        W24171   3.032  17.264   2.421  0.1143 -0.2062  0.1472
 7325W        W24172   3.984   3.965   2.286  0.0108  0.1999 -0.0291
 7326W        W24173   1.867  11.649  11.663  0.2066 -0.2626  0.1619
 7327W        W24174  15.581   0.610   2.059 -0.0231 -0.0542 -0.0664
 7328W        W24175  15.511  15.356  14.212 -0.2036  0.0904  0.2642
 7329W        W24176   3.789   1.052   0.432  0.1092 -0.0924 -0.3633
 7330W        W24177   3.544   2.644   2.013 -0.1259  0.1229  0.0932
 7331W        W24178   3.614  15.829   5.003  0.0987 -0.0998 -0.0438
 7332W        W24179   5.140  10.436   3.344  0.3728 -0.2058 -0.4593
 7333W        W24180  10.777  13.762   1.904  0.1274  0.0386 -0.1423
 7334W        W24181  16.916  14.965  13.471 -0.0367 -0.3277 -0.0882
 7335W        W24182  11.815   7.430   4.381 -0.2126  0.1496  0.3290
 7336W        W24183  18.080   3.922  14.444 -0.0170 -0.4373 -0.2385
 7337W        W24184   0.402   1.166  12.860  0.0686  0.1007 -0.0947
 7338W        W24185   4.799  13.183   2.780 -0.0342 -0.0178  0.1189
 7339W        W24186   1.986  11.255  15.756 -0.0266 -0.0911 -0.2199
 7340W        W24187   8.294  13.733   0.833  0.2736  0.1900  0.1143
 7341W        W24188  13.777   7.927  11.695  0.0018  0.0819 -0.1346
 7342W        W24189   2.576   2.812   2.511  0.2815  0.0821  0.1038
 7343W        W24190  14.729   4.675   0.153 -0.0578 -0.0232 -0.0887
 7344W        W24191  10.930   5.628  12.094  0.0995 -0.1256 -0.0370
 7345W        W24192  17.966   9.147   2.624  0.2238  0.0106 -0.0446
 7346W        W24193  13.235   7.614  13.773  0.2546  0.0837  0.0216
 7347W        W24194   8.127   3.666  13.467  0.1909  0.1813  0.1720
 7348W        W24195  10.211   0.610  14.420  0.0330  0.1183 -0.0141
 7349W        W24196  15.837   0.969  13.695 -0.0983  0.0420 -0.1540
 7350W        W24197  15.148   2.210  14.019 -0.2448  0.0837  0.3805
 7351W        W24198  16.038   6.604  15.081 -0.0712 -0.2066 -0.0222
 7352W        W24199  14.697   3.573   4.102 -0.0618  0.0812  0.3229
 7353W        W24200   1.090  12.464  14.893  0.1290 -0.1283  0.0180
 7354W        W24201   8.646  10.282  12.130  0.2404  0.1447  0.1422
 7355W        W24202   4.426   7.532  14.863  0.0933  0.0763 -0.2137
 7356W        W24203   7.068  17.766   5.704 -0.1075 -0.0126  0.0751
 7357W        W24204  17.560  17.384   4.351  0.1314 -0.3474 -0.2074
 7358W        W24205   9.029   5.192   1.964 -0.1154 -0.2831  0.4218
 7359W        W24206   8.242   6.524  11.397 -0.0333  0.0650 -0.0195
 7360W        W24207  14.380   1.377   5.278 -0.0527  0.0757  0.1320
 7361W        W24208  12.944   4.798   2.909  0.1045 -0.0987 -0.2145
 7362W        W24209   7.904   3.760  11.227  0.0824 -0.1119  0.0735
 7363W        W24210   2.404   0.468  12.927 -0.0159 -0.3580 -0.0881
 7364W        W24211  17.029  13.704  11.836  0.0114  0.1118 -0.0106
 7365W        W24212  16.417  15.695  14.038  0.3193 -0.2297 -0.1550
 7366W        W24213   0.508   3.712  15.797  0.0440  0.2080  0.1887
 7367W        W24214   8.283   2.703  12.988  0.2586  0.0936 -0.1799
 7368W        W24215  15.932  11.254   4.200  0.2604 -0.0361  0.1848
 7369W        W24216  18.412  10.009   3.906 -0.1222 -0.1281 -0.0773
 7370W        W24217   5.377  13.486  13.640 -0.2237 -0.1648 -0.0480
 7371W        W24218  10.935  11.233   5.393  0.3154  0.0625 -0.0377
 7372W        W24219  12.503   0.558  14.144  0.1359  0.0747  0.6028
 7373W        W24220   1.785   0.673  13.947 -0.2076 -0.2518  0.0993
 7374W        W24221   0.074   9.288   5.458  0.1292  0.2987 -0.1546
 7375W        W24222   4.650  15.249  10.372 -0.0426 -0.0230 -0.0016
 7376W        W24223   2.288   4.810   0.440 -0.0467 -0.1831  0.0223
 7377W        W24224   1.629   3.986   4.593 -0.2733  0.1822 -0.0825
 7378W        W24225   6.286   7.214  12.019  0.0834  0.2005 -0.0181
 7379W        W24226  18.340   5.428   2.129  0.4975  0.0200 -0.2296
 7380W        W24227  16.951  12.584  13.146  0.0937 -0.0943  0.1805
 7381W        W24228   8.997  16.955  11.348  0.2814 -0.1917 -0.1936
 7382W        W24229   9.398   3.126  11.433  0.2411 -0.3284  0.0417
 7383W        W24230   2.727  15.481   2.404  0.1599  0.2921 -0.0429
 7384W        W24231  12.747   2.656  13.474 -0.0802 -0.2596  0.0826
 7385W        W24232   5.799   8.124   1.351  0.1776  0.0841 -0.2627
 7386W        W24233  11.736  16.347  12.888  0.3087 -0.0705  0.0770
 7387W        W24234  11.592   8.927  14.827  0.2224  0.1710 -0.0248
 7388W        W24235  15.416   9.813  14.142 -0.1400 -0.3852  0.0544
 7389W        W24236   4.993   1.363   2.082  0.1257 -0.1573 -0.1545
 7390W        W24237   6.868  10.243   1.724  0.0780 -0.0033  0.0345
 7391W        W24238   2.907   8.577   0.688  0.1254 -0.2497  0.0005
 7392W        W24239   5.068   9.701  11.749  0.1315  0.2906 -0.0559
 7393W        W24240  16.566   7.096   1.889  0.1788  0.3295  0.1522
 7394W        W24241  12.186  14.829   1.340 -0.1690  0.0800 -0.1799
 7395W        W24242   4.420  14.390  12.707 -0.1234 -0.1348 -0.0445
 7396W        W24243   3.099  12.879  15.143  0.1076 -0.2121 -0.0667
 7397W        W24244   4.267   4.569  13.262  0.6443  0.0048  0.0207
 7398W        W24245  17.183   4.632  11.343 -0.1889  0.0148  0.0016
 7399W        W24246  14.669   8.378  12.841  0.1883 -0.2128 -0.0765
 7400W        W24247   1.294  13.239  11.329  0.0832 -0.2333  0.2001
 7401W        W24248   5.806   7.620   1.610  0.1203 -0.1590 -0.0038
 7402W        W24249   9.307  18.001   5.326  0.0895 -0.0970  0.0762
 7403W        W24250   3.649   7.590  13.959  0.1129 -0.3965 -0.3152
 7404W        W24251   0.809   0.894  12.662 -0.1190  0.0866 -0.0030
 7405W        W24252   1.928  16.456   2.053  0.0251  0.1433 -0.1484
 7406W        W24253   0.191   8.146   3.997 -0.0519 -0.0761 -0.0578
 7407W        W24254  12.186  16.326   4.375  0.1831  0.0526 -0.1109
 7408W        W24255  15.467  17.953   5.345 -0.0784  0.3112 -0.4468
 7409W        W24256  10.570   4.790   4.013  0.0344  0.2825 -0.2058
 7410W        W24257  11.869  16.158  11.296 -0.0447  0.1358  0.0160
 7411W        W24258  17.208  11.884  11.559 -0.0258 -0.5340  0.2947
 7412W        W24259   8.227   0.581  12.477 -0.0865 -0.1870  0.0384
 7413W        W24260   6.979  10.134  11.536 -0.0786 -0.1521 -0.1293
 7414W        W24261   8.056   9.713  13.369 -0.1430 -0.1021  0.0412
 7415W        W24262   6.882   0.477  11.288 -0.2093 -0.1976  0.2963
 7416W        W24263  16.321   0.668  11.745  0.1657 -0.0707 -0.1090
 7417W        W24264  10.450  12.925   0.580  0.2436 -0.3435  0.2078
 7418W        W24265   7.606   2.326   9.518 -0.3668 -0.0866  0.1355
 7419W        W24266   7.196   6.333   5.311  0.1975 -0.4181  0.0947
 7420W        W24267   2.589   5.254   0.562 -0.0523 -0.1287  0.1227
 7421W        W24268  14.901  17.539  15.055  0.2036  0.0223 -0.0178
 7422W        W24269  18.197   0.030  10.978 -0.1097 -0.1540 -0.0769
 7423W        W24270   7.800   5.250  15.672 -0.0746  0.0413  0.0214
 7424W        W24271  18.537  18.369   1.724  0.1946  0.1912  0.0303
 7425W        W24272   2.660   6.036  11.215  0.0380  0.1910  0.0410
 7426W        W24273  13.546   8.865   1.556 -0.1131 -0.3056  0.3603
 7427W        W24274  15.523   5.222  14.795  0.0603 -0.0604  0.4337
 7428W        W24275  13.480   5.276  14.609  0.0519  0.0620  0.0649
 7429W        W24276   0.958  14.298   2.230 -0.0169 -0.2574 -0.1312
 7430W        W24277   8.977  17.616   3.615  0.0055  0.0058 -0.1520
 7431W        W24278   2.054   2.974  12.961 -0.0322 -0.0012 -0.0834
 7432W        W24279  10.184   9.213  12.522 -0.4547  0.0798 -0.1361
 7433W        W24280  11.661   7.492   3.803 -0.2497  0.0129  0.0320
 7434W        W24281   4.779   8.245   2.989 -0.0922 -0.3659 -0.0871
 7435W        W24282  14.272  16.449   5.093  0.1945 -0.0303 -0.1654
 7436W        W24283   9.174  10.482   0.853 -0.0796  0.0984 -0.2320
 7437W        W24284   9.054   8.932   4.298  0.2573  0.1828  0.1757
 7438W        W24285   1.857   4.011  12.046  0.3065 -0.0967 -0.0215
 7439W        W24286  12.177   0.600  13.746  0.1082  0.2580  0.3123
 7440W        W24287   5.112   7.576   3.196 -0.0346 -0.1249  0.0482
 7441W        W24288   6.261  11.771  14.713 -0.2933  0.2976 -0.0958
 7442W        W24289   0.225  13.625  12.507 -0.0085 -0.0527  0.3010
 7443W        W24290  13.369  15.486   2.151  0.2018 -0.0169  0.0608
 7444W        W24291   8.900  14.467  13.490  0.0522  0.1173  0.1258
 7445W        W24292   9.345   8.079   3.738  0.1297 -0.1477  0.1468
 7446W        W24293   9.974   5.518   4.632 -0.2830 -0.1833 -0.1427
 7447W        W24294  10.465   1.578   2.087  0.2227  0.1859  0.0522
 7448W        W24295   5.584  14.217   2.164 -0.1111 -0.2205 -0.2274
 7449W        W24296  17.723  16.613   3.261  0.0207  0.0353 -0.2113
 7450W        W24297   7.285   2.428   3.221 -0.0355 -0.0995 -0.2333
 7451W        W24298   3.144   2.993  11.877  0.1316  0.1258  0.0992
 7452W        W24299   7.027   4.797  12.502 -0.1294  0.0680  0.0924
 7453W        W24300  15.414   7.211   3.505 -0.2202 -0.0494 -0.0707
 7454W        W24301   8.603   6.148   1.556  0.0602 -0.1012  0.0860
 7455W        W24302  15.228   4.759   1.109 -0.0078 -0.1157 -0.0323
 7456W        W24303   2.256   7.233  14.654  0.3025 -0.3115  0.0501
 7457W        W24304   2.501   9.459   4.747 -0.2616 -0.0204  0.0689
 7458W        W24305  11.688  18.015  12.995  0.2962  0.0017  0.2238
 7459W        W24306  13.721   5.165  15.798 -0.0280  0.2409 -0.0992
 7460W        W24307   2.726   3.938   0.551 -0.1505  0.2215 -0.2603
 7461W        W24308   2.033  18.449   0.290 -0.0188  0.1475 -0.1506
 7462W        W24309   8.539   9.257  14.415 -0.1780  0.1221 -0.0348
 7463W        W24310   9.465  12.559   4.312  0.0023 -0.2264  0.2355
 7464W        W24311   5.292   4.255  13.324  0.3653 -0.1313  0.1611
 7465W        W24312   0.918   2.989  11.853  0.0500  0.1281  0.1052
 7466W        W24313   6.793  16.966   3.702 -0.2082  0.2129 -0.2643
 7467W        W24314  15.976  15.402  14.987  0.3345 -0.0689 -0.1019
 7468W        W24315   2.646   1.852  11.956  0.0330  0.0069 -0.2422
 7469W        W24316  15.391  15.518   0.018 -0.0034 -0.1772 -0.2964
 7470W        W24317   9.497   5.377  13.159  0.3748 -0.1618 -0.0232
 7471W        W24318   5.350   6.040   4.074 -0.1518 -0.1397 -0.0853
 7472W        W24319   9.613   2.508   0.608 -0.0210 -0.0271 -0.0712
 7473W        W24320  15.300  12.825   3.995  0.2702  0.3168 -0.1550
 7474W        W24321  16.243  11.831  15.910  0.0239  0.0143 -0.2276
 7475W        W24322   4.275   1.370  15.291  0.2139  0.0759 -0.1383
 7476W        W24323   8.081   0.290  12.890  0.2676 -0.4241 -0.0815
 7477W        W24324   5.425   5.922   3.231 -0.2151 -0.0656 -0.0584
 7478W        W24325  16.402   7.876   0.361 -0.0189  0.2721 -0.1946
 7479W        W24326  13.007  15.564   4.103  0.0044  0.0127  0.2105
 7480W        W24327   4.543   8.745   1.315 -0.4234 -0.3151 -0.1329
 7481W        W24328   9.723   4.793   3.498  0.0787  0.0766 -0.0504
 7482W        W24329   0.791   3.944  12.968 -0.0501  0.3180  0.0828
 7483W        W24330  15.888  15.628   4.239  0.0138 -0.0821  0.1619
 7484W        W24331   2.255  13.066  12.505 -0.0508  0.2030  0.3286
 7485W        W24332  14.326   9.674  11.667  0.2811 -0.0684 -0.3051
 7486W        W24333   3.503  17.243   2.621 -0.0839  0.0201  0.2444
 7487W        W24334   0.784   6.383  15.166 -0.2420 -0.0543  0.1789
 7488W        W24335  12.963   8.103   3.521  0.2370  0.0563 -0.1599
 7489W        W24336  12.084   3.041   0.688 -0.2982 -0.0884  0.4194
 7490W        W24337   7.556  15.852   0.432 -0.3662 -0.2036  0.0481
 7491W        W24338   0.396  11.229   1.979 -0.1618  0.2441  0.2886
 7492W        W24339   6.581   8.342  15.111 -0.1821  0.2303 -0.2474
 7493W        W24340  12.330  15.562  15.547 -0.1319 -0.1057  0.2784
 7494W        W24341   2.888   2.165   3.267  0.3047 -0.0469 -0.3749
 7495W        W24342  10.838   5.933  10.764  0.0817 -0.0891 -0.0629
 7496W        W24343  11.002  14.262   5.239  0.1404  0.3276  0.0107
 7497W        W24344  11.709   7.495  14.932  0.0851 -0.2671 -0.1739
 7498W        W24345   3.672  16.847   4.212  0.0774 -0.0936  0.1131
 7499W        W24346   7.586  14.338   1.276 -0.2298 -0.2894  0.0248
 7500W        W24347  14.494  10.818  15.024  0.0142  0.0145  0.0769
 7501W        W24348  11.336  14.968   1.138 -0.1260  0.0096 -0.2092
 7502W        W24349  16.077  11.089  14.252  0.1373 -0.0161  0.0543
 7503W        W24350   9.232   8.964   4.762  0.2334 -0.0886  0.0553
 7504W        W24351   0.163   0.421  13.244  0.2672  0.2001  0.1656
 7505W        W24352   3.650  13.182  13.732 -0.0623  0.0272 -0.1637
 7506W        W24353   9.732  15.164  14.273 -0.0372 -0.0275  0.3463
 7507W        W24354  15.742   9.977   4.507  0.1457 -0.0330 -0.2579
 7508W        W24355  15.688   1.992   1.789 -0.0319 -0.0106  0.0483
 7509W        W24356  14.935  14.832  13.750 -0.0394 -0.1704 -0.2284
 7510W        W24357   4.031  18.118   3.412  0.1884  0.2132  0.1256
 7511W        W24358  12.749  11.579   3.496 -0.3130 -0.1429  0.0162
 7512W        W24359  10.860   5.856   1.184 -0.1685  0.0219  0.0449
 7513W        W24360   9.046  16.138  15.453 -0.0299  0.2365  0.0478
 7514W        W24361   7.376   9.214   2.085 -0.0586  0.1079 -0.3668
 7515W        W24362  10.772   7.473   4.564 -0.0720  0.0444 -0.3691
 7516W        W24363   5.974  18.448  15.295  0.0866  0.1348  0.2074
 7517W        W24364  17.504   2.434  15.220  0.2068  0.1362  0.2797
 7518W        W24365  11.878   1.265  13.059 -0.1444  0.2745 -0.0303
 7519W        W24366   0.234  10.490  12.626  0.0498  0.0733 -0.1644
 7520W        W24367  14.347  13.957  13.581 -0.2832  0.2995 -0.1819
 7521W        W24368  14.889   7.982  12.517 -0.1391  0.0607 -0.0980
 7522W        W24369   9.464  18.023   1.424 -0.0228  0.1744  0.0192
 7523W        W24370  18.214  15.485  12.905 -0.0321 -0.1261 -0.4269
 7524W        W24371   0.885  12.493  11.470  0.1530  0.2814 -0.2299
 7525W        W24372  15.188   4.825  12.462  0.2534 -0.0026  0.1651
 7526W        W24373  11.750   7.783  11.107  0.0849  0.1262  0.2767
 7527W        W24374   6.080   4.973   3.247 -0.1317 -0.1645  0.0688
 7528W        W24375  11.371  13.904   3.166  0.1060  0.2775 -0.0659
 7529W        W24376  11.264  17.286  10.686  0.0458 -0.0181  0.0397
 7530W        W24377  16.079  12.620  12.805  0.1035  0.0325 -0.0968
 7531W        W24378  13.223   6.999  11.907  0.0220  0.2091 -0.1772
 7532W        W24379  10.986   4.333  10.801 -0.3370 -0.0073 -0.1268
 7533W        W24380   0.553   2.751   4.837  0.0539  0.1587  0.1504
 7534W        W24381  13.240  10.675  12.393  0.1177 -0.0883  0.1607
 7535W        W24382   3.515  18.335   1.640 -0.0279  0.2603 -0.1985
 7536W        W24383   9.481   8.756   1.240 -0.1953 -0.2878 -0.0816
 7537W        W24384  10.890  15.045  11.648  0.2954 -0.1345 -0.0223
 7538W        W24385   1.590   9.636  11.990  0.1317  0.3327 -0.2925
 7539W        W24386   3.262  17.615   4.146  0.2173 -0.1482 -0.2074
 7540W        W24387   1.797   9.669   5.563  0.0380  0.1809 -0.1278
 7541W        W24388   9.694   3.879   0.267 -0.3085  0.3329  0.3106
 7542W        W24389  15.751   3.686  12.116 -0.0828 -0.0974 -0.3817
 7543W        W24390  12.990   9.367  14.024 -0.1803 -0.2282  0.1910
 7544W        W24391   8.708   8.618   4.081  0.0147  0.0839 -0.1351
 7545W        W24392   9.152   1.510   3.320 -0.1272  0.1712 -0.1386
 7546W        W24393   5.162  18.362  12.329  0.2543 -0.1029  0.1256
 7547W        W24394  17.332   9.549  14.689  0.0391  0.2977  0.0562
 7548W        W24395  14.327   3.392   0.920 -0.3837 -0.2716  0.0075
 7549W        W24396   7.422  13.937   2.977  0.0828 -0.2401 -0.1701
 7550W        W24397   8.503   1.579   3.748  0.0293 -0.0020  0.2290
 7551W        W24398   9.159  14.006  12.096 -0.1280 -0.0202 -0.1393
 7552W        W24399  10.818  15.516  13.456 -0.0271  0.0551  0.1699
 7553W        W24400  15.284   6.972  11.016  0.2718  0.1317  0.0833
 7554W        W24401   1.378   3.745  11.190 -0.1006  0.0464 -0.1793
 7555W        W24402  16.691   3.823  14.102  0.0511 -0.0033 -0.1105
 7556W        W24403  14.658   6.505   2.534 -0.0842 -0.3142 -0.2350
 7557W        W24404  15.747   2.381  10.842  0.1055  0.2259  0.2097
 7558W        W24405   7.424  10.707  12.246  0.2661  0.1073 -0.1602
 7559W        W24406   0.952  11.210  12.767 -0.0271  0.0946  0.3412
 7560W        W24407   6.663   2.187   2.071 -0.0198 -0.1676 -0.0039
 7561W        W24408  11.559   1.555  12.630  0.0268  0.0347  0.1591
 7562W        W24409  12.483   9.390  13.828  0.0197  0.0061  0.0067
 7563W        W24410  12.293   9.650   0.940 -0.2458  0.0337  0.0869
 7564W        W24411   1.855  10.490  15.265  0.0403 -0.3457  0.0562
 7565W        W24412   8.696   8.868   3.034  0.0848 -0.3681  0.3438
 7566W        W24413   8.115   8.927   1.150 -0.2107  0.0512  0.1310
 7567W        W24414  15.325  13.402   1.370 -0.1705  0.2009  0.1601
 7568W        W24415   1.950  13.362   5.407  0.2344 -0.0236 -0.3601
 7569W        W24416   0.085  14.742  13.511 -0.3211 -0.0017 -0.0636
 7570W        W24417  14.651   1.366  13.960 -0.1622  0.2363  0.4083
 7571W        W24418  13.337   0.743   2.083  0.1315 -0.1972  0.0895
 7572W        W24419  18.514   4.046  14.686 -0.1268  0.1738  0.0426
 7573W        W24420   7.160  13.172   4.216  0.1029  0.2668  0.1576
 7574W        W24421   3.700   6.455  12.167 -0.0708 -0.0152  0.0938
 7575W        W24422  12.155  12.083   4.221 -0.1184 -0.1906 -0.0563
 7576W        W24423   9.005  16.840  14.408 -0.2865  0.0514 -0.0348
 7577W        W24424  14.625   4.909  14.207  0.1834  0.0119 -0.1057
 7578W        W24425   2.874  16.330  13.512 -0.0311  0.0780  0.0949
 7579W        W24426  15.424   4.108  13.882 -0.0047 -0.1141 -0.1158
 7580W        W24427   5.109   8.264   3.493  0.3264 -0.1548 -0.2163
 7581W        W24428   8.614   9.111   4.162  0.1514 -0.0713 -0.1440
 7582W        W24429   8.957   5.424  12.658  0.2121 -0.1892  0.1523
 7583W        W24430   0.756  10.335  15.346 -0.0191 -0.0386 -0.0708
 7584W        W24431  15.837  11.479   2.101 -0.3055  0.0962 -0.0083
 7585W        W24432  12.762   2.970  13.863  0.0674  0.0597  0.3278
 7586W        W24433   1.278  14.876   3.419 -0.0298 -0.0354 -0.2301
 7587W        W24434   6.031  17.886  11.251  0.2421  0.2329  0.0423
 7588W        W24435  17.175   7.262   0.897  0.1294 -0.1474 -0.0267
 7589W        W24436  11.974  14.525   3.716 -0.0080 -0.1634  0.0045
 7590W        W24437  17.361   3.369   3.393  0.0154 -0.1689 -0.0792
 7591W        W24438  13.266  10.251  15.531 -0.2615 -0.1189 -0.2764
 7592W        W24439  15.506   0.944   0.902 -0.1290 -0.4070 -0.2418
 7593W        W24440   9.127  11.978   5.353 -0.1304 -0.2160 -0.0348
 7594W        W24441   0.441   6.071   0.546  0.0886  0.0081  0.0571
 7595W        W24442   4.027   8.532  14.999  0.0573 -0.2746  0.0592
 7596W        W24443   5.965  13.388  15.893  0.0291 -0.1819  0.0981
 7597W        W24444  16.921  13.706   3.851 -0.0642  0.4096 -0.0648
 7598W        W24445  13.692   5.912   1.333  0.0912  0.1580 -0.0091
 7599W        W24446   9.271   5.550   1.708  0.0924 -0.0734 -0.0850
 7600W        W24447   2.927  12.780   0.678 -0.0830  0.0659  0.1636
 7601W        W24448   6.437  16.821   2.832  0.0552  0.1801  0.1684
 7602W        W24449   4.481   9.748   4.268  0.0849  0.0449  0.0024
 7603W        W24450  11.338   3.852   1.765 -0.1586  0.0343 -0.0893
 7604W        W24451  18.363  12.464  13.140 -0.0925 -0.1960 -0.0384
 7605W        W24452   2.409   1.676   1.805 -0.0990  0.0797  0.0293
 7606W        W24453  12.539  10.905  14.992 -0.0093 -0.3938 -0.0713
 7607W        W24454   7.213  15.103  15.625 -0.1955 -0.1425  0.0692
 7608W        W24455   0.318  13.772   2.541  0.0193 -0.0374  0.1474
 7609W        W24456  12.454   3.713  11.014  0.4501  0.1522 -0.0353
 7610W        W24457   3.245  16.529   1.611 -0.1806  0.1737 -0.2319
 7611W        W24458   9.512   7.413   0.485  0.1107  0.1836  0.2016
 7612W        W24459   7.680   0.410  15.797 -0.4163  0.2654 -0.1778
 7613W        W24460  10.096  15.942  12.911  0.2549  0.1710 -0.0843
 7614W        W24461  11.043  18.160  14.525 -0.2118 -0.1180 -0.2142
 7615W        W24462   8.876  11.634   3.882 -0.0237  0.0453 -0.1923
 7616W        W24463   7.547  11.421   3.341 -0.3108 -0.0845  0.2840
 7617W        W24464   7.496  14.494  13.195 -0.2692 -0.2373 -0.2846
 7618W        W24465  13.627   0.154  11.471  0.0990 -0.0277  0.1291
 7619W        W24466   8.217   9.815   3.778 -0.2451  0.1856 -0.0975
 7620W        W24467  11.644   3.230  11.735  0.0809 -0.0399 -0.0607
 7621W        W24468  14.519  18.383  11.538 -0.0074 -0.2340 -0.0575
 7622W        W24469  14.501   8.256   3.954  0.3423  0.2091 -0.2036
 7623W        W24470   9.398   4.294   0.995  0.1145  0.0562 -0.0556
 7624W        W24471   2.308  17.772   3.997 -0.1604  0.3188  0.0165
 7625W        W24472  13.007  16.740  13.336 -0.1435 -0.2435 -0.1746
 7626W        W24473  10.786  14.994   1.210  0.4337  0.1981 -0.1140
 7627W        W24474  16.522   0.137  13.597  0.1002  0.1575  0.1145
 7628W        W24475   0.830  12.770  14.521 -0.0301 -0.0632  0.2908
 7629W        W24476  16.195  13.872   0.886 -0.2361  0.0618  0.0841
 7630W        W24477   1.355   8.885   3.668  0.0681  0.2881 -0.0718
 7631W        W24478  15.438   8.021  15.091  0.0058 -0.3870  0.0746
 7632W        W24479  10.151  14.584   5.365 -0.1740  0.1130 -0.0232
 7633W        W24480  13.296  12.797   2.788 -0.1381 -0.1596 -0.0654
 7634W        W24481   3.859  14.947  12.909 -0.0844  0.2555  0.2458
 7635W        W24482  15.371   4.967  15.306  0.0433 -0.1540 -0.2885
 7636W        W24483   5.146   6.150  11.805  0.2208  0.2031 -0.0234
 7637W        W24484   8.355  14.555   4.049  0.2679 -0.0641  0.0237
 7638W        W24485  11.966   2.999   2.511  0.1006 -0.2571  0.1985
 7639W        W24486   2.490   3.880  14.166  0.3615  0.1398 -0.1622
 7640W        W24487   9.721  15.831   5.307  0.0947 -0.1777  0.0441
 7641W        W24488   5.711  18.458  14.516 -0.1220  0.1304  0.2527
 7642W        W24489  13.986  15.113  13.603 -0.4905 -0.0685 -0.0348
 7643W        W24490   2.540   8.212   4.633  0.1746 -0.1584  0.0757
 7644W        W24491  10.749  17.977  10.951  0.2435 -0.5010  0.3658
 7645W        W24492   0.453  15.816   1.044 -0.0063  0.2958 -0.2847
 7646W        W24493  17.811  17.655   3.573 -0.1742  0.1435  0.2179
 7647W        W24494  16.651  11.418  14.265 -0.0711 -0.1439 -0.0463
 7648W        W24495   3.203   7.176  14.161 -0.0274 -0.2611  0.3879
 7649W        W24496   5.871   3.616  10.941 -0.3103 -0.1364  0.3452
 7650W        W24497   1.498   5.709  14.981 -0.2931 -0.1472 -0.2910
 7651W        W24498   9.534  10.677  15.877  0.0688 -0.0980 -0.0300
 7652W        W24499  14.636  10.316   4.754  0.1019  0.2799  0.0622
 7653W        W24500   8.931  17.899   0.148  0.0863 -0.0470  0.0433
 7654W        W24501   8.342   4.403   0.478  0.3462 -0.0206 -0.3510
 7655W        W24502   9.336  11.579   2.195  0.0422 -0.2523 -0.0161
 7656W        W24503   3.351  13.088  12.067  0.0480 -0.0613 -0.1773
 7657W        W24504  11.992  14.850   1.866  0.1005 -0.0625 -0.0697
 7658W        W24505  13.463  16.498  15.034  0.0596  0.1106 -0.2021
 7659W        W24506   9.992  10.555  13.072  0.2196 -0.0053 -0.0291
 7660W        W24507   7.043   7.010   1.986  0.1072 -0.3223 -0.0429
 7661W        W24508  11.374   6.931  11.064 -0.3642  0.1522  0.3536
 7662W        W24509   6.151   1.541   5.130 -0.1281 -0.4906 -0.0931
 7663W        W24510  16.049   5.507   1.080  0.2601 -0.0236  0.0319
 7664W        W24511  11.067  16.342  14.633 -0.2862  0.0004 -0.0855
 7665W        W24512   3.070  12.327  11.455  0.0779  0.0027  0.2320
 7666W        W24513   6.071   0.648  15.003 -0.0089  0.1799 -0.1258
 7667W        W24514   0.052  18.494   4.314 -0.0982 -0.0809 -0.1048
 7668W        W24515   2.725   9.663   2.401  0.0674 -0.1173  0.0789
 7669W        W24516  17.179   6.809  11.994 -0.0656  0.1285 -0.2786
 7670W        W24517  17.960  13.942  13.498 -0.1549  0.1055  0.0296
 7671W        W24518   5.931   1.032   0.143  0.1633 -0.0563  0.0833
 7672W        W24519  18.212   0.426   0.344  0.1024 -0.1994  0.1400
 7673W        W24520  16.786   0.515  13.489 -0.0246 -0.1068 -0.1082
 7674W        W24521   1.094  11.826   0.480 -0.0495  0.2548  0.0431
 7675W        W24522  11.951  13.542   2.971  0.0212 -0.2151  0.1149
 7676W        W24523  17.416   1.406  14.866 -0.0258 -0.1194  0.0642
 7677W        W24524   0.162   1.416  14.629 -0.1329  0.2118  0.1655
 7678W        W24525  12.523   1.526  14.711  0.1374 -0.0719 -0.5884
 7679W        W24526  10.001  16.987  10.602  0.1913  0.1133 -0.1356
 7680W        W24527   0.019   5.868  15.164  0.0558 -0.0156  0.0088
 7681W        W24528  10.603  12.097   2.550  0.2573  0.0060  0.0628
 7682W        W24529  12.530  17.107  13.519  0.1721  0.1417 -0.1097
 7683W        W24530   4.233   2.094   1.873 -0.0701 -0.3073 -0.2710
 7684W        W24531   3.925   8.990   0.730  0.0001 -0.2239 -0.3149
 7685W        W24532   0.529  11.265  13.049 -0.0173 -0.0448 -0.1537
 7686W        W24533   8.076   8.059  11.333  0.0693 -0.4514  0.3008
 7687W        W24534  14.660  14.426  13.646 -0.1386  0.1056 -0.0206
 7688W        W24535   6.773   9.494   5.816 -0.0968  0.3916  0.4798
 7689W        W24536  13.964   3.626  11.966  0.2304  0.1507 -0.2171
 7690W        W24537   1.790  14.615   2.141 -0.0919 -0.0027 -0.1265
 7691W        W24538   7.663   9.984   4.399 -0.1015 -0.2497  0.0207
 7692W        W24539   2.378   7.157  12.684  0.2722 -0.2391  0.1533
 7693W        W24540  12.197  13.553  13.427 -0.0249 -0.3678 -0.0460
 7694W        W24541  14.441   9.001  15.915 -0.1351  0.2528 -0.0557
 7695W        W24542  18.101  14.151  14.178  0.1822  0.1196 -0.1627
 7696W        W24543   0.242  15.023   3.801  0.0062 -0.2593  0.1068
 7697W        W24544  16.431   2.371  14.352  0.3385  0.0447  0.1061
 7698W        W24545  10.278  12.083  11.324 -0.1392  0.3251 -0.2410
 7699W        W24546   5.200   3.688  13.184 -0.1711 -0.0498  0.0194
 7700W        W24547  10.368  17.380  10.952  0.2465 -0.0666 -0.2989
 7701W        W24548  13.387   9.352  14.906  0.0300 -0.0010 -0.0515
 7702W        W24549   8.981  10.871   1.048  0.2426  0.0360  0.0395
 7703W        W24550   4.239   3.542  13.771  0.2885  0.0800 -0.1528
 7704W        W24551   1.609  17.188  15.345 -0.0493  0.1278 -0.0434
 7705W        W24552  17.731  17.077   5.463  0.1380 -0.0844 -0.0652
 7706W        W24553  10.768  10.923   2.959  0.1648  0.0195 -0.1441
 7707W        W24554  13.363   9.154   1.185  0.2201  0.0031  0.0718
 7708W        W24555   1.676   3.175   2.557  0.1065  0.0582 -0.0740
 7709W        W24556   2.111  14.155   4.939  0.0042 -0.0623  0.0589
 7710W        W24557  17.867   8.135   4.986 -0.0508  0.0424  0.1094
 7711W        W24558  12.614  15.119   1.183 -0.0398 -0.1323  0.0268
 7712W        W24559  16.677   0.584   3.423 -0.2095  0.1208 -0.0635
 7713W        W24560  11.654  16.695  12.492  0.1008  0.0698 -0.1505
 7714W        W24561   8.562  13.010  12.276 -0.0986 -0.0960  0.0303
 7715W        W24562   2.052   4.689   5.002 -0.4131  0.1223 -0.4624
 7716W        W24563  16.258   0.012  12.322  0.0938 -0.0973 -0.1376
 7717W        W24564  13.845   0.976  14.609 -0.2020 -0.0383 -0.3671
 7718W        W24565   6.457  17.871  14.925  0.0739  0.2904 -0.0299
 7719W        W24566   6.465  17.615  13.700 -0.2748  0.0371 -0.1480
 7720W        W24567  10.028   2.473  11.896 -0.0203 -0.0001  0.1558
 7721W        W24568   9.432  11.125   2.454 -0.1320  0.0856  0.1362
 7722W        W24569  10.932  14.344   0.900  0.1293 -0.0638 -0.2234
 7723W        W24570   7.243  10.046  14.726 -0.2760 -0.0466 -0.2836
 7724W        W24571  13.747  16.606   4.770 -0.1794 -0.0440  0.1164
 7725W        W24572  11.351  16.372  13.217 -0.0967  0.0396  0.0875
 7726W        W24573   9.134  12.761   0.753  0.1321  0.0149 -0.4199
 7727W        W24574  10.600  10.503  15.039 -0.1323  0.1173  0.2181
 7728W        W24575  17.828  13.792   3.045 -0.0955 -0.1212  0.2692
 7729W        W24576   0.358  14.451  15.453  0.3871 -0.1660  0.0365
 7730W        W24577  13.280  12.506   0.067 -0.0358 -0.0704 -0.2034
 7731W        W24578  16.614   7.201  12.058 -0.3725  0.1246  0.1768
 7732W        W24579  16.600  13.460   2.071  0.0504 -0.0482 -0.0603
 7733W        W24580  14.098   5.672   0.863 -0.1039 -0.1019  0.4161
 7734W        W24581  11.228   8.430  11.785 -0.1370 -0.0136 -0.1638
 7735W        W24582   3.241   6.256   1.956  0.1192 -0.0625 -0.4038
 7736W        W24583  13.226   0.877   0.072 -0.1448 -0.0944 -0.0841
 7737W        W24584  13.084  11.650  14.480  0.0407 -0.1125  0.2998
 7738W        W24585   1.647   7.122   3.736  0.0427 -0.2049 -0.1233
 7739W        W24586  15.609  17.486  13.442  0.0655  0.1321  0.1484
 7740W        W24587  15.535   4.181   0.434  0.1639  0.1540 -0.0496
 7741W        W24588   9.540  13.222  15.418 -0.3072 -0.0455  0.0693
 7742W        W24589  14.940   8.830   3.254  0.1449 -0.3960  0.0729
 7743W        W24590   9.847  18.403  12.151  0.3202  0.2880  0.1991
 7744W        W24591  10.264   0.240  14.814  0.0479 -0.1632  0.1279
 7745W        W24592   7.734   0.601  12.704  0.2708 -0.0937  0.1044
 7746W        W24593   2.224  18.415  11.237  0.3462 -0.2297  0.0037
 7747W        W24594  15.956  12.441  12.386  0.1448  0.6169 -0.2511
 7748W        W24595   0.131   4.089   0.686 -0.0442  0.0973  0.1467
 7749W        W24596   6.639  11.475   4.133  0.2869  0.0579 -0.0826
 7750W        W24597   8.885   5.147   3.367  0.1204 -0.1007 -0.0400
 7751W        W24598  10.495   8.754   4.428 -0.0771  0.1102 -0.0620
 7752W        W24599   8.621   6.691   2.077 -0.1418 -0.3214 -0.0468
 7753W        W24600  17.783   9.265   5.113  0.1733 -0.2024 -0.0329
 7754W        W24601  18.076   9.700  12.686  0.1050  0.0643 -0.0568
 7755W        W24602  16.364  16.182  12.236  0.4473  0.0317 -0.0597
 7756W        W24603   1.792  13.191  15.850 -0.0510  0.0529 -0.0779
 7757W        W24604   2.127   4.683  12.465  0.1507  0.0893 -0.1720
 7758W        W24605   5.949   3.691  12.439  0.0862  0.4703  0.0388
 7759W        W24606  14.784  11.350   4.833 -0.2429  0.0354 -0.3792
 7760W        W24607  12.230   9.388  10.855  0.0117 -0.0796  0.0323
 7761W        W24608   2.462   9.630  12.252  0.2484 -0.0242 -0.0935
 7762W        W24609   0.603  13.085   0.625  0.0579  0.0272  0.0356
 7763W        W24610  17.295  17.028   1.822 -0.1243  0.1080  0.2712
 7764W        W24611  16.625   1.486   5.123  0.1022 -0.3206 -0.0487
 7765W        W24612  11.238   1.002   3.306 -0.0691  0.1720  0.0620
 7766W        W24613   6.730  11.302   1.989 -0.1576  0.3254 -0.2206
 7767W        W24614  16.560   8.352  14.005 -0.0877  0.1569 -0.1034
 7768W        W24615  13.639   0.476  14.717  0.0716 -0.0091  0.2270
 7769W        W24616  15.897  17.724   1.690 -0.0488 -0.0786  0.3633
 7770W        W24617   8.632   2.155   1.171  0.1837  0.0852  0.1293
 7771W        W24618   0.525  18.520   5.373 -0.3162 -0.2013 -0.1354
 7772W        W24619  16.730  13.466   5.301  0.2809  0.1802 -0.0076
 7773W        W24620   6.715  10.071   2.879  0.2351  0.3568 -0.1447
 7774W        W24621   0.495   7.946  13.028  0.0299  0.0541 -0.0167
 7775W        W24622   1.259   4.066  12.747  0.1117  0.2419 -0.2070
 7776W        W24623  15.829  16.679  11.699 -0.1093  0.5349  0.0589
 7777W        W24624   4.612   6.400  14.285  0.0384  0.2387  0.2948
 7778W        W24625  15.682  12.246  11.954  0.1038  0.1631 -0.3864
 7779W        W24626   4.320   9.129  14.523  0.0228  0.0846 -0.3260
 7780W        W24627   9.480  18.006  14.867 -0.0126 -0.0369 -0.2597
 7781W        W24628   9.951   5.104  10.199 -0.0599 -0.1310 -0.3243
 7782W        W24629   4.305   6.848  15.118 -0.0158  0.2360 -0.1227
 7783W        W24630   7.886  15.001   1.984  0.0137 -0.1941  0.0866
 7784W        W24631  17.250   1.747   4.166 -0.0241 -0.1472  0.0863
 7785W        W24632  16.663   3.900  14.687  0.1222 -0.2407  0.1326
 7786W        W24633   4.216  11.252  13.700  0.1229  0.0834  0.0189
 7787W        W24634  11.753   7.470  15.851 -0.1166  0.0428  0.2275
 7788W        W24635  14.252  12.519  11.744 -0.0592  0.0634  0.1131
 7789W        W24636  18.018  17.561   5.317 -0.0585 -0.1619  0.2364
 7790W        W24637  18.186  18.090  15.481  0.1235  0.2937  0.1654
 7791W        W24638  12.006  16.683  14.210  0.1507 -0.0297 -0.0498
 7792W        W24639   9.941  14.088  12.906 -0.3251  0.3964  0.3121
 7793W        W24640  16.135   4.792  10.531 -0.0949  0.1419  0.1609
 7794W        W24641   8.253  13.490   4.724 -0.2780 -0.1563  0.0170
 7795W        W24642   3.108   4.955  12.627 -0.0668  0.0909 -0.0371
 7796W        W24643   4.211  13.597  13.102 -0.0945  0.0201  0.3918
 7797W        W24644  11.111  10.432  14.388 -0.2016  0.4424 -0.1722
 7798W        W24645   5.766  17.231   3.905 -0.2220 -0.0999 -0.0019
 7799W        W24646  14.467   7.033   3.148 -0.2192 -0.0778  0.1065
 7800W        W24647  11.555  13.726   4.483  0.1855  0.2534 -0.1300
 7801W        W24648   7.635   6.261   5.083 -0.0036 -0.3380 -0.0709
 7802W        W24649   4.258   5.441  12.980  0.2481  0.0696 -0.1502
 7803W        W24650   3.341  18.264   4.695  0.2867 -0.0011 -0.2590
 7804W        W24651   9.037  12.768   3.989  0.0421 -0.0748 -0.2731
 7805W        W24652  10.515  12.951  13.714 -0.1726  0.0945 -0.3307
 7806W        W24653   2.330   2.222  12.573 -0.1594 -0.1541  0.3071
 7807W        W24654   3.685  14.680   0.240 -0.1005 -0.1778  0.0356
 7808W        W24655   9.623   7.265   5.161 -0.3416 -0.1670 -0.2073
 7809W        W24656  14.087   1.119   4.599 -0.1752 -0.1135  0.1475
 7810W        W24657  14.078   0.297   2.838 -0.2656  0.0301 -0.1218
 7811W        W24658  18.303  10.511   5.331  0.2265 -0.0767 -0.0516
 7812W        W24659  17.122   6.079   2.731 -0.1756  0.1048  0.0611
 7813W        W24660   0.505  14.383   3.380 -0.2994  0.0007 -0.0578
 7814W        W24661  10.864   1.847  15.377  0.1448 -0.2283  0.3729
 7815W        W24662  13.142  14.734   0.585 -0.3121 -0.1583 -0.2137
 7816W        W24663   4.933   6.533   0.274  0.1161 -0.2474  0.1266
 7817W        W24664  15.401  15.260   3.885 -0.3480 -0.1379 -0.0855
 7818W        W24665   9.493  10.900   0.839  0.3301  0.2288 -0.2367
 7819W        W24666  14.866   5.358  14.427  0.1155  0.0220 -0.0483
 7820W        W24667  15.501  14.072   5.714  0.0301 -0.0145 -0.0191
 7821W        W24668   3.196   6.378   1.360  0.3722  0.4118  0.0021
 7822W        W24669  13.345   9.145  11.218 -0.2163 -0.0357 -0.2243
 7823W        W24670   4.615  11.882   0.932 -0.0701 -0.0520 -0.0088
 7824W        W24671   7.955  11.680   1.507 -0.1413  0.3241 -0.2952
 7825W        W24672   8.112  15.969  14.549 -0.3187  0.0490 -0.0756
 7826W        W24673   9.324   5.432   4.859 -0.0593  0.3742 -0.2187
 7827W        W24674  12.484   2.571   5.211 -0.1030  0.1189 -0.3424
 7828W        W24675   0.010  16.211   0.418 -0.0357 -0.0641  0.0071
 7829W        W24676   5.194  12.120   2.042  0.1062  0.2238 -0.2568
 7830W        W24677   9.242   0.920   4.285 -0.0060 -0.0553 -0.1005
 7831W        W24678  13.584  18.029   2.048 -0.0963 -0.2327  0.0588
 7832W        W24679   4.704   1.778   2.037 -0.2625  0.0076  0.2642
 7833W        W24680   9.973   8.206  12.439 -0.1716 -0.0553 -0.1285
 7834W        W24681  14.601  11.621  11.531  0.0112 -0.1480  0.1436
 7835W        W24682   1.012  14.852  12.555 -0.0084  0.1560  0.2200
 7836W        W24683   4.353   1.591   2.338  0.4563 -0.0077 -0.0975
 7837W        W24684  18.422   2.016   0.678 -0.1863 -0.1051 -0.1458
 7838W        W24685   9.193   2.999   4.601 -0.0912  0.1004 -0.4139
 7839W        W24686  17.182   9.644  12.472  0.0273  0.1926  0.0314
 7840W        W24687  10.448   8.317   1.892  0.1487  0.1622  0.4022
 7841W        W24688   9.806   3.053  11.172 -0.2750  0.1306  0.1332
 7842W        W24689   7.292  17.053  14.569  0.0931 -0.2974  0.0213
 7843W        W24690   5.193  16.109  14.316 -0.0506 -0.1907  0.2336
 7844W        W24691  10.529   1.178   0.187 -0.2100  0.0630 -0.0488
 7845W        W24692   6.402  15.935   1.987 -0.2319  0.3415 -0.0970
 7846W        W24693   1.344  17.423   1.025 -0.0397 -0.1666  0.0133
 7847W        W24694   6.163   2.859  12.889 -0.2033  0.3114 -0.0869
 7848W        W24695   4.969  15.251  14.851  0.0931  0.0452  0.2175
 7849W        W24696  16.965  11.595  14.740  0.1586 -0.0016  0.5236
 7850W        W24697   5.321   7.319   3.624  0.1010 -0.2704  0.2026
 7851W        W24698   5.589  14.625   5.372  0.2110 -0.0240 -0.1470
 7852W        W24699   7.308   0.112   1.040  0.3186  0.0940  0.2032
 7853W        W24700  16.465   8.364  14.911  0.0255 -0.1330 -0.0660
 7854W        W24701   6.664  17.616   1.336  0.0083 -0.0127 -0.2100
 7855W        W24702   5.669   9.887   1.968 -0.0183  0.2774 -0.0491
 7856W        W24703  14.587  15.031   2.149  0.0349 -0.0083  0.1689
 7857W        W24704  13.825   8.370   5.504  0.1957  0.2457 -0.1876
 7858W        W24705   0.605   1.016   3.466  0.0885  0.0734 -0.0067
 7859W        W24706   2.681  11.703   3.554  0.3739  0.1839  0.1286
 7860W        W24707  10.266  17.190  13.351  0.1653  0.1548 -0.1775
 7861W        W24708   0.498   0.222   4.405 -0.2475  0.2125  0.1256
 7862W        W24709   7.960   1.850   3.703 -0.1498 -0.3426 -0.1039
 7863W        W24710  11.241   9.463   4.302 -0.1933  0.4120 -0.0348
 7864W        W24711   2.391  16.169  15.366  0.0790  0.0992  0.0562
 7865W        W24712  11.025  13.080  14.963  0.1343 -0.2974  0.3561
 7866W        W24713  18.407   5.229   4.488  0.0812  0.2229  0.1770
 7867W        W24714   8.387   1.105   3.475  0.0947 -0.0098 -0.0807
 7868W        W24715   5.309  13.886   5.084  0.0347  0.2019  0.1980
 7869W        W24716  14.286  11.646  12.866 -0.3119 -0.0141  0.1980
 7870W        W24717  15.445  15.303   0.502 -0.0756  0.1766  0.3119
 7871W        W24718  16.855  10.883   4.015  0.0167  0.2544 -0.0877
 7872W        W24719  16.830   4.466  12.495  0.0982 -0.2052  0.0742
 7873W        W24720   2.169  16.158   2.374 -0.1786  0.1613  0.2511
 7874W        W24721   4.959  10.959   4.090  0.0026 -0.1647 -0.1717
 7875W        W24722  17.517  18.122   0.279  0.0379  0.0516  0.2191
 7876W        W24723  12.437  12.918  11.904 -0.1253  0.1620  0.0228
 7877W        W24724  10.513  11.196   4.982 -0.2536 -0.0805 -0.0657
 7878W        W24725  14.567   1.041  15.150 -0.0097 -0.1603 -0.1095
 7879W        W24726   7.264   1.662   4.236 -0.1933  0.2645 -0.0249
 7880W        W24727  15.341   3.477   3.521  0.3803 -0.1705 -0.5668
 7881W        W24728  13.456  16.536  13.182  0.1537 -0.2585 -0.0857
 7882W        W24729   9.435   1.109   2.810 -0.1143  0.2944  0.5798
 7883W        W24730   0.712   0.556   5.373  0.4784  0.1389 -0.0403
 7884W        W24731   7.251   8.763   0.084  0.2034 -0.1317 -0.1397
 7885W        W24732  11.548  15.127  12.884 -0.0354  0.3169 -0.1110
 7886W        W24733   0.681  13.936   4.271 -0.0657 -0.0464  0.0070
 7887W        W24734  11.988   1.614  12.329  0.0215 -0.1011 -0.0752
 7888W        W24735  15.337   5.263   0.837  0.0192  0.1339  0.0269
 7889W        W24736   5.043  17.950  12.631 -0.1757  0.0674  0.0324
 7890W        W24737   7.248   5.721   4.253  0.0441 -0.0982 -0.0116
 7891W        W24738   1.936  13.492   3.943  0.1780  0.0823 -0.0472
 7892W        W24739  14.486  10.115   2.120 -0.0881 -0.0940  0.1081
 7893W        W24740   7.995   7.537  11.586  0.1990  0.0088  0.0411
 7894W        W24741   0.484  18.066  12.568  0.1370 -0.2217  0.2498
 7895W        W24742   6.928   5.910  11.742 -0.1599 -0.3256 -0.0153
 7896W        W24743   5.044   1.995   0.632 -0.1463 -0.1529 -0.0649
 7897W        W24744  14.646   9.975  11.899 -0.0571 -0.1269 -0.2589
 7898W        W24745  14.698  11.964  15.623  0.0475 -0.1904 -0.0074
 7899W        W24746  11.582  17.768  11.406  0.0444 -0.2409 -0.2373
 7900W        W24747   4.695  17.004   0.082  0.0375 -0.1541  0.2877
 7901W        W24748  15.613   6.692   1.640 -0.0178  0.3348  0.2234
 7902W        W24749   5.283   0.074   3.546  0.0809  0.0066  0.1964
 7903W        W24750  12.655  16.090   1.682  0.0232 -0.0335 -0.0883
 7904W        W24751   1.430   4.844   3.725  0.0095 -0.2229  0.1396
 7905W        W24752   4.065   3.839   6.216  0.0931  0.0528  0.0575
 7906W        W24753   2.369   7.200   2.433  0.2314  0.1834 -0.3573
 7907W        W24754   1.857   7.762   3.015 -0.2174 -0.0728 -0.1286
 7908W        W24755  15.318  17.127  11.578 -0.0155  0.1230 -0.0610
 7909W        W24756   3.683  11.259   1.330  0.0805  0.1549  0.1880
 7910W        W24757  13.857   5.058   1.600  0.0907 -0.1984  0.3031
 7911W        W24758   3.851   2.873   0.925  0.0432  0.0779  0.1493
 7912W        W24759  11.979  10.933   4.548 -0.1569 -0.1631 -0.0525
 7913W        W24760  10.811   7.969   2.684 -0.3164  0.2330  0.1541
 7914W        W24761   4.859   2.491   2.711  0.2445  0.0292  0.2266
 7915W        W24762  12.623   5.144  13.676 -0.3789  0.0698 -0.0746
 7916W        W24763   1.215   3.001   2.157 -0.0858 -0.1121 -0.1184
 7917W        W24764   9.026  11.831  13.446  0.0498  0.1460 -0.1467
 7918W        W24765   9.700   5.731   2.532  0.1098 -0.1303  0.0925
 7919W        W24766  12.709  18.073  11.089  0.0902  0.1483 -0.0165
 7920W        W24767  13.521  14.025   2.608 -0.0771 -0.0194  0.3626
 7921W        W24768   9.310  15.003   5.318 -0.1963  0.3859 -0.0257
 7922W        W24769   1.394  17.232   0.470 -0.0159  0.1752 -0.0156
 7923W        W24770   8.132   4.296   2.665  0.1121  0.3433  0.1664
 7924W        W24771  14.547  16.111  11.691 -0.1892 -0.2780 -0.1592
 7925W        W24772  17.875   3.043  12.279 -0.0213 -0.1340 -0.1543
 7926W        W24773  11.833  15.734   2.066 -0.1322 -0.0591 -0.1823
 7927W        W24774  14.709  11.729   5.174  0.1159  0.0684  0.2151
 7928W        W24775   8.178   6.540  15.842  0.2783 -0.0557 -0.1555
 7929W        W24776   6.835   9.695  14.589  0.1046  0.0514 -0.0702
 7930W        W24777   0.154  11.175   0.244 -0.1289  0.1509 -0.2304
 7931W        W24778   3.221  13.202  14.112 -0.4608 -0.0978  0.0479
 7932W        W24779   9.049  12.722  12.813  0.0079 -0.3880  0.0069
 7933W        W24780  17.370  15.618  12.911  0.2987  0.0414  0.1713
 7934W        W24781  13.386   6.710  14.567 -0.2566 -0.0447  0.3439
 7935W        W24782   1.408   2.043   1.902  0.6553  0.1591  0.1774
 7936W        W24783   8.618   6.858  12.414 -0.4065 -0.0091 -0.0846
 7937W        W24784  17.924  12.001  13.909 -0.0921 -0.1155  0.0760
 7938W        W24785  16.375   2.360  11.308 -0.1242 -0.1105  0.1691
 7939W        W24786   8.186   9.221   3.983  0.0670  0.2443 -0.2062
 7940W        W24787   1.817  12.152   1.885 -0.0352 -0.0711 -0.0825
 7941W        W24788  17.442   9.777   3.721 -0.1674 -0.0668  0.0149
 7942W        W24789   0.935   4.209  13.788  0.0137 -0.2908 -0.4516
 7943W        W24790   9.864   1.689   3.820 -0.1716  0.0498 -0.3003
 7944W        W24791   3.511   6.952  13.220 -0.3377 -0.1217 -0.0444
 7945W        W24792   9.901  17.879   5.010  0.0090  0.0326 -0.2839
 7946W        W24793   9.860   6.491  15.636  0.0899 -0.0649 -0.1319
 7947W        W24794  10.119  14.658   0.646  0.1616  0.1975 -0.1620
 7948W        W24795  10.237   5.993  13.760 -0.1281  0.0237 -0.0303
 7949W        W24796  11.875   1.004  15.396 -0.2300 -0.2155  0.0384
 7950W        W24797  16.552  13.528   0.226 -0.1519 -0.0228 -0.3305
 7951W        W24798   2.293  11.645   3.997  0.0664 -0.0290 -0.2809
 7952W        W24799  10.315   9.201  15.639 -0.1389 -0.1073  0.2949
 7953W        W24800   6.447  13.013   0.610  0.0114  0.1835  0.1731
 7954W        W24801   9.372  16.264   3.036  0.4479  0.1495  0.2685
 7955W        W24802   9.364  14.230   1.881  0.1602  0.1369  0.1785
 7956W        W24803  17.158  10.644   0.783 -0.0234  0.0188  0.2999
 7957W        W24804  11.717   3.029   2.959  0.1072 -0.3038 -0.0935
 7958W        W24805   3.077   8.917   5.068 -0.0825  0.0397  0.0782
 7959W        W24806   1.660  12.179   6.033  0.0197 -0.1785  0.1804
 7960W        W24807   3.064   9.441   3.734  0.1035 -0.0460  0.1745
 7961W        W24808  16.963  15.510  15.185  0.1819 -0.2438  0.0576
 7962W        W24809  17.642  15.893   3.575 -0.3113 -0.1236 -0.2124
 7963W        W24810   6.364  11.351  13.767  0.3163 -0.0664  0.1138
 7964W        W24811  14.992   6.574  11.278 -0.1984  0.1468  0.1855
 7965W        W24812   4.287   3.779  14.368  0.2747 -0.1439  0.1684
 7966W        W24813  14.598  17.253  13.139  0.0284 -0.1916 -0.2297
 7967W        W24814  16.022   5.420  12.235  0.3099 -0.1971  0.1846
 7968W        W24815  14.257   7.520   2.858  0.0539  0.1239  0.0147
 7969W        W24816   3.282  11.600   1.267 -0.1111 -0.2349 -0.1745
 7970W        W24817  10.595  17.467   1.992 -0.0015  0.1082  0.2621
 7971W        W24818  16.715   8.106  11.557  0.3282 -0.0830  0.2744
 7972W        W24819   0.564  14.649  13.468 -0.1367  0.1073  0.1380
 7973W        W24820  13.541   6.909  15.601  0.5718  0.0920 -0.2096
 7974W        W24821  16.072   9.162  13.903 -0.0433  0.0674 -0.1212
 7975W        W24822   6.617   2.952  15.822 -0.0574 -0.1064 -0.0060
 7976W        W24823  15.345  17.966  15.767 -0.1423 -0.2294 -0.1504
 7977W        W24824  17.640  16.270  15.108 -0.0244 -0.0403  0.0358
 7978W        W24825  12.854   4.000   4.079  0.0671  0.0307  0.0069
 7979W        W24826  17.506   5.265   1.648 -0.2134 -0.0076  0.0969
 7980W        W24827  14.543  16.172  12.209 -0.0410  0.0792  0.1482
 7981W        W24828  11.727  14.759   2.827  0.0851 -0.1949  0.2772
 7982W        W24829   9.871   1.205   3.647 -0.0076 -0.0671 -0.0791
 7983W        W24830  15.780  10.733   4.924 -0.1950  0.1540 -0.0315
 7984W        W24831  17.990   5.710   2.373 -0.0747 -0.0332  0.3412
 7985W        W24832   5.008   5.702   2.776 -0.5067 -0.1526 -0.0412
 7986W        W24833   9.963  14.995   1.957  0.1951  0.1943  0.1555
 7987W        W24834  12.335  14.598   2.181  0.1429  0.0610 -0.0818
 7988W        W24835  10.621   8.365   4.766  0.1252 -0.1859 -0.3060
 7989W        W24836  10.057  18.292  15.606 -0.1742  0.0145 -0.1660
 7990W        W24837  15.596   8.773   5.066 -0.1491 -0.0233  0.0670
 7991W        W24838  12.691   5.907  10.440  0.0173  0.3915 -0.2952
 7992W        W24839  14.749  16.049  15.072 -0.0010 -0.1762  0.2168
 7993W        W24840  11.475  17.517   3.238  0.0612 -0.3526  0.0207
 7994W        W24841  17.367  12.928   4.057 -0.1407 -0.1467 -0.0350
 7995W        W24842  17.849  15.543   0.694 -0.3803  0.1016 -0.3051
 7996W        W24843  17.650   4.560   2.235 -0.1093 -0.0064  0.2073
 7997W        W24844  17.893   3.918   0.118 -0.0417 -0.1746  0.0539
 7998W        W24845   2.103  16.341   3.053 -0.0220  0.3598 -0.1187
 7999W        W24846   6.656   6.606   2.841 -0.2057  0.2240 -0.0684
 8000W        W24847   0.427   4.951   5.287 -0.4525 -0.0058 -0.0068
 8001W        W24848   2.374   6.447  11.232 -0.0518  0.1634  0.1970
 8002W        W24849   7.989   9.416   2.021 -0.0926  0.0290 -0.3615
 8003W        W24850  12.237   2.382  10.534 -0.2572 -0.2426  0.1899
 8004W        W24851  14.533  16.482  14.862 -0.2561 -0.2011  0.0861
 8005W        W24852   5.328  12.078  13.677 -0.3715  0.0726  0.2522
 8006W        W24853  18.325  17.947   5.261  0.1105 -0.2088  0.3335
 8007W        W24854   2.205  17.948  11.922 -0.0274  0.1776  0.0177
 8008W        W24855   2.088   5.889   1.935  0.2672  0.0245 -0.2089
 8009W        W24856   5.926  14.468  12.546 -0.1506  0.0042 -0.0373
 8010W        W24857  14.111  14.395   5.612  0.0265 -0.0621  0.3548
 8011W        W24858  17.248  16.743   2.383 -0.0043 -0.0235 -0.1591
 8012W        W24859  14.127  15.382  12.010  0.0889  0.0489  0.0206
 8013W        W24860  14.568   4.934   1.517  0.0374 -0.0174  0.1619
 8014W        W24861  10.327   4.198  11.888 -0.0949  0.1482  0.0026
 8015W        W24862  15.772   2.689   0.345 -0.2508 -0.0270  0.3146
 8016W        W24863   7.934   6.749  10.887 -0.1352 -0.0181 -0.1700
 8017W        W24864  15.803  12.183  15.239 -0.0321 -0.2396  0.2345
 8018W        W24865   6.334  12.685   4.911  0.0199 -0.1405  0.0400
 8019W        W24866  14.204  13.199  14.717  0.1712 -0.0552  0.1164
 8020W        W24867   4.691  14.837  13.078 -0.0455 -0.0307  0.0867
 8021W        W24868   5.241   9.361  12.700  0.1656  0.2698  0.1046
 8022W        W24869   8.117   3.798   2.480 -0.0426  0.1999  0.0589
 8023W        W24870   2.453   0.371  12.047 -0.0592 -0.3573  0.0549
 8024W        W24871  15.850   5.123   2.607 -0.1724 -0.2543  0.2124
 8025W        W24872  10.628   0.423  15.646  0.0374  0.2679  0.0318
 8026W        W24873  14.632   7.877  15.731  0.1599 -0.2875 -0.0458
 8027W        W24874  16.800  14.413  14.672 -0.0266 -0.1241 -0.0550
 8028W        W24875   9.069   9.910  13.749 -0.3742  0.0685 -0.2061
 8029W        W24876  13.029  16.963   3.174  0.1755  0.1944 -0.2216
 8030W        W24877  18.319  13.765  13.855  0.0723 -0.0889  0.2881
 8031W        W24878   1.276  16.049  11.733 -0.2539 -0.3477  0.0408
 8032W        W24879   0.319  10.959  12.235 -0.2112  0.1003  0.0417
 8033W        W24880  10.287   9.118   4.644 -0.1478  0.0129 -0.0129
 8034W        W24881  17.849  14.218   4.113  0.1540  0.0492 -0.0782
 8035W        W24882   7.898   4.440  14.809  0.0974 -0.2099  0.1090
 8036W        W24883  17.821   0.861   4.014 -0.2873  0.0091 -0.3050
 8037W        W24884   8.556   7.639   2.941  0.1146  0.2576  0.1818
 8038W        W24885   5.837  13.230  11.708 -0.0033  0.1201  0.0388
 8039W        W24886   0.014  16.077   0.914 -0.0182 -0.0600  0.2324
 8040W        W24887  15.479   7.854   3.177  0.2082 -0.1285  0.0846
 8041W        W24888   4.401  12.921  11.898 -0.2405  0.0659 -0.1292
 8042W        W24889  17.407   3.975   4.943 -0.0876  0.0301  0.2295
 8043W        W24890   9.994   4.242  13.790 -0.2486  0.0942  0.1046
 8044W        W24891   7.790  16.228  14.864 -0.0185  0.0767 -0.4263
 8045W        W24892  11.735   2.672   0.811 -0.3556  0.1158  0.1725
 8046W        W24893  17.767   5.425   3.296 -0.1896 -0.2965 -0.0801
 8047W        W24894  15.896   4.537  14.485 -0.1769 -0.0721 -0.1654
 8048W        W24895   5.094   5.228   0.934  0.2055  0.1143 -0.1233
 8049W        W24896  16.210   1.468   1.937  0.3380 -0.0065  0.0030
 8050W        W24897  17.026   1.750  14.088  0.0914  0.2851 -0.5221
 8051W        W24898  10.503  11.753   2.939  0.1224  0.0253  0.1268
 8052W        W24899  12.225   3.360   0.182 -0.2110 -0.1937 -0.2064
 8053W        W24900   3.014   3.397   4.322  0.0374 -0.1661  0.1152
 8054W        W24901  16.698   5.735  13.233 -0.1020  0.2683 -0.1086
 8055W        W24902  17.337   5.255   3.021 -0.1654  0.0157 -0.1383
 8056W        W24903  12.579   3.061  15.790 -0.0386  0.1112  0.0506
 8057W        W24904  13.486   4.203  15.766  0.1324 -0.3536 -0.2961
 8058W        W24905  12.941   9.004   0.134  0.6123 -0.1454  0.0145
 8059W        W24906   0.956  11.382   1.935 -0.1555 -0.0608 -0.1703
 8060W        W24907   0.024   0.182   3.374 -0.0648 -0.0305  0.2023
 8061W        W24908   3.037  17.404  10.903  0.1079  0.3908  0.3059
 8062W        W24909   7.437  13.578   4.307 -0.0482  0.3102  0.0798
 8063W        W24910  13.375  12.935   5.241 -0.0504 -0.2778  0.0586
 8064W        W24911   8.964   3.331   4.264  0.0558  0.1191 -0.0018
 8065W        W24912  18.484  13.493   1.212 -0.2726  0.2452 -0.1677
 8066W        W24913   8.761  13.440   1.415  0.0092  0.0093  0.2043
 8067W        W24914   8.779  15.506   4.189  0.0880  0.2855  0.1721
 8068W        W24915  15.405  11.406  13.417 -0.1204 -0.4468 -0.0386
 8069W        W24916  17.182   7.891  13.335  0.1754 -0.1866 -0.2592
 8070W        W24917  11.385  12.126   2.286 -0.0067 -0.0223 -0.1112
 8071W        W24918   2.550   0.262   4.110 -0.1040  0.1735  0.0102
 8072W        W24919   7.401  12.144   5.722  0.1892  0.2082 -0.4653
 8073W        W24920   2.012   0.549   0.164 -0.1704 -0.2219  0.0306
 8074W        W24921   8.298   7.430   3.303 -0.1229 -0.0698  0.0628
 8075W        W24922   5.091   1.728  15.085  0.1962 -0.0103 -0.1421
 8076W        W24923   5.083  16.288  13.185 -0.1575 -0.3776 -0.0003
 8077W        W24924  12.160   7.253   4.982  0.0868  0.0335 -0.3823
 8078W        W24925  16.799  15.666   4.585  0.5254  0.2103  0.0166
 8079W        W24926   3.206  17.755   3.644 -0.4994  0.3369 -0.1737
 8080W        W24927   6.097  17.275  13.727 -0.0289 -0.0380  0.1626
 8081W        W24928  15.732   7.056  12.288 -0.3990 -0.1742 -0.1916
 8082W        W24929   7.730   6.366   2.014  0.0529 -0.4051  0.2229
 8083W        W24930   9.357   1.284   1.029 -0.0842 -0.2078 -0.0183
 8084W        W24931   6.804  11.091   0.574  0.0757 -0.2721  0.1090
 8085W        W24932  14.476   7.320   1.643  0.2233 -0.0659 -0.1938
 8086W        W24933   3.827   3.143   0.455  0.1452  0.1457 -0.0717
 8087W        W24934  15.393  16.173   3.584 -0.0553  0.1956 -0.0009
 8088W        W24935   0.319  11.008  11.655 -0.0979 -0.0732 -0.0708
 8089W        W24936  12.862  16.300  14.518 -0.1256 -0.1783 -0.3397
 8090W        W24937   4.071   8.809  13.603 -0.2638 -0.3293  0.0858
 8091W        W24938   8.650  15.072   1.362  0.1750  0.0930  0.1222
 8092W        W24939   6.529  11.635  11.970  0.0883 -0.2125  0.1379
 8093W        W24940  14.294   6.235   1.086 -0.4326 -0.0578  0.0303
 8094W        W24941   2.945  15.343   3.802  0.1694  0.1707  0.0150
 8095W        W24942   9.550  13.615   3.349  0.3342 -0.1574 -0.1127
 8096W        W24943   2.120  10.168   5.196  0.1484  0.1680 -0.0308
 8097W        W24944   2.059  17.613   3.239 -0.0992 -0.0520 -0.0583
 8098W        W24945   5.729   9.579   1.537  0.1714 -0.2703  0.0918
 8099W        W24946   2.143  10.607   5.419 -0.0027  0.0563 -0.0457
 8100W        W24947   1.507   3.577   4.142  0.0244 -0.1878 -0.1909
 8101W        W24948   9.557  16.815  12.562  0.1628 -0.1766  0.0886
 8102W        W24949   6.089  17.651  15.566  0.3128  0.0062 -0.0690
 8103W        W24950   5.933  14.426  13.676 -0.1381 -0.0893 -0.2709
 8104W        W24951   7.873   2.553   5.081  0.2088 -0.2924  0.1219
 8105W        W24952   0.410  17.687  12.241  0.0035 -0.2601  0.3762
 8106W        W24953   0.217   3.879   5.468 -0.2034 -0.1931  0.5115
 8107W        W24954  16.060   4.483  11.669 -0.1151 -0.0199 -0.2453
 8108W        W24955   2.577   5.508  11.097 -0.0735  0.0381  0.0319
 8109W        W24956   4.438   0.903   1.708  0.0026 -0.0863 -0.1177
 8110W        W24957   7.081   5.071   0.222  0.2745  0.2124 -0.1199
 8111W        W24958  13.291  13.842   5.557  0.2600  0.1187  0.0643
 8112W        W24959  10.210   7.799  12.627  0.1048 -0.2581 -0.1059
 8113W        W24960   0.902  17.473  12.119 -0.1691 -0.0956  0.2368
 8114W        W24961   3.405  12.348  12.788  0.0330 -0.3545 -0.1845
 8115W        W24962  13.417   6.081   4.898  0.0079 -0.4301 -0.0795
 8116W        W24963  16.446   1.521  10.778 -0.2680 -0.0554 -0.2158
 8117W        W24964  18.296   9.815  13.223 -0.0887 -0.3421  0.0864
 8118W        W24965   6.339  11.804   0.183 -0.1664 -0.0398  0.0015
 8119W        W24966  14.851  15.266   1.751  0.0086  0.1341  0.0137
 8120W        W24967  18.403  13.060  14.506  0.1528 -0.2975  0.0906
 8121W        W24968   9.588  10.052   2.237 -0.3382 -0.2480  0.0225
 8122W        W24969  12.612  17.187   5.180  0.2915 -0.2208 -0.1123
 8123W        W24970   2.852   5.681  15.563 -0.2453  0.0672 -0.0877
 8124W        W24971  11.581  15.229   0.700  0.0552 -0.3071 -0.0519
 8125W        W24972   4.766  10.812  12.674 -0.2253 -0.0817  0.0709
 8126W        W24973   5.083   5.169   9.908 -0.2519  0.2052 -0.0115
 8127W        W24974  10.077   4.753  11.035  0.2401  0.0200 -0.0359
 8128W        W24975   3.010   0.729  14.252  0.0097 -0.0560  0.0369
 8129W        W24976   2.580  10.714  12.765  0.0135 -0.2241  0.0039
 8130W        W24977   8.870   7.744   0.064  0.2427  0.1048  0.3738
 8131W        W24978   2.347  11.594   0.611 -0.2870 -0.1817 -0.0665
 8132W        W24979   8.921   3.488   3.221 -0.4325  0.1748 -0.2842
 8133W        W24980   7.180   0.210   3.722 -0.1103  0.0701 -0.2085
 8134W        W24981  12.652   2.971   0.689 -0.0853 -0.1402  0.0742
 8135W        W24982  17.964  14.970   5.922 -0.2301  0.2075 -0.0757
 8136W        W24983  14.849  10.811   2.054  0.0050  0.1997  0.2158
 8137W        W24984  11.045  10.499  11.889 -0.1637 -0.1297 -0.0476
 8138W        W24985   2.897  16.813   1.307 -0.3892  0.1760 -0.2218
 8139W        W24986   8.176  18.178  15.367 -0.2428  0.2835 -0.0835
 8140W        W24987   4.266  17.660  14.172 -0.0126 -0.0789 -0.1438
 8141W        W24988   0.934  17.441   3.048  0.1355  0.1166  0.1735
 8142W        W24989  17.343   2.745  11.052 -0.0906  0.0650  0.2054
 8143W        W24990  15.727  13.011   2.097  0.2137  0.1835 -0.2467
 8144W        W24991   0.864   7.026  12.938  0.0181  0.1780  0.1921
 8145W        W24992   0.526  15.580   2.475  0.1068 -0.3184 -0.4808
 8146W        W24993  15.798  18.451  11.521  0.1555 -0.1868 -0.3366
 8147W        W24994   9.468   8.427   4.524  0.0520  0.0707  0.0426
 8148W        W24995  17.531   4.508   4.939 -0.0079  0.0874  0.0185
 8149W        W24996  10.440   5.146   0.760 -0.0274  0.0936 -0.1147
 8150W        W24997  12.490   3.654  11.571  0.0737 -0.2000  0.2960
 8151W        W24998   4.287   7.877   4.206  0.3044  0.3280 -0.1162
 8152W        W24999  15.465  14.267  15.779  0.1195  0.1623 -0.2345
 8153W        W25000   5.339   9.263  14.228  0.0185 -0.1213 -0.0061
 8154W        W25001  11.308  10.035  13.396 -0.2404 -0.3664 -0.0415
 8155W        W25002   7.252  13.187   3.320  0.4534 -0.1069 -0.1250
 8156W        W25003   9.495   7.743   3.329 -0.1737  0.1319  0.1509
 8157W        W25004  14.725  17.303  15.555  0.3358  0.0784 -0.0919
 8158W        W25005  17.265   8.713   0.036  0.1614  0.0066 -0.0694
 8159W        W25006   0.622   9.948   0.081  0.0071 -0.1254  0.0612
 8160W        W25007  15.966   6.949  14.217 -0.2478 -0.0389  0.1323
 8161W        W25008   5.433   4.517   3.919  0.0633  0.1243  0.1315
 8162W        W25009  12.721  16.867  15.717 -0.1544  0.0026 -0.1364
 8163W        W25010   3.537   5.396  12.028  0.2081 -0.1512 -0.2383
 8164W        W25011   8.915   0.746  13.034 -0.1181  0.1535  0.0824
 8165W        W25012  15.149  11.965  14.245  0.0378  0.2690  0.1220
 8166W        W25013  14.018   2.344  12.727  0.0069  0.0131 -0.0879
 8167W        W25014   5.068  12.303  11.626 -0.3171 -0.0269 -0.0700
 8168W        W25015   8.661   7.751  14.607  0.1546  0.1329  0.1441
 8169W        W25016   8.157   1.541   2.844 -0.1531 -0.1725  0.1459
 8170W        W25017   5.366   4.546   3.282 -0.0670  0.1898 -0.1454
 8171W        W25018  13.174   0.840  13.429 -0.2397 -0.0078 -0.1628
 8172W        W25019  12.535  13.313  15.695  0.2929  0.0681 -0.1841
 8173W        W25020   9.545   3.231  12.944 -0.2237 -0.0091 -0.3770
 8174W        W25021   6.084  11.762  10.938 -0.2790  0.0162  0.2186
 8175W        W25022   8.318   0.899   4.589  0.0575  0.2005 -0.2317
 8176W        W25023  16.145  12.065   2.915  0.0075 -0.0424  0.1006
 8177W        W25024   4.115   6.012   0.380 -0.1413  0.1211  0.0801
 8178W        W25025   8.813   9.699   0.298  0.0499  0.0816 -0.0249
 8179W        W25026   8.734   3.662  12.810 -0.1313  0.1507 -0.1314
 8180W        W25027   7.477  16.399   5.209  0.1620 -0.2269  0.0911
 8181W        W25028   7.718  14.064  12.110 -0.2680 -0.0982 -0.1503
 8182W        W25029   1.749  10.658   5.038 -0.2067 -0.0030 -0.0286
 8183W        W25030  10.976  17.120  12.179 -0.1388 -0.2675  0.2093
 8184W        W25031   2.386  15.917  14.498  0.2838  0.1552  0.1409
 8185W        W25032  12.724   6.229   1.049  0.1582  0.0389 -0.0515
 8186W        W25033   5.873  16.572   3.688  0.2956  0.2056  0.3501
 8187W        W25034  15.324   8.885  12.206 -0.2254  0.0965 -0.0601
 8188W        W25035   2.671   6.818   2.117  0.1205 -0.1713 -0.0271
 8189W        W25036   1.388   7.053   1.577 -0.2063 -0.0400  0.3653
 8190W        W25037   2.785   0.846  12.883  0.0586  0.2132  0.0803
 8191W        W25038   4.123  14.383   0.114 -0.1109  0.1318 -0.0059
 8192W        W25039   2.129   5.769  13.459  0.0430 -0.3132 -0.0846
 8193W        W25040  10.495   3.359  12.847 -0.2971  0.1383  0.1129
 8194W        W25041  12.045  17.827   5.207 -0.0615  0.2659 -0.1092
 8195W        W25042   2.762  12.055  14.978 -0.0010  0.2754  0.2965
 8196W        W25043  17.043  15.885  13.209  0.2282  0.1370  0.2450
 8197W        W25044  18.103   1.768  12.195  0.1077  0.0838 -0.2587
 8198W        W25045   3.635  12.362   5.149 -0.1043  0.0244  0.3506
 8199W        W25046   4.420   6.202  11.601  0.0359 -0.3421 -0.1570
 8200W        W25047  14.734   3.927   5.147 -0.4687  0.1602  0.0715
 8201W        W25048  11.435   9.068  12.191 -0.0295 -0.1433 -0.1515
 8202W        W25049   5.110   9.575   0.772 -0.0817  0.1375 -0.2539
 8203W        W25050  17.753   1.561  15.145 -0.1175  0.0745 -0.1741
 8204W        W25051  16.397  12.270   2.452  0.3124 -0.3553  0.0030
 8205W        W25052   6.595   1.175   3.674 -0.2357  0.1302  0.1637
 8206W        W25053  15.638  16.246  12.890  0.1760  0.0455  0.0494
 8207W        W25054   1.698   0.658  15.725 -0.1757  0.0490 -0.0249
 8208W        W25055  11.982   4.346  15.157 -0.1492 -0.0047  0.1520
 8209W        W25056   8.780   5.421   2.942 -0.0862  0.0998 -0.2317
 8210W        W25057   3.191  16.797  12.155  0.0420 -0.2268  0.1732
 8211W        W25058   2.526  15.063   0.634 -0.0147  0.0083 -0.1708
 8212W        W25059  16.244   4.546   3.898 -0.0177 -0.0693  0.0823
 8213W        W25060   1.126  14.795   0.137  0.0362 -0.1195  0.4702
 8214W        W25061  13.362   4.010  10.670 -0.0812  0.1272 -0.3424
 8215W        W25062  11.006  14.826   3.332  0.1752  0.2629  0.1669
 8216W        W25063   7.353  12.995   1.830 -0.1281 -0.4302  0.0523
 8217W        W25064   0.192  17.181   1.091 -0.0777  0.0833 -0.0829
 8218W        W25065  10.754  10.939   4.092 -0.1946 -0.2101 -0.5590
 8219W        W25066   3.455  11.130  11.645 -0.1569  0.2032  0.2665
 8220W        W25067   4.909  12.417   1.696  0.2741 -0.0449  0.0146
 8221W        W25068   1.795   9.520  15.656  0.0022  0.0429 -0.4778
 8222W        W25069   9.738  18.102   0.601  0.1697  0.1298 -0.1998
 8223W        W25070   9.671  12.928   4.606 -0.1638  0.1405  0.2892
 8224W        W25071  11.481  17.828  12.014 -0.0873 -0.0588  0.1598
 8225W        W25072  12.738  14.138  15.015  0.4077 -0.1713  0.2589
 8226W        W25073   0.290   2.290   3.734 -0.0676 -0.2665  0.1277
 8227W        W25074   9.176  18.238   0.444 -0.0812 -0.1143 -0.0006
 8228W        W25075   2.014  16.349   4.705  0.0506  0.1433  0.1937
 8229W        W25076   7.884   7.322  14.551  0.1034  0.0247 -0.1562
 8230W        W25077   3.561   9.076   5.324  0.2546 -0.0211 -0.3374
 8231W        W25078   6.029  16.558  11.789  0.1801  0.1950  0.4426
 8232W        W25079  14.255  11.350   3.916  0.0453 -0.2367 -0.0730
 8233W        W25080  16.073   8.705  14.143  0.1583  0.1916 -0.3100
 8234W        W25081   9.408   8.822  15.279 -0.6412 -0.1590 -0.3311
 8235W        W25082  10.683   5.690   2.904 -0.0007 -0.1711 -0.0191
 8236W        W25083   9.063   5.238   2.530 -0.0274  0.0966  0.3014
 8237W        W25084   2.961   2.640  13.778  0.0501  0.0190  0.0336
 8238W        W25085  15.147   7.759   0.071  0.1036 -0.0353 -0.0328
 8239W        W25086   3.716  15.750   3.993  0.0111  0.0186  0.3024
 8240W        W25087   3.649   7.461   2.057  0.1882  0.1120  0.0337
 8241W        W25088  11.287  16.113   3.733  0.0799 -0.2114  0.0358
 8242W        W25089  13.722   6.647  13.755 -0.0036 -0.0489 -0.1275
 8243W        W25090  16.280   9.502   2.419  0.0670 -0.1218 -0.0134
 8244W        W25091   3.245   5.930   5.500  0.3572 -0.0276  0.2514
 8245W        W25092   1.464  13.510   3.749 -0.0470 -0.0546 -0.0176
 8246W        W25093   9.328   4.747  10.675  0.1927 -0.2394  0.2730
 8247W        W25094   6.195  18.461  14.264 -0.1710 -0.0520 -0.0036
 8248W        W25095   5.051   2.794   3.640  0.0477 -0.4487  0.0498
 8249W        W25096   4.011   9.572   4.029 -0.0665 -0.0421 -0.0211
 8250W        W25097  16.497  16.717  14.410 -0.0646 -0.2139 -0.1617
 8251W        W25098  11.722   2.915   4.097  0.4338 -0.1853  0.1276
 8252W        W25099   2.118   4.237  13.273 -0.0620 -0.1959 -0.0296
 8253W        W25100  11.065  11.193   0.475  0.3326  0.1481 -0.0052
 8254W        W25101   1.055   5.538  12.844  0.1971  0.0761 -0.0118
 8255W        W25102  16.502  14.666   0.570 -0.4013  0.0065  0.0204
 8256W        W25103  12.894  11.848   4.983 -0.5770  0.1217  0.2859
 8257W        W25104   7.712  12.449   6.164 -0.0874 -0.1038  0.3466
 8258W        W25105   3.690   8.252   1.542 -0.0638 -0.0636  0.2351
 8259W        W25106   4.612   0.601  12.116 -0.1161 -0.0533 -0.2992
 8260W        W25107   1.810  10.965   2.829 -0.1443 -0.4238 -0.2101
 8261W        W25108  17.612  15.631   5.405 -0.2686 -0.0796 -0.2180
 8262W        W25109   4.428  14.682   0.604 -0.0862 -0.1017  0.1365
 8263W        W25110   4.306  17.684  12.322  0.1177  0.2397 -0.0089
 8264W        W25111   3.104  13.948   3.481  0.1306  0.2004  0.0945
 8265W        W25112   7.337   1.068   3.203 -0.0841 -0.1987 -0.1703
 8266W        W25113  17.178  13.976  15.625 -0.0938  0.0622 -0.1324
 8267W        W25114   4.118  15.300  12.613  0.1607  0.2827 -0.0346
 8268W        W25115   6.557   9.531  14.023  0.0114 -0.0004 -0.2318
 8269W        W25116   8.558   2.758   2.701 -0.1010 -0.1526 -0.0976
 8270W        W25117   4.640   7.063  14.770  0.0950  0.0258 -0.3929
 8271W        W25118  13.711   0.481  12.725 -0.2263  0.0059 -0.0039
 8272W        W25119  15.722  10.891  13.933  0.0620  0.2810 -0.1815
 8273W        W25120   2.261   2.626  15.399  0.1346 -0.0696 -0.5195
 8274W        W25121   2.723  12.905  15.505 -0.1276 -0.1430 -0.1315
 8275W        W25122   5.816  15.537   4.410  0.1816  0.0196 -0.1513
 8276W        W25123   4.244   7.013   0.138  0.0592 -0.2951  0.0415
 8277W        W25124  13.836   9.066   2.593 -0.2667 -0.0270  0.2946
 8278W        W25125  12.364  12.661   0.266 -0.3584 -0.1675  0.1366
 8279W        W25126   8.947   1.661  12.637  0.2954 -0.3537  0.0602
 8280W        W25127  10.780   2.640  15.149  0.0786 -0.1131  0.4029
 8281W        W25128  16.704  14.606  11.369 -0.0947  0.1482  0.1228
 8282W        W25129   4.835  14.348  12.952 -0.0655  0.0352  0.0571
 8283W        W25130   5.908   6.504   2.099 -0.3569  0.1973  0.0198
 8284W        W25131   0.501   3.783  12.013 -0.1389 -0.0086 -0.0711
 8285W        W25132  11.525   2.558  12.099 -0.1482  0.0702  0.0357
 8286W        W25133  13.143   3.695   4.960  0.0321  0.1967  0.0630
 8287W        W25134   3.494   4.347  10.610 -0.0819 -0.2572 -0.0374
 8288W        W25135  12.157   9.846   3.488 -0.3555 -0.1217  0.0149
 8289W        W25136  18.239   4.947  14.582  0.0174 -0.2776 -0.1811
 8290W        W25137   8.659   6.387   0.020 -0.2502 -0.0003  0.1921
 8291W        W25138   2.720   3.921  12.598  0.3844 -0.1851 -0.1510
 8292W        W25139   9.493   5.889   3.390  0.0915  0.0313  0.1479
 8293W        W25140   2.202   6.653   2.005 -0.1178  0.0645 -0.2980
 8294W        W25141   5.497   3.028  11.244 -0.1452 -0.1964 -0.2051
 8295W        W25142   6.613   1.989  15.017  0.1235  0.2438  0.3908
 8296W        W25143  11.883  15.003  11.666 -0.1127 -0.1676  0.0032
 8297W        W25144   3.882   3.742  12.962 -0.0490 -0.0977 -0.1220
 8298W        W25145  15.490   4.766   0.685  0.2742  0.0739  0.1754
 8299W        W25146  16.119   7.080   2.911  0.1044 -0.2391 -0.1397
 8300W        W25147   0.437  10.589   3.165 -0.2851  0.2631  0.1425
 8301W        W25148  14.727   2.800   0.899 -0.0988 -0.0017  0.0743
 8302W        W25149   3.642   1.548  12.369  0.2047  0.1072  0.0389
 8303W        W25150   7.784   1.642   2.121 -0.0464 -0.3896 -0.1775
 8304W        W25151   2.771   5.386  12.609  0.0154 -0.1193 -0.0748
 8305W        W25152  17.797  13.456   0.403  0.2817  0.0398 -0.2382
 8306W        W25153   9.298   6.499  11.204 -0.0583 -0.0479  0.2188
 8307W        W25154  17.903  11.557   3.326 -0.1044 -0.2099 -0.1011
 8308W        W25155   9.854  16.936   1.444  0.0535  0.1816 -0.0145
 8309W        W25156   3.667  12.346   2.738  0.1348 -0.0908 -0.2760
 8310W        W25157   1.750  11.846   2.284 -0.0147 -0.1183 -0.1853
 8311W        W25158   8.428   8.870  11.075 -0.0999 -0.0660 -0.0762
 8312W        W25159  10.813  12.100   3.631  0.0061  0.1115  0.3326
 8313W        W25160   7.950  15.490  12.865  0.2857  0.2115  0.1483
 8314W        W25161  15.871  16.248   2.384  0.1499  0.0174  0.0853
 8315W        W25162   1.738   4.308   4.964 -0.3140 -0.0356  0.1252
 8316W        W25163  12.905   6.830   0.044  0.0831 -0.2134  0.1368
 8317W        W25164   3.673   4.591   3.774  0.2205 -0.0340  0.1533
 8318W        W25165   5.321   2.858   4.082 -0.0223  0.1785  0.0051
 8319W        W25166  11.218   0.093  15.869  0.2180 -0.0404  0.1318
 8320W        W25167  16.530  14.949  11.010  0.3060  0.0993 -0.1224
 8321W        W25168   8.852   9.455  13.651  0.2991  0.2638  0.2588
 8322W        W25169   6.353   5.156   2.386  0.1819 -0.0387  0.3421
 8323W        W25170  10.303  17.827  12.617  0.3967  0.1218 -0.0222
 8324W        W25171   8.207   6.598   1.303  0.2283  0.0012 -0.0630
 8325W        W25172  12.851   9.743   5.609  0.2333  0.1988  0.1596
 8326W        W25173  13.787  11.193  11.365  0.0544 -0.0467  0.1664
 8327W        W25174  14.358  10.331  14.819 -0.1086  0.0785  0.2072
 8328W        W25175   1.742   0.192  11.357  0.0214 -0.0435  0.1066
 8329W        W25176   5.617  16.924  11.339 -0.0535  0.0985  0.0310
 8330W        W25177  14.372  16.110   4.204  0.0434  0.0171  0.1752
 8331W        W25178  13.098  15.781  11.205 -0.3144 -0.1487  0.0569
 8332W        W25179  17.887  13.472  13.936 -0.2792  0.3331 -0.1471
 8333W        W25180   4.601   9.923   2.633 -0.1409  0.1087  0.1112
 8334W        W25181   6.377  11.049  12.769 -0.0838 -0.2014 -0.1748
 8335W        W25182  13.449  16.838  13.561  0.1259 -0.2026  0.1834
 8336W        W25183   0.962  14.491   3.727 -0.1967  0.1338  0.0919
 8337W        W25184  14.784   2.440  11.438 -0.2925  0.2391 -0.0618
 8338W        W25185   4.721  10.053  12.499  0.1452  0.3029 -0.1442
 8339W        W25186   0.642   0.499   2.273 -0.1291 -0.1152 -0.3871
 8340W        W25187  13.569   3.471   1.716  0.0886 -0.0107 -0.1489
 8341W        W25188   7.394  14.356   3.741 -0.2008  0.1994 -0.0811
 8342W        W25189  16.112  16.173   4.366  0.0862  0.2979 -0.1686
 8343W        W25190   9.166   8.130  11.566 -0.0450 -0.0279  0.0861
 8344W        W25191   8.003   0.545  15.442  0.0303  0.1362  0.0363
 8345W        W25192  12.089   8.978   0.786 -0.1401  0.2699  0.0933
 8346W        W25193   5.326  12.101   5.404  0.0685 -0.0071 -0.1022
 8347W        W25194  18.463   1.285  11.647 -0.1394  0.1427  0.1291
 8348W        W25195   6.744   9.967  13.836  0.1711  0.2764 -0.0117
 8349W        W25196   9.852  15.103   2.815  0.0092 -0.3651 -0.0282
 8350W        W25197  15.152   5.107  11.038 -0.0636 -0.1721  0.0132
 8351W        W25198  16.782   2.930  13.612 -0.0878 -0.1345 -0.2782
 8352W        W25199   8.538  11.265   4.178 -0.2294 -0.0275 -0.2578
 8353W        W25200   1.554   2.811  13.569  0.3021 -0.2955  0.0733
 8354W        W25201   7.967   2.993  10.329  0.0578  0.2882 -0.1508
 8355W        W25202  13.195  14.165   3.566  0.3142 -0.0428 -0.0967
 8356W        W25203  11.668  10.886  11.772  0.1289  0.0370 -0.0726
 8357W        W25204  14.036   2.862   2.051  0.0581  0.1901 -0.0891
 8358W        W25205  12.086   5.031  14.522  0.3579  0.1725  0.3159
 8359W        W25206  15.555  12.811  13.239 -0.1305  0.0131  0.1041
 8360W        W25207  18.268  16.915  12.314  0.3313  0.2902  0.0515
 8361W        W25208  10.820  10.744   4.595  0.0605  0.3060  0.2388
 8362W        W25209   5.708   4.383  13.593 -0.0338  0.0261 -0.1006
 8363W        W25210   1.412  10.735   1.741 -0.0554  0.2345  0.0910
 8364W        W25211   3.551   6.778   0.125  0.2843 -0.1211  0.0497
 8365W        W25212  15.343  10.413  13.181 -0.0551  0.3417 -0.2330
 8366W        W25213  14.292   4.314  12.819  0.0901 -0.0238 -0.2475
 8367W        W25214  14.817  11.782   1.038 -0.0760  0.1800 -0.0954
 8368W        W25215   9.397  12.643  13.661 -0.1088 -0.0545 -0.3879
 8369W        W25216  13.304  16.531   2.981 -0.3477 -0.0034  0.1525
 8370W        W25217  13.933  10.216  14.613  0.2892  0.0545 -0.3059
 8371W        W25218  18.004  18.021   2.301  0.1064 -0.2599  0.0679
 8372W        W25219  16.236  10.048  13.698 -0.1388 -0.2632 -0.0414
 8373W        W25220  14.284   5.582   4.493  0.1832 -0.0963  0.1839
 8374W        W25221  18.154  11.762   2.925  0.1243 -0.1136 -0.1147
 8375W        W25222   3.098  16.835  13.671 -0.3270  0.1290  0.0537
 8376W        W25223   5.048  13.251   2.295 -0.0778  0.0280  0.2537
 8377W        W25224   8.628   9.617  14.090 -0.0999  0.2644 -0.2207
 8378W        W25225  17.776  17.075   3.562 -0.2180  0.3226  0.1280
 8379W        W25226   6.620  13.423   4.752  0.1572  0.3302  0.0730
 8380W        W25227  15.611   7.483   2.302 -0.2803  0.0442 -0.0139
 8381W        W25228   6.169  15.734   0.598  0.0559  0.0258 -0.2099
 8382W        W25229  11.355  14.387  14.027 -0.3011  0.1347  0.1409
 8383W        W25230  12.431   1.352   2.944  0.3850 -0.2986 -0.1851
 8384W        W25231   7.322   5.062  12.148 -0.2259 -0.0889 -0.0666
 8385W        W25232   3.066  12.670   3.217 -0.1469 -0.1429 -0.0215
 8386W        W25233   4.678   7.336  11.245  0.2000  0.2035  0.1043
 8387W        W25234   2.667   0.508  12.473  0.1595 -0.0666 -0.1682
 8388W        W25235   8.692   1.981  13.342 -0.5130  0.0299  0.2264
 8389W        W25236  13.446   9.742  15.379 -0.1098 -0.0641 -0.1252
 8390W        W25237   0.518  14.143   2.947  0.1078  0.2323 -0.1934
 8391W        W25238  15.715  13.624  13.773 -0.0356 -0.1462 -0.0454
 8392W        W25239  14.714  18.362  15.845 -0.2779  0.0320  0.2090
 8393W        W25240  16.676  13.003   1.877 -0.0945  0.2006  0.0570
 8394W        W25241  11.291   2.922  12.472  0.1315 -0.2457  0.0758
 8395W        W25242  14.683   4.000  12.832  0.3346 -0.1807 -0.0311
 8396W        W25243  10.456  10.502  15.586  0.0208 -0.1909  0.2032
 8397W        W25244  17.461   6.992  13.770 -0.0578 -0.0569  0.1467
 8398W        W25245  12.355   7.163   2.633  0.0098 -0.1486  0.1236
 8399W        W25246  17.223   4.371  13.521 -0.3254 -0.2428  0.1147
 8400W        W25247   6.801   3.826   0.239 -0.1452 -0.2446  0.0945
 8401W        W25248  14.067   4.683   0.735  0.0081  0.1964 -0.1955
 8402W        W25249   5.546  12.088   3.097 -0.0588  0.0253  0.0802
 8403W        W25250   7.194  10.221   4.591  0.0477  0.1574  0.1793
 8404W        W25251   4.641  13.087   5.536  0.0573  0.1748  0.1202
 8405W        W25252   8.103  14.616   2.668  0.1195 -0.0252 -0.0557
 8406W        W25253  15.076  12.503  12.430 -0.0703 -0.0536  0.0272
 8407W        W25254   9.989   4.924   1.950 -0.1664 -0.2092  0.1803
 8408W        W25255  11.057   6.627  14.901  0.1436 -0.5177 -0.0038
 8409W        W25256  15.836   6.192  13.727  0.1248  0.2485  0.1767
 8410W        W25257   2.177  13.406   0.459 -0.0428  0.0623 -0.1882
 8411W        W25258   4.139  14.106  13.571 -0.0556 -0.0412 -0.2640
 8412W        W25259  11.840  14.179  13.018 -0.2325 -0.5609 -0.1158
 8413W        W25260   1.881   8.725  12.823  0.4399  0.1268 -0.1821
 8414W        W25261  16.195   7.221   4.966 -0.1966  0.0608  0.3742
 8415W        W25262   1.531  11.597   4.254 -0.2875  0.1393 -0.0020
 8416W        W25263  17.704   7.834  13.388 -0.0385  0.0884 -0.2629
 8417W        W25264   2.812  17.012  11.496 -0.0359 -0.0297  0.2907
 8418W        W25265  11.466  18.211  14.851 -0.0193  0.1466 -0.1792
 8419W        W25266  14.015  18.164   0.663  0.0896  0.0399 -0.2507
 8420W        W25267  16.930   4.183   0.413 -0.0131  0.2822  0.1868
 8421W        W25268  11.265   7.666   1.011 -0.0109  0.0447  0.1467
 8422W        W25269   7.705   6.800   4.788 -0.1198  0.5997  0.0186
 8423W        W25270  10.443   5.480  14.234  0.2061  0.0176  0.0027
 8424W        W25271   3.897   2.732  10.668 -0.0900 -0.3545  0.1223
 8425W        W25272  14.558  11.065   5.543  0.0658 -0.1488  0.0351
 8426W        W25273  17.087   8.776  14.503 -0.0983  0.2468  0.2891
 8427W        W25274  16.272   8.673   4.635 -0.2059  0.1434 -0.0219
 8428W        W25275  15.917   7.342  13.249  0.2468 -0.2093 -0.0923
 8429W        W25276  15.850  15.989  10.728 -0.0617  0.1599  0.0759
 8430W        W25277  16.529   4.893   3.581 -0.1032 -0.1320  0.1605
 8431W        W25278  15.229   4.848   0.255 -0.0727 -0.0515  0.0070
 8432W        W25279  17.305  14.915   2.518  0.0478 -0.5571 -0.1190
 8433W        W25280   0.098   5.632   3.647  0.0216 -0.3746  0.1606
 8434W        W25281  11.701  12.824   5.979 -0.1772 -0.1747 -0.0284
 8435W        W25282   0.003   4.605  15.559  0.1589 -0.0466 -0.1422
 8436W        W25283   9.535  10.487  13.219 -0.0257  0.2993 -0.2265
 8437W        W25284  10.691  11.326  11.653  0.2175 -0.0379 -0.0503
 8438W        W25285  13.274  16.997  12.984  0.4696 -0.0962 -0.3710
 8439W        W25286  11.567  13.898  15.201  0.0603 -0.1100  0.2728
 8440W        W25287  15.308   4.661   3.734  0.2975 -0.3676  0.4215
 8441W        W25288   9.898   4.410   1.356  0.0696  0.1378  0.3386
 8442W        W25289   3.546  11.592  14.406  0.1660 -0.0319 -0.2087
 8443W        W25290   8.864  15.687   3.573  0.1687  0.0657  0.2664
 8444W        W25291  12.612  11.718   4.007 -0.0161  0.0626  0.1774
 8445W        W25292   9.417   2.390   2.598  0.0870 -0.0253 -0.1617
 8446W        W25293   1.696  15.654  13.889  0.0919 -0.2288  0.0790
 8447W        W25294   7.825   9.535   1.117 -0.0744  0.1630  0.1975
 8448W        W25295   7.687  17.416  12.288 -0.0522 -0.2792 -0.3501
 8449W        W25296   5.332   9.107  12.215 -0.1282  0.0769  0.1583
 8450W        W25297   2.089   8.012   3.854 -0.2547 -0.0944  0.0749
 8451W        W25298   5.884   2.535   2.180  0.0067 -0.0196 -0.2628
 8452W        W25299   2.797  17.685   1.312 -0.4208 -0.0875  0.2139
 8453W        W25300  11.342  11.172  14.976  0.0543  0.1613 -0.4614
 8454W        W25301   2.638   7.618   0.721  0.0501  0.1649 -0.1196
 8455W        W25302   9.646  15.868   3.197 -0.2623  0.2532 -0.1619
 8456W        W25303   2.113  11.600  14.879 -0.3454  0.1328 -0.3094
 8457W        W25304   9.155   3.195   2.860 -0.1028  0.2777 -0.0466
 8458W        W25305  18.264   3.110  14.171  0.3348  0.1226  0.1239
 8459W        W25306  11.845  16.026  11.853 -0.0764  0.0699 -0.0690
 8460W        W25307  15.666   1.078  11.154  0.2270  0.0252 -0.4316
 8461W        W25308   3.810   9.272  14.537 -0.0806 -0.0318 -0.1557
 8462W        W25309   5.239   1.553   0.708 -0.0223 -0.1001  0.0395
 8463W        W25310  10.746   3.235  13.691  0.0151 -0.0263 -0.0275
 8464W        W25311  16.116  17.491   2.904 -0.2788 -0.3164  0.0290
 8465W        W25312  10.877   4.940   3.124  0.1599  0.1232 -0.2999
 8466W        W25313  18.361  14.089   5.853  0.2806 -0.1910 -0.1909
 8467W        W25314  10.633   9.267   2.328 -0.1986  0.0384  0.0684
 8468W        W25315   0.624   4.692  12.453  0.1482  0.0523 -0.1995
 8469W        W25316   2.543   0.749  13.315  0.0771 -0.2304 -0.3396
 8470W        W25317  17.372   3.300   2.229 -0.1789 -0.2254 -0.2002
 8471W        W25318  17.441  12.443   4.258 -0.2643  0.1748  0.1329
 8472W        W25319  14.882   7.533  12.238 -0.3996  0.1297 -0.0318
 8473W        W25320  13.360   0.746  13.879  0.1602 -0.1806  0.1298
 8474W        W25321  12.247   3.935  12.402 -0.0807 -0.2393  0.3367
 8475W        W25322  16.978  12.167  13.510 -0.1920  0.0765 -0.0448
 8476W        W25323   5.474   6.469   5.413  0.0333 -0.0758  0.0395
 8477W        W25324  10.240   5.963  15.731  0.0351  0.1833 -0.0553
 8478W        W25325  17.892   7.593   5.225  0.0848  0.2672  0.0716
 8479W        W25326   7.085   7.708   3.003 -0.0783 -0.3760  0.0486
 8480W        W25327  11.081  10.089   3.549 -0.0846  0.1440  0.0697
 8481W        W25328   7.286  13.696  11.981 -0.1234  0.0079 -0.2446
 8482W        W25329   1.947   6.040  15.115 -0.1500  0.3683 -0.2245
 8483W        W25330   9.417   0.366  11.400  0.1835 -0.1100  0.1490
 8484W        W25331   8.423   6.424   4.855 -0.0642 -0.2613  0.1509
 8485W        W25332   7.407  10.523  14.136 -0.0910  0.3397 -0.4077
 8486W        W25333  15.902   3.021  14.957  0.3432 -0.1012  0.0376
 8487W        W25334  14.523  18.411  14.189  0.0302 -0.0627 -0.2716
 8488W        W25335   1.315   1.821   5.717 -0.2134  0.2470 -0.2416
 8489W        W25336   8.609  18.350   1.060 -0.1153 -0.0757  0.0709
 8490W        W25337  16.260   2.413   4.732  0.2551  0.1829  0.3450
 8491W        W25338   7.215   8.629   1.351  0.1496  0.2629  0.0132
 8492W        W25339  11.652  18.395   3.745 -0.0049  0.0584 -0.2781
 8493W        W25340  16.865  12.087  12.074  0.1519  0.0254  0.0249
 8494W        W25341   6.728   8.367  11.328  0.1124  0.0047  0.0213
 8495W        W25342   7.979   4.020   0.983  0.0178  0.1362 -0.1808
 8496W        W25343   3.143  10.072  15.389 -0.0682 -0.0007  0.1148
 8497W        W25344   9.632  17.831  13.222  0.0122  0.2517  0.3262
 8498W        W25345  14.592  13.265   5.659  0.1560 -0.1804 -0.0853
 8499W        W25346   6.371   3.631  12.829  0.3131 -0.1014  0.1314
 8500W        W25347   7.491  14.318  12.707 -0.0466 -0.0706 -0.0977
 8501W        W25348  17.864  13.717   4.007  0.0183 -0.0086  0.1531
 8502W        W25349  18.411  17.545   0.236 -0.1487 -0.1352  0.0436
 8503W        W25350  15.805   1.842  13.454 -0.0950  0.0942  0.2293
 8504W        W25351   9.975  11.453   1.665 -0.4191 -0.0954  0.1018
 8505W        W25352   1.789   6.047   3.172 -0.0158 -0.2437  0.1740
 8506W        W25353   5.983  17.853  10.727 -0.0483  0.0043  0.0525
 8507W        W25354  16.991  13.007   0.272 -0.0443  0.1829  0.1974
 8508W        W25355   5.336  11.268   5.400 -0.0008 -0.1560  0.1091
 8509W        W25356  15.965  18.200   3.705 -0.2951  0.1773  0.0248
 8510W        W25357   0.386   9.015   4.915 -0.1556  0.2270 -0.4821
 8511W        W25358  12.021  12.992  12.731  0.1235 -0.2364  0.0250
 8512W        W25359  15.128   8.514   2.318 -0.3478 -0.1794  0.0056
 8513W        W25360  10.344  13.088   4.350  0.0081  0.0735 -0.1203
 8514W        W25361   6.365   4.847  13.191 -0.0817 -0.0793 -0.1201
 8515W        W25362   4.661  13.290  15.301 -0.2305  0.1328  0.0538
 8516W        W25363  15.702  18.198  13.858 -0.2414 -0.0575 -0.2777
 8517W        W25364   1.037   0.451   1.174 -0.2049  0.1105  0.3148
 8518W        W25365   3.029  11.645   3.165  0.2387  0.2013 -0.0941
 8519W        W25366   3.294   7.948   1.363  0.2095 -0.1916 -0.0224
 8520W        W25367   7.239  14.713   2.391 -0.4236  0.0354 -0.0462
 8521W        W25368   3.413  14.817  13.460  0.0926  0.1562 -0.3586
 8522W        W25369   8.358   2.630   3.950 -0.0016  0.2919  0.0903
 8523W        W25370   7.034  15.308   4.377 -0.2221  0.0964 -0.0195
 8524W        W25371   5.461   0.084   1.021  0.4548  0.3364 -0.0641
 8525W        W25372   1.416  14.175  13.591  0.0865  0.1333  0.2376
 8526W        W25373  14.648   8.828   3.910  0.0783 -0.2113  0.2045
 8527W        W25374   6.761   5.189   4.806  0.0559  0.2225  0.0821
 8528W        W25375  11.462   1.394   3.006  0.1761 -0.0490 -0.0100
 8529W        W25376  17.637  11.854   4.068  0.0596 -0.0127 -0.0107
 8530W        W25377   9.767  14.977   0.876 -0.1685 -0.4026  0.1166
 8531W        W25378  12.836  14.561   0.217 -0.0177  0.0957  0.4373
 8532W        W25379  13.205  11.251  15.775  0.1135  0.0706  0.2208
 8533W        W25380  12.745   7.896  10.881 -0.1034  0.0017 -0.0529
 8534W        W25381   3.391   2.010  15.779  0.0492  0.0201 -0.0185
 8535W        W25382   8.996  12.929  11.936 -0.1891 -0.3251  0.3792
 8536W        W25383  10.147   3.384   3.129 -0.2066  0.1819 -0.1352
 8537W        W25384   3.308  13.738  15.179  0.0955 -0.2439  0.0741
 8538W        W25385   0.854   6.069  11.538  0.0313 -0.1182 -0.3047
 8539W        W25386   3.216  15.029  14.045 -0.1113  0.2099  0.1304
 8540W        W25387  10.610   1.961   3.923  0.0436  0.2007  0.1838
 8541W        W25388  13.193   8.403  12.900 -0.2440 -0.0961 -0.0122
 8542W        W25389  12.839   4.636  13.724 -0.0875 -0.0223  0.0594
 8543W        W25390   6.630  13.537   3.838 -0.1795 -0.1365 -0.2617
 8544W        W25391  17.843   2.341   5.935  0.2097 -0.0202 -0.0729
 8545W        W25392  13.747   6.513  14.314 -0.1294 -0.0779 -0.2581
 8546W        W25393  17.604   8.686  13.779  0.3277  0.0560  0.0051
 8547W        W25394  13.327   0.613   4.880  0.1178  0.3146 -0.2491
 8548W        W25395   2.552  14.549  12.376 -0.2049  0.1909  0.1919
 8549W        W25396  15.125   0.554  14.194  0.2061  0.1238  0.0076
 8550W        W25397   2.340  17.614   1.192  0.3470 -0.0982 -0.1544
 8551W        W25398  14.266   6.264   0.570  0.1325 -0.2905  0.1071
 8552W        W25399  14.064  16.263   1.431 -0.2250  0.1057 -0.1936
 8553W        W25400   9.544   7.182   2.487  0.1466  0.2159  0.1217
 8554W        W25401   9.707  17.035   0.520 -0.3488 -0.2119  0.0588
 8555W        W25402  15.344   4.483   1.846  0.2183 -0.0244 -0.0579
 8556W        W25403   5.680   5.821  11.315 -0.0729  0.0781 -0.1779
 8557W        W25404   2.363   3.472  11.340 -0.2537 -0.1835 -0.4369
 8558W        W25405   6.777   7.482   1.914  0.0178 -0.1807 -0.0243
 8559W        W25406  12.738  14.302  13.721  0.5092 -0.2389  0.3269
 8560W        W25407  16.199   7.199  12.580 -0.1398 -0.0462 -0.0344
 8561W        W25408  18.382   9.962  11.933  0.0465 -0.1964  0.1579
 8562W        W25409  11.995   3.500  11.982 -0.1994  0.3164 -0.3055
 8563W        W25410   4.832  18.356  11.501  0.0025  0.1624 -0.1186
 8564W        W25411   1.221  17.943  15.785 -0.2685 -0.0119  0.1264
 8565W        W25412  10.806  10.027  12.996 -0.0817  0.0734 -0.0540
 8566W        W25413  17.068  10.335   1.791 -0.3028 -0.0299 -0.0338
 8567W        W25414   1.845   4.979   0.250 -0.1920  0.0602  0.4183
 8568W        W25415  12.499   9.277  14.730  0.2734  0.0422 -0.1457
 8569W        W25416   3.447   8.734  15.780 -0.2926 -0.2327 -0.0591
 8570W        W25417   2.315   4.471  15.042 -0.1561  0.0698  0.4967
 8571W        W25418  16.439   2.756   1.874  0.0733 -0.3419  0.1696
 8572W        W25419  18.421  17.311   5.518 -0.1092  0.1255  0.0147
 8573W        W25420  15.930   0.917  14.203 -0.1514  0.0439 -0.0600
 8574W        W25421   7.216   6.654  14.011 -0.0214  0.0829 -0.2963
 8575W        W25422   1.346   0.506  11.392  0.4974  0.1002  0.0754
 8576W        W25423  10.859  14.011  12.225 -0.0407  0.2631 -0.1973
 8577W        W25424  13.987   2.915   2.589 -0.0717  0.2088  0.0741
 8578W        W25425   6.547  17.961   9.952 -0.0731  0.0181  0.1403
 8579W        W25426  11.284  18.100  13.746  0.1200  0.4051 -0.0368
 8580W        W25427   8.551  16.922  14.466 -0.0563  0.2188 -0.0066
 8581W        W25428   1.667  17.420   2.396  0.1008 -0.0443  0.1266
 8582W        W25429   8.034   2.313  11.004 -0.3588  0.2313 -0.2242
 8583W        W25430   8.794  12.074   5.700 -0.2273  0.0833 -0.0999
 8584W        W25431  16.355   1.020   2.262 -0.0888 -0.0509  0.1619
 8585W        W25432   6.314   1.344  11.700  0.2549  0.0061  0.0075
 8586W        W25433   5.321   6.996   2.613 -0.1985 -0.4380  0.3929
 8587W        W25434  17.535  15.247   0.184 -0.2182  0.0241  0.3411
 8588W        W25435   6.334   8.468   0.115  0.1063 -0.0018 -0.2220
 8589W        W25436  12.522  18.422  12.553  0.2223  0.1539 -0.0584
 8590W        W25437   8.074  14.408  11.727 -0.0547 -0.0820 -0.0876
 8591W        W25438  14.017  16.265   3.803 -0.1716 -0.0878 -0.2235
 8592W        W25439  15.713   5.014  11.143  0.0394  0.0454 -0.0309
 8593W        W25440  16.156   3.546  11.861 -0.0870 -0.3472  0.2610
 8594W        W25441   8.915  13.787   5.519 -0.4791  0.3385  0.4230
 8595W        W25442  11.332   5.867   1.081 -0.1956  0.1882 -0.0411
 8596W        W25443  15.402  14.739   2.981  0.1326  0.1098 -0.1641
 8597W        W25444   6.488  10.663  13.093  0.1907 -0.0247 -0.0331
 8598W        W25445   7.455   6.210   2.934 -0.0220 -0.2077  0.0120
 8599W        W25446  14.209   2.417   2.087  0.1590  0.1881 -0.0578
 8600W        W25447   9.597  12.318  15.892  0.1785 -0.1500  0.0742
 8601W        W25448   2.011   7.617  15.882  0.3666 -0.3370  0.0692
 8602W        W25449  17.644  11.236   1.369 -0.0593 -0.2940 -0.1945
 8603W        W25450   6.804  13.332   0.828  0.2154 -0.1643 -0.1450
 8604W        W25451   0.799  11.647  15.532  0.0290 -0.1277  0.2697
 8605W        W25452  16.437  16.795  12.753 -0.1332  0.0080  0.2379
 8606W        W25453  14.168  13.428   5.414 -0.1087  0.0806  0.1031
 8607W        W25454  11.695   0.874   3.041 -0.0061  0.1205  0.0931
 8608W        W25455  15.683  17.033   0.345 -0.2682  0.6557  0.0028
 8609W        W25456  11.988   3.282   3.283  0.0069 -0.5270 -0.1677
 8610W        W25457  11.046   0.481  12.434  0.2628 -0.1397  0.3547
 8611W        W25458   9.277   4.327   3.479  0.2719  0.1059 -0.0170
 8612W        W25459   2.042   9.407  12.179  0.1475  0.0286 -0.1119
 8613W        W25460   8.028  18.462  10.878  0.2754 -0.0938 -0.0350
 8614W        W25461  11.093  13.149   4.685  0.1106 -0.0731 -0.2336
 8615W        W25462   9.460   0.112  12.876  0.2078 -0.0464  0.2648
 8616W        W25463  15.146   9.602   3.676  0.2179  0.2585  0.0227
 8617W        W25464  11.274   8.074  14.310  0.1397 -0.0494  0.1962
 8618W        W25465   0.760   4.224   1.449 -0.0734 -0.0471 -0.0520
 8619W        W25466  14.386  14.004  14.715 -0.3534 -0.1027 -0.1402
 8620W        W25467   2.896  17.598  14.140  0.0895  0.1087 -0.0211
 8621W        W25468  12.986  17.581  12.572 -0.1585 -0.4469  0.4579
 8622W        W25469  14.803  10.664  13.467  0.0532 -0.2712 -0.0164
 8623W        W25470  16.323   2.612  15.778 -0.3250 -0.0272  0.0735
 8624W        W25471   1.716   2.514   2.527  0.2891  0.2236  0.0493
 8625W        W25472  15.535   9.051  13.043  0.0256  0.1097 -0.1530
 8626W        W25473  12.910  15.566   1.962 -0.1053  0.1264  0.0501
 8627W        W25474   2.617  12.222  14.532 -0.3220  0.0890 -0.2348
 8628W        W25475   6.334  17.312  11.895 -0.1872 -0.1410 -0.0328
 8629W        W25476   1.147  10.678  15.598  0.0183  0.0375 -0.1614
 8630W        W25477   0.544   1.587  11.166 -0.0283  0.0567  0.0530
 8631W        W25478   8.926   3.004  14.404  0.1539 -0.3363  0.0862
 8632W        W25479  17.607  15.408  12.192  0.2697 -0.3551 -0.0430
 8633W        W25480   0.924   9.805   4.447  0.1761 -0.0936  0.0683
 8634W        W25481   9.576   9.817  10.191  0.1911  0.2990  0.1537
 8635W        W25482   2.155  17.267  12.896 -0.0866 -0.1045  0.1346
 8636W        W25483   3.013   8.169  13.229  0.0584  0.3918 -0.1939
 8637W        W25484  14.963   1.841  14.361  0.2051  0.4088  0.1197
 8638W        W25485  11.766  14.653   1.076  0.0731  0.2005 -0.1852
 8639W        W25486  12.902  11.164  13.531 -0.0428 -0.0074  0.0324
 8640W        W25487  18.106   2.853   4.829  0.1682 -0.0379  0.2784
 8641W        W25488  16.318   3.822  12.832 -0.1671  0.0285  0.0556
 8642W        W25489  17.903  12.399  12.813 -0.1944 -0.0708 -0.0369
 8643W        W25490  17.399  16.772  11.598 -0.0851  0.3153  0.0392
 8644W        W25491  12.084  11.761   2.051 -0.0845 -0.1292 -0.2263
 8645W        W25492   4.001  11.944  12.207 -0.1463 -0.1716 -0.0661
 8646W        W25493   3.025  15.609   4.215  0.1911 -0.1037  0.1867
 8647W        W25494  16.512   3.292   4.146  0.0210  0.0255 -0.1756
 8648W        W25495  12.177   9.176  15.555  0.1218 -0.0054 -0.1991
 8649W        W25496  16.445  14.187   5.976  0.0018  0.0834 -0.0104
 8650W        W25497  18.077   4.754  15.065 -0.1702 -0.1183 -0.0622
 8651W        W25498  18.099   5.034   5.082 -0.0727 -0.0597  0.0713
 8652W        W25499  11.932  15.903   4.382  0.3163 -0.2126 -0.1973
 8653W        W25500   9.157  12.393   6.204  0.2074  0.1674  0.0264
 8654W        W25501   5.227   3.984   1.454 -0.0087 -0.0739 -0.0201
 8655W        W25502   5.872  12.819   1.535 -0.0838  0.1846 -0.1815
 8656W        W25503   7.014   0.619   1.944  0.0114  0.0621 -0.0415
 8657W        W25504  13.378   1.584   2.649 -0.1884  0.1240  0.0138
 8658W        W25505  14.433   1.988  12.165  0.0083 -0.0759  0.0174
 8659W        W25506   8.580  14.185   3.728  0.1543  0.0966 -0.0943
 8660W        W25507   6.507   6.133   2.649  0.1322  0.0582  0.0127
 8661W        W25508   7.839  10.046   2.953 -0.0276  0.0659  0.0064
 8662W        W25509   3.014   7.759  13.445 -0.0785 -0.1582 -0.4526
 8663W        W25510  10.240   0.115   3.041 -0.0393 -0.2195 -0.1723
 8664W        W25511   4.517   1.251   0.286 -0.0905  0.0228 -0.0949
 8665W        W25512  11.353   1.750   2.148  0.3249 -0.1610  0.1086
 8666W        W25513   7.573   7.328  12.338  0.0947  0.0681 -0.1195
 8667W        W25514  12.260   5.764   2.936 -0.5499  0.1268  0.3678
 8668W        W25515  18.277  10.770   3.732 -0.0694 -0.0265 -0.2729
 8669W        W25516   9.766  14.085  13.405 -0.2399  0.1076  0.0311
 8670W        W25517   7.554  11.880  14.490 -0.1312 -0.0650  0.0931
 8671W        W25518   2.770   1.980   4.218 -0.0373  0.0506  0.0184
 8672W        W25519   9.248   2.627  10.626 -0.1112 -0.3706  0.4225
 8673W        W25520  15.777   8.097   3.516 -0.0201  0.0591 -0.0426
 8674W        W25521  15.008   7.094   2.732 -0.0345  0.0213 -0.1374
 8675W        W25522  11.865  13.863  14.336 -0.0227 -0.1029  0.1674
 8676W        W25523   8.201  13.943  14.314  0.1686  0.0262  0.0167
 8677W        W25524   1.937   8.880   0.471 -0.2396 -0.1838 -0.1325
 8678W        W25525   4.240   3.551   5.804 -0.1084  0.0065 -0.0798
 8679W        W25526   7.848  15.676  11.398 -0.4370 -0.0835  0.0863
 8680W        W25527   1.323   5.719  11.560 -0.1812 -0.1105 -0.0485
 8681W        W25528   2.935  17.560   1.980 -0.1345 -0.1005 -0.0297
 8682W        W25529  16.970  13.887   4.323 -0.2517  0.2019 -0.0099
 8683W        W25530  16.117   3.631   2.622 -0.1256 -0.2993 -0.0480
 8684W        W25531   7.981   3.797   1.885 -0.2508 -0.2258  0.2123
 8685W        W25532  15.992  10.782   2.557  0.3333 -0.1404 -0.0636
 8686W        W25533   9.619  17.300   2.051 -0.0878 -0.0744  0.2738
 8687W        W25534   5.942   3.390   3.735 -0.1921  0.5332  0.0566
 8688W        W25535   5.905  14.619  15.729  0.1193 -0.1362  0.4126
 8689W        W25536   4.550  13.843   1.552 -0.3791  0.3528 -0.1782
 8690W        W25537   9.079   0.414  11.015  0.0507  0.0670  0.1445
 8691W        W25538   2.209  12.644   5.579 -0.3023 -0.0799  0.0028
 8692W        W25539   2.935  16.414   4.875 -0.1431  0.1132 -0.0114
 8693W        W25540  12.960   6.968  14.436 -0.0993 -0.1809 -0.3494
 8694W        W25541   0.011  16.826  13.025 -0.2175  0.1843 -0.1624
 8695W        W25542  17.855  11.941   0.212  0.4636 -0.0621  0.1110
 8696W        W25543  17.336  12.534  13.546 -0.2360  0.0339  0.0032
 8697W        W25544   7.658   3.365   3.270  0.0147  0.0362 -0.0518
 8698W        W25545   3.637  12.313  14.080 -0.0972  0.3445  0.3677
 8699W        W25546   1.893  17.084  14.242  0.2684  0.0369  0.2596
 8700W        W25547  12.755   7.088   2.047  0.1840  0.1114  0.0366
 8701W        W25548  14.387   0.660   2.916 -0.1323 -0.1235  0.0987
 8702W        W25549   6.689   4.172   3.811  0.3109 -0.1040  0.1260
 8703W        W25550   9.407  13.218  11.601  0.0741  0.2440 -0.2129
 8704W        W25551  18.014   2.220  12.044 -0.2148  0.0789 -0.3338
 8705W        W25552   1.229   3.130  13.716  0.2453  0.4743  0.0801
 8706W        W25553  17.743   8.701  15.543  0.4926 -0.0037 -0.2835
 8707W        W25554  12.348  15.161   2.647 -0.2278 -0.2167  0.0479
 8708W        W25555   1.218  14.749   4.650  0.2778 -0.2566 -0.1457
 8709W        W25556  13.205   1.971  13.188 -0.0679 -0.1015 -0.0192
 8710W        W25557  12.099  13.029   3.695 -0.3773  0.2535 -0.1428
 8711W        W25558  11.795  11.241   3.384 -0.0980  0.0278 -0.0289
 8712W        W25559   5.579   0.180  11.559  0.0226  0.1636  0.1432
 8713W        W25560   4.731   2.490  11.453 -0.3111 -0.0696  0.3194
 8714W        W25561  13.163  11.453  14.947  0.1456 -0.1366  0.1513
 8715W        W25562  16.559   4.641   1.268 -0.1881  0.0495  0.0459
 8716W        W25563  14.745  12.147  13.313 -0.0871 -0.3891 -0.0350
 8717W        W25564   2.822  13.556   3.782 -0.2018  0.0551  0.3195
 8718W        W25565   7.169   3.745  12.167 -0.3495 -0.4765 -0.2648
 8719W        W25566  13.276   8.386  15.333  0.0450  0.1104  0.2711
 8720W        W25567   6.779   1.344  11.496 -0.0026  0.2170 -0.0114
 8721W        W25568  12.198   9.914   0.256  0.1174 -0.1874  0.0931
 8722W        W25569  15.307  10.484   0.506 -0.1093  0.1090  0.1966
 8723W        W25570   0.202   3.945  14.192  0.1430 -0.1073 -0.1893
 8724W        W25571   6.497  12.062  10.931 -0.0188 -0.1303  0.0519
 8725W        W25572   9.318   4.752   0.462  0.0406  0.0925 -0.1446
 8726W        W25573  14.151   0.327   3.334 -0.0468 -0.0276  0.0491
 8727W        W25574   2.609   3.309  15.551  0.1237  0.1060  0.1738
 8728W        W25575  10.882  12.175   2.181  0.1140  0.1720  0.1149
 8729W        W25576   4.591   9.576  13.388 -0.0249  0.0666 -0.0366
 8730W        W25577  13.694   8.115   0.129  0.2300 -0.0575  0.2973
 8731W        W25578  15.242   8.151  11.641  0.1158  0.0915 -0.2436
 8732W        W25579  14.257   9.104  14.448 -0.1483  0.0612 -0.0029
 8733W        W25580  10.655  14.284   2.806  0.0044 -0.0555  0.1309
 8734W        W25581   7.723   9.872  11.850  0.3289 -0.1075 -0.1439
 8735W        W25582  15.486  11.448   3.213 -0.1521  0.0875  0.2443
 8736W        W25583   6.571  18.462  14.672 -0.0037  0.2024 -0.1972
 8737W        W25584  16.606  14.342   4.860  0.1704 -0.1509  0.3363
 8738W        W25585   5.659  10.750  13.106  0.1130  0.0940 -0.3482
 8739W        W25586   6.582   8.158   2.680 -0.0413 -0.2530 -0.0463
 8740W        W25587   2.464   0.240  13.363  0.3525  0.0585  0.2772
 8741W        W25588   9.020   1.232  13.025 -0.2725  0.0521 -0.5203
 8742W        W25589   2.915   9.585  12.658  0.2049 -0.2149 -0.4506
 8743W        W25590  15.692   8.985  14.895  0.0336  0.0202 -0.0503
 8744W        W25591  13.839  10.372   4.900 -0.1197 -0.2999  0.0670
 8745W        W25592   2.108   4.169  10.763  0.2134  0.3567 -0.1678
 8746W        W25593   2.077   2.237  13.935  0.1295  0.2522 -0.1148
 8747W        W25594   1.165   4.262  11.206 -0.0067  0.3594  0.0846
 8748W        W25595   6.853  12.581   0.615 -0.1747  0.0588 -0.2245
 8749W        W25596   4.741   4.750   5.542 -0.2766  0.0939  0.0901
 8750W        W25597  18.535   5.224   0.004  0.2213  0.2269  0.1223
 8751W        W25598   9.988   3.877  14.165  0.1472  0.2609  0.0667
 8752W        W25599  14.836  13.987  13.471  0.0034 -0.1168  0.0393
 8753W        W25600  10.504   9.975   3.108 -0.1261 -0.3348  0.0726
 8754W        W25601   5.951  15.547  15.697  0.0970 -0.3063  0.0777
 8755W        W25602  18.413   4.434  13.532  0.0091 -0.4679  0.0198
 8756W        W25603  18.404   2.085   4.001 -0.1311 -0.0505 -0.1808
 8757W        W25604   8.496  14.112  15.873 -0.1372 -0.4166 -0.1511
 8758W        W25605   9.985   0.880  13.080  0.0359  0.0348  0.2486
 8759W        W25606  13.607  14.922   2.966 -0.0634 -0.1064  0.0107
 8760W        W25607   5.572   2.071   5.188 -0.1422 -0.0069 -0.1400
 8761W        W25608   3.867   3.863  13.983  0.0600 -0.0891  0.2716
 8762W        W25609  13.350  17.891   1.008 -0.1457 -0.2432 -0.0914
 8763W        W25610   3.100  11.362   4.492  0.1532 -0.0076 -0.2622
 8764W        W25611  12.361   1.553  11.515 -0.3221  0.2762 -0.1781
 8765W        W25612   0.058  15.920   4.213 -0.1307  0.0617  0.3004
 8766W        W25613   2.053   8.467  13.258 -0.2194 -0.1807  0.1156
 8767W        W25614  11.857  17.193   4.382 -0.1182  0.1379  0.5626
 8768W        W25615   5.807  14.031  14.753  0.4768 -0.0911  0.0952
 8769W        W25616  10.092  12.763  13.837 -0.1592 -0.4906 -0.0171
 8770W        W25617   1.566   7.614   5.700 -0.0519 -0.2379  0.3688
 8771W        W25618   2.050   1.694   5.363 -0.0116 -0.0652  0.4569
 8772W        W25619  12.048   5.004   3.815 -0.0144 -0.0670  0.3569
 8773W        W25620   3.137   0.510  15.435  0.0282 -0.0719  0.1300
 8774W        W25621  16.005  15.299  13.793  0.2054  0.2875  0.2189
 8775W        W25622   0.641  11.741   4.426 -0.0938  0.1223 -0.4076
 8776W        W25623   6.042   7.337  13.230  0.1577  0.0682  0.2396
 8777W        W25624   1.802   7.041   1.257  0.0218 -0.0009 -0.1715
 8778W        W25625   0.334  15.595   3.858  0.1884 -0.1066 -0.0713
 8779W        W25626   7.733   3.792  14.486 -0.2106 -0.0255 -0.0321
 8780W        W25627   9.920   5.687   0.096 -0.0614  0.0805 -0.2087
 8781W        W25628   6.209   8.798   4.303 -0.0115  0.0972 -0.0562
 8782W        W25629  13.824   9.008  14.897  0.1989  0.0760 -0.0406
 8783W        W25630  15.383  10.919   0.253 -0.1735  0.1613  0.0731
 8784W        W25631   6.674   3.643   1.579  0.0113 -0.2824 -0.1142
 8785W        W25632   3.893   6.036   2.902 -0.0033  0.0395 -0.0076
 8786W        W25633   7.108  13.655  12.842 -0.2729  0.1489  0.0890
 8787W        W25634   7.790  13.098   0.767 -0.1395 -0.0242  0.1071
 8788W        W25635  14.854   4.471   3.865 -0.0836  0.1671  0.0012
 8789W        W25636  13.110   1.624  15.938 -0.1821  0.1076  0.0331
 8790W        W25637   3.633   7.098  14.939  0.4085 -0.1753 -0.0860
 8791W        W25638   5.836   9.518  12.219  0.1201  0.1555  0.2681
 8792W        W25639   8.082  14.056   1.815  0.1334 -0.0171 -0.2957
 8793W        W25640   0.231  16.947  14.694  0.1644  0.2226  0.0583
 8794W        W25641   4.485  12.676   5.140  0.2337 -0.3700  0.1091
 8795W        W25642   0.364   2.288  14.569  0.0840  0.0167  0.1776
 8796W        W25643   3.663  18.083  10.712 -0.2251  0.1603 -0.3266
 8797W        W25644  17.136   7.404   4.995  0.0453 -0.0006  0.0183
 8798W        W25645  15.862  11.052  10.743 -0.1380  0.1879 -0.0216
 8799W        W25646  15.443  16.052   3.089 -0.3514 -0.0343  0.2093
 8800W        W25647  12.852  13.247  12.912  0.0817 -0.1284  0.2763
 8801W        W25648   6.178   4.604   5.148 -0.2258  0.0559 -0.0965
 8802W        W25649   2.459   2.831   5.734 -0.1267  0.3049  0.0869
 8803W        W25650   4.108   6.394   4.604  0.0884 -0.0373  0.0014
 8804W        W25651  17.103   0.535   2.569 -0.1260  0.3725 -0.0851
 8805W        W25652   9.061  16.261  13.254  0.1862  0.0386  0.2032
 8806W        W25653   5.930  13.612   0.927  0.1814 -0.5395 -0.0155
 8807W        W25654  17.155   9.838   2.006 -0.2282 -0.3771 -0.0672
 8808W        W25655  15.893   2.907   1.866  0.0106  0.0306 -0.0305
 8809W        W25656  15.399   2.987  13.378 -0.0758 -0.3447  0.2993
 8810W        W25657  17.292   0.589   2.115  0.0483 -0.0439  0.1831
 8811W        W25658   1.243  15.147  12.862 -0.1152 -0.0673 -0.0108
 8812W        W25659   7.651   2.561   4.176 -0.1090 -0.1691 -0.0048
 8813W        W25660  12.693   9.770   1.889 -0.1869 -0.0521  0.0443
 8814W        W25661  17.930   3.320  13.426  0.0380  0.0013  0.0088
 8815W        W25662   4.430   9.245  12.450  0.1312 -0.0790  0.3649
 8816W        W25663  16.667   9.313  15.752  0.2902 -0.0144  0.0152
 8817W        W25664  11.713  13.375   0.331  0.1605  0.0084 -0.1178
 8818W        W25665   1.604  15.682  11.435 -0.0469 -0.2011 -0.0042
 8819W        W25666  16.733   7.410   4.608  0.2309 -0.0779 -0.0738
 8820W        W25667   0.979   9.130  11.332  0.1600  0.2043  0.1989
 8821W        W25668  16.346  11.062  15.167  0.0702  0.2117 -0.0609
 8822W        W25669  11.071   5.543   3.896 -0.2653 -0.1648  0.0373
 8823W        W25670   6.105   7.151  13.974  0.3796 -0.1444  0.2424
 8824W        W25671   3.966  13.197   5.527  0.1862 -0.2311  0.0795
 8825W        W25672  15.418   2.145  13.271 -0.0482  0.1972  0.0730
 8826W        W25673  14.616  12.142  12.834 -0.0239  0.2073  0.1668
 8827W        W25674  14.520   5.441  11.084 -0.0965 -0.3602  0.3293
 8828W        W25675  10.484   1.173   1.820 -0.1099 -0.0316 -0.0252
 8829W        W25676   1.497   1.774  14.662  0.2069  0.1824  0.1440
 8830W        W25677   2.364   0.443   1.398 -0.0518 -0.1056  0.1647
 8831W        W25678  17.176   7.745  11.700 -0.0057  0.0945 -0.1176
 8832W        W25679  17.287  18.280  15.331  0.1320 -0.0025  0.2505
 8833W        W25680  14.931   2.823  13.606 -0.0905 -0.3930 -0.1054
 8834W        W25681  16.037   7.500   1.697  0.1275 -0.0710  0.1197
 8835W        W25682  16.606   5.818   4.040 -0.0420  0.0003  0.2131
 8836W        W25683  16.967  12.954   3.407  0.2452 -0.1101 -0.1979
 8837W        W25684   4.104   0.789  11.507 -0.0926 -0.0205  0.2144
 8838W        W25685   7.413   7.391   2.095 -0.1030  0.2015 -0.1265
 8839W        W25686  18.139   0.769   1.025  0.0866  0.1470  0.3044
 8840W        W25687   1.726  14.281   2.577  0.0608 -0.0221 -0.0036
 8841W        W25688  16.388  14.357  11.772  0.0793 -0.1010  0.3606
 8842W        W25689   2.237  15.512   2.520 -0.3020  0.1508  0.1295
 8843W        W25690  14.957  11.538  15.572  0.0431  0.0628 -0.4895
 8844W        W25691  16.859  12.825   2.900  0.0911  0.0757  0.1323
 8845W        W25692  11.580   4.191   4.864 -0.1624 -0.2800  0.0326
 8846W        W25693   1.804  17.728   4.210 -0.0153 -0.2327 -0.1754
 8847W        W25694   9.115  16.004   2.288  0.1407 -0.2909 -0.2724
 8848W        W25695  15.152  10.992  15.618  0.2823  0.0265 -0.3616
 8849W        W25696   3.105  10.322  12.046 -0.3088  0.1306  0.0333
 8850W        W25697   4.336   4.304  10.446 -0.1476  0.1655 -0.0287
 8851W        W25698   2.529  14.252   0.114 -0.1859 -0.0872 -0.3424
 8852W        W25699   6.672  16.547  15.817 -0.1210  0.0712  0.1165
 8853W        W25700   5.852  15.101   3.527  0.0685 -0.0341 -0.1952
 8854W        W25701   4.127   3.288   0.817  0.2073  0.0682 -0.1586
 8855W        W25702  11.946   1.648  13.415 -0.0658 -0.0438 -0.0622
 8856W        W25703  13.532   7.290   2.222 -0.1221 -0.0316  0.4365
 8857W        W25704   4.667  18.127   3.946  0.0235 -0.0969 -0.0700
 8858W        W25705  14.923  12.667   2.337  0.0187  0.2497  0.0426
 8859W        W25706   6.064   5.759   1.424 -0.2083 -0.2545 -0.0966
 8860W        W25707   1.524  12.387  10.470  0.0578  0.1752  0.2952
 8861W        W25708  10.143  14.490  11.879 -0.2490  0.0108  0.1277
 8862W        W25709  10.896  18.384  13.532  0.1170 -0.1405  0.0593
 8863W        W25710   0.576   0.879   4.606  0.1286 -0.0588 -0.1095
 8864W        W25711   5.299   8.575  12.338  0.1966  0.1537 -0.0064
 8865W        W25712   0.866  11.823   3.051  0.0521 -0.4117  0.0720
 8866W        W25713  18.335   3.959   0.299 -0.1473  0.1596  0.0677
 8867W        W25714   0.511  14.126   1.772 -0.2765  0.1810  0.2819
 8868W        W25715   9.852  15.480  11.678 -0.0628  0.0850  0.0862
 8869W        W25716  12.135   6.876   2.277  0.2670 -0.2500 -0.2614
 8870W        W25717  16.417  12.496  10.615  0.2463  0.2845  0.1696
 8871W        W25718  13.155  14.398  15.725  0.1099  0.1948 -0.2273
 8872W        W25719   9.672   5.320   1.984 -0.1010  0.1362 -0.0118
 8873W        W25720   1.556  15.281   3.203 -0.0015  0.0186 -0.2964
 8874W        W25721   0.605  12.337  14.797 -0.1047  0.0645 -0.1880
 8875W        W25722  12.564  13.958   5.919 -0.0206  0.2724 -0.0782
 8876W        W25723   5.212   7.879   5.237  0.1705  0.0523  0.0105
 8877W        W25724   4.403   1.623  12.044 -0.1444 -0.0282 -0.1158
 8878W        W25725  11.625   7.549   4.961  0.2638  0.1436 -0.0026
 8879W        W25726  17.727   7.551  13.960  0.1838  0.3490 -0.0001
 8880W        W25727   6.418   2.597   4.674  0.0710  0.1221 -0.0584
 8881W        W25728  18.078   8.773   1.368  0.1130  0.1591  0.2317
 8882W        W25729   8.174   4.647   3.149 -0.1053  0.0624  0.2358
 8883W        W25730  10.501   6.318   3.413  0.0726 -0.0624  0.0355
 8884W        W25731   3.042   6.978   0.801 -0.0812 -0.3690  0.0929
 8885W        W25732   1.017  15.373  12.446  0.4848  0.0178 -0.0638
 8886W        W25733   5.064   4.815   0.644 -0.2386 -0.2667 -0.1536
 8887W        W25734   5.329  14.821  12.147 -0.0207  0.0104  0.3651
 8888W        W25735   4.856  16.345   0.861  0.2674  0.1039  0.0442
 8889W        W25736  16.075   0.826  12.733 -0.0031 -0.3207  0.1589
 8890W        W25737   8.023   3.296   1.270 -0.0957  0.2224  0.1280
 8891W        W25738   9.958  16.056   3.927  0.1455 -0.1790  0.2599
 8892W        W25739  12.011   2.750   1.416  0.2269  0.0149  0.0409
 8893W        W25740   2.611   0.081   5.135 -0.1780  0.4361 -0.0425
 8894W        W25741  12.481   5.390  14.669 -0.0131 -0.0620  0.1175
 8895W        W25742   2.901  11.759  13.217 -0.3054 -0.2630  0.0575
 8896W        W25743   9.738  11.092  15.466  0.1521  0.1677 -0.0292
 8897W        W25744   7.266   0.454  12.680  0.1561 -0.0197  0.1460
 8898W        W25745  15.485   5.291   5.049 -0.0557  0.1556  0.1918
 8899W        W25746  15.033   4.598   4.529 -0.1928  0.0410 -0.1644
 8900W        W25747   4.355  13.802  13.958 -0.2194 -0.1107  0.1837
 8901W        W25748  15.605   5.095   3.131 -0.0573  0.0825 -0.0696
 8902W        W25749   3.339   1.002  14.828  0.1224 -0.4992 -0.2194
 8903W        W25750   4.691  12.978  14.346 -0.0667  0.2292 -0.2254
 8904W        W25751  13.542  14.392   0.555 -0.3301  0.0552  0.1100
 8905W        W25752  16.767  10.758  14.747  0.2419  0.0785 -0.4872
 8906W        W25753   7.773   3.719  13.110 -0.0681 -0.0509 -0.1027
 8907W        W25754   9.587  15.836  13.001 -0.0956 -0.1634 -0.1209
 8908W        W25755  12.779  15.838  13.325  0.2417  0.3703  0.1028
 8909W        W25756  10.077   0.074   5.342 -0.0565  0.2212  0.0674
 8910W        W25757  11.923  14.001   3.043 -0.0942 -0.2110 -0.2091
 8911W        W25758   5.618   5.519  10.917 -0.0165 -0.2043 -0.2027
 8912W        W25759   4.390   8.400  14.501 -0.0834  0.3738 -0.3597
 8913W        W25760   7.695  12.220   1.535  0.2319 -0.3452 -0.1430
 8914W        W25761   1.935   8.948  12.061  0.1617  0.1017 -0.0405
 8915W        W25762  10.626  12.705  15.042  0.0598 -0.0590  0.2033
 8916W        W25763   5.533  10.851   4.625 -0.1135  0.4259 -0.0379
 8917W        W25764   2.714   9.824  15.208 -0.0026  0.0158 -0.0213
 8918W        W25765  13.278   9.622  14.437  0.1267 -0.0818  0.0809
 8919W        W25766   6.994  15.319  14.256  0.1758  0.0319 -0.1158
 8920W        W25767   4.506   4.546   4.228  0.1815 -0.0835  0.1106
 8921W        W25768   6.303  17.853   3.163  0.2084  0.0192 -0.1437
 8922W        W25769   1.033   0.126  11.325  0.0396 -0.3393 -0.1298
 8923W        W25770   2.168  16.110  14.970  0.2033 -0.0415 -0.0212
 8924W        W25771   1.527  15.802  15.431  0.1307 -0.3087  0.0862
 8925W        W25772   1.046  16.263  11.250  0.0210  0.1511  0.0714
 8926W        W25773   8.328  14.805  11.525  0.0461  0.2561 -0.3130
 8927W        W25774  16.514  15.282  13.734 -0.0879  0.1849 -0.1434
 8928W        W25775  16.296  18.301   4.924 -0.0366  0.0424 -0.1954
 8929W        W25776   4.066  16.681   2.842  0.2615  0.2286 -0.1654
 8930W        W25777  11.690  18.358  12.078  0.0138 -0.0214  0.1130
 8931W        W25778   8.512  10.219  12.569  0.0870  0.0121 -0.0858
 8932W        W25779  15.042  14.931  11.715  0.0724  0.2753  0.2139
 8933W        W25780  14.622  16.576  11.960  0.0773  0.1478 -0.0116
 8934W        W25781   6.834  14.211   5.850  0.2545 -0.1043  0.0842
 8935W        W25782  14.507   2.993   0.400  0.0760  0.0397 -0.1396
 8936W        W25783   3.618  11.919  13.069 -0.0489 -0.2944 -0.1621
 8937W        W25784   2.906  16.104   0.523  0.0605 -0.0952  0.1340
 8938W        W25785  15.694   2.319  11.783  0.0461  0.2102  0.1253
 8939W        W25786  13.316  12.523  12.087  0.0064 -0.0043 -0.1081
 8940W        W25787   3.320   6.933   3.542 -0.0654 -0.2805 -0.1033
 8941W        W25788  16.686   6.110   0.281  0.0056  0.0100 -0.2512
 8942W        W25789  17.343   9.051   5.177  0.2937  0.4285 -0.1063
 8943W        W25790   7.680  12.804  12.776 -0.3082 -0.0292  0.1922
 8944W        W25791  17.087   6.161  14.375 -0.0778  0.1090 -0.1185
 8945W        W25792  10.721   3.002  11.982 -0.1809  0.2728 -0.3589
 8946W        W25793   5.153  13.206   0.359  0.1413  0.1388 -0.3975
 8947W        W25794   2.601  15.122   2.780 -0.0590  0.1774 -0.0369
 8948W        W25795   0.914   7.193  13.504  0.0222  0.2771 -0.0280
 8949W        W25796   1.493  16.750   4.684  0.0563  0.1508 -0.3029
 8950W        W25797  17.060   1.271   4.119  0.0750  0.1361  0.3203
 8951W        W25798   4.188  15.937  13.350 -0.1116  0.3861 -0.0564
 8952W        W25799   4.122   7.742  14.502 -0.0342  0.0433 -0.0962
 8953W        W25800   1.618   1.398   3.594 -0.1356 -0.1845  0.3684
 8954W        W25801  15.240   9.409   1.495  0.0588  0.0404 -0.0119
 8955W        W25802  13.962  17.599   4.793  0.2119 -0.1300  0.3422
 8956W        W25803   2.249   2.048   5.701 -0.2964 -0.0576  0.2741
 8957W        W25804   4.254  11.010  12.615  0.0291 -0.0638 -0.0496
 8958W        W25805   8.363  12.175  12.391 -0.1496 -0.3290  0.1003
 8959W        W25806  18.312   0.455  11.965  0.2417 -0.4460 -0.0001
 8960W        W25807   1.989  10.761   1.169 -0.1590  0.3080 -0.0562
 8961W        W25808  11.481  17.555   2.296  0.0977 -0.0959 -0.0057
 8962W        W25809  17.619  13.810   0.822 -0.0284  0.1346 -0.2112
 8963W        W25810  12.395  16.499  14.467 -0.0204 -0.2735  0.1052
 8964W        W25811   9.147   2.311  14.873  0.0846  0.2653 -0.3938
 8965W        W25812   2.153  10.328   2.329 -0.3064 -0.1381 -0.0773
 8966W        W25813  16.653  13.518   4.241  0.1142 -0.2339 -0.0052
 8967W        W25814   8.782  10.400   2.245 -0.0577 -0.0969  0.1809
 8968W        W25815  11.801  14.911  13.846 -0.2753 -0.2177 -0.2421
 8969W        W25816   1.732  16.433  13.337  0.0042  0.0834  0.0254
 8970W        W25817   7.622  16.422   3.776 -0.1298  0.2228 -0.3736
 8971W        W25818   4.162   7.955  15.732  0.0795  0.0992 -0.1279
 8972W        W25819  18.231  10.706  13.923 -0.0062 -0.0780 -0.2280
 8973W        W25820   2.128   3.425   0.856 -0.0573  0.2120  0.1370
 8974W        W25821  15.768  12.908  14.451 -0.1057 -0.0324  0.0916
 8975W        W25822   8.533  11.891  13.298 -0.0275 -0.2087 -0.0969
 8976W        W25823   9.426   8.510   1.989 -0.1509  0.0211 -0.0767
 8977W        W25824   8.239   1.737   4.138  0.0841 -0.2689  0.1799
 8978W        W25825  13.808   4.220  15.255  0.0199  0.0622  0.0649
 8979W        W25826   7.169   2.601  11.062 -0.0157  0.0967 -0.1835
 8980W        W25827  11.394   1.204  13.104  0.1726 -0.3912  0.0016
 8981W        W25828  16.535   6.580   1.729 -0.1348  0.1552  0.1270
 8982W        W25829   9.008  16.372   0.557  0.2118 -0.0957  0.2188
 8983W        W25830  16.520   8.282   0.715 -0.0497  0.0693  0.3465
 8984W        W25831  13.160   7.066  15.076  0.1371 -0.2364  0.0363
 8985W        W25832   9.314  14.941  10.838 -0.1677  0.3148 -0.0225
 8986W        W25833  18.181   3.353   5.016  0.3269  0.2465 -0.2222
 8987W        W25834  16.875   2.779  11.568  0.0281  0.1795 -0.3836
 8988W        W25835   6.350  17.204   2.516 -0.0648  0.0701  0.1397
 8989W        W25836   9.264   2.665   4.232  0.1414 -0.0179 -0.0205
 8990W        W25837   4.020   0.047   4.072 -0.1923  0.0104 -0.0339
 8991W        W25838   1.727   6.551   3.137  0.1550 -0.0363  0.1137
 8992W        W25839   8.852   6.624  10.694 -0.1461  0.1378  0.2235
 8993W        W25840  17.832   6.662  13.761  0.2018 -0.1765 -0.2704
 8994W        W25841  10.323   4.215  15.679  0.0560 -0.1413  0.4062
 8995W        W25842  17.905   0.795  12.707  0.1113 -0.1494  0.2766
 8996W        W25843  15.304  12.273   0.176 -0.0644  0.0549  0.1097
 8997W        W25844  15.412   0.635  11.048  0.0285  0.1711  0.0908
 8998W        W25845  14.275  17.268  14.182  0.1732 -0.3223  0.2909
 8999W        W25846   4.946  16.666  14.124 -0.3575 -0.1896 -0.0442
 9000W        W25847   5.553  14.110  11.166 -0.2345  0.0914 -0.1692
 9001W        W25848  15.332   1.229  13.104 -0.3514  0.1731  0.0802
 9002W        W25849   0.547   7.749   0.861 -0.0174 -0.0235  0.1472
 9003W        W25850  15.108   0.240   1.478  0.1048 -0.2078 -0.0951
 9004W        W25851   7.333  17.542  14.150  0.1208 -0.2462  0.1006
 9005W        W25852   8.528   3.021  12.282  0.0358 -0.0297 -0.4420
 9006W        W25853  10.794  11.394  15.571 -0.0568  0.1124 -0.1039
 9007W        W25854   0.914  10.054  11.242  0.0844  0.1029 -0.0618
 9008W        W25855   4.441   7.170  12.920 -0.0086 -0.2173  0.1206
 9009W        W25856  16.876  12.786  14.525 -0.1682  0.2736 -0.0536
 9010W        W25857  16.222  13.828  12.945 -0.0607 -0.0396  0.1225
 9011W        W25858   7.290   3.462  11.729 -0.2066 -0.0844  0.1417
 9012W        W25859   6.753   5.641   3.345 -0.1570  0.0675  0.2535
 9013W        W25860  12.320   6.644  13.967 -0.1998  0.0173 -0.2763
 9014W        W25861  10.875  14.570  13.615  0.0560 -0.1227 -0.1430
 9015W        W25862   0.430   6.242  11.830 -0.2541  0.0459  0.0929
 9016W        W25863   9.861   8.666   1.677 -0.0329  0.2422  0.0728
 9017W        W25864  17.858   0.428  11.666  0.2642 -0.0611  0.0508
 9018W        W25865   7.741  13.551   4.706  0.0403 -0.0423 -0.0217
 9019W        W25866  10.225   2.740  10.476  0.0169 -0.3874  0.1623
 9020W        W25867  13.518   0.179   1.325 -0.3141 -0.2736  0.0959
 9021W        W25868   8.099   9.480  15.769 -0.1381  0.2843 -0.3133
 9022W        W25869  13.646  11.323  12.248  0.0470  0.0433  0.0785
 9023W        W25870  10.835  11.148  13.190 -0.4100  0.2263  0.3270
 9024W        W25871   8.654   0.228  12.630 -0.0410 -0.0671  0.0725
 9025W        W25872  16.146  16.000   1.025  0.2292 -0.0266 -0.2214
 9026W        W25873  16.689  11.759  13.451 -0.0685  0.0022 -0.0201
 9027W        W25874  16.171   1.246  11.954 -0.2084 -0.2017 -0.0371
 9028W        W25875  11.503   9.496   0.154 -0.3522 -0.2809 -0.1392
 9029W        W25876  15.520   3.750   2.659  0.1040  0.0870  0.0353
 9030W        W25877  15.828   9.626   4.807 -0.3182 -0.1048 -0.1553
 9031W        W25878   0.419  13.124   2.023  0.0382  0.1860 -0.1995
 9032W        W25879  10.737   3.257   2.071 -0.0792  0.1998  0.0848
 9033W        W25880   3.913   0.528  15.092 -0.2093  0.1827 -0.4723
 9034W        W25881   4.287  17.452  11.493  0.1353 -0.5259  0.2516
 9035W        W25882  13.657   8.575  12.856  0.2066 -0.2278 -0.1253
 9036W        W25883  11.147  14.102   2.713  0.1396 -0.1114 -0.1158
 9037W        W25884   7.326  14.787   0.570 -0.1880  0.2483 -0.1322
 9038W        W25885   0.105  12.647  12.295 -0.2193 -0.3314 -0.0593
 9039W        W25886  18.194   9.020  13.337 -0.3506 -0.1559 -0.1448
 9040W        W25887  13.499  15.526   3.991  0.0513 -0.2377 -0.1636
 9041W        W25888   1.746   6.840  13.878 -0.1344  0.0996  0.0247
 9042W        W25889   3.902   2.867   3.913 -0.1577 -0.4530  0.3326
 9043W        W25890   5.747  15.548  14.709 -0.3696  0.1211 -0.0550
 9044W        W25891  10.742   1.220  11.791  0.4027  0.0574  0.0701
 9045W        W25892   0.911  10.336   2.547  0.0356 -0.0463 -0.3046
 9046W        W25893  15.200  17.969   3.911 -0.1620  0.0436 -0.0099
 9047W        W25894  10.699  15.254  12.304 -0.1665 -0.1570 -0.1898
 9048W        W25895   4.166  13.530   4.231  0.2250 -0.2442 -0.5094
 9049W        W25896   8.670   7.525   1.429 -0.2922  0.3659  0.1260
 9050W        W25897  14.635  12.194   4.488  0.0041 -0.0948 -0.1495
 9051W        W25898  18.087   7.421   1.261 -0.2129  0.2478 -0.1446
 9052W        W25899   4.639   6.789  11.475 -0.1017 -0.0966 -0.2450
 9053W        W25900   4.227  17.553   0.577 -0.0842  0.2066 -0.0583
 9054W        W25901  15.231   0.933   3.654  0.1218  0.1652  0.0660
 9055W        W25902   3.502   7.712   4.836  0.1269  0.1398  0.0662
 9056W        W25903   5.012  12.812   1.405 -0.0499 -0.0572  0.0402
 9057W        W25904  11.672   7.715  13.759 -0.2835 -0.0793  0.0950
 9058W        W25905  12.401  10.870   0.766 -0.0442  0.1775  0.2629
 9059W        W25906  12.130   6.116   4.004 -0.0743  0.0160 -0.0136
 9060W        W25907  11.794   3.395  13.660  0.2185  0.0127  0.0080
 9061W        W25908  11.978  16.764  11.312 -0.1267 -0.2196  0.0688
 9062W        W25909  13.648   0.643  11.608 -0.0753  0.1254 -0.0684
 9063W        W25910  10.307  12.997  11.900  0.0802  0.3032 -0.1345
 9064W        W25911  11.257   9.013   4.093 -0.1266  0.0165  0.2421
 9065W        W25912   3.403   2.115   3.408  0.0547 -0.1153  0.0924
 9066W        W25913  12.920   4.484  13.084 -0.0946 -0.1179  0.2273
 9067W        W25914   0.932  12.592  13.887 -0.1729 -0.0022 -0.0675
 9068W        W25915   7.291  14.357   5.952 -0.1122  0.3582  0.1669
 9069W        W25916   4.373  12.541  13.782 -0.1680 -0.0973 -0.1068
 9070W        W25917   4.765   2.804   4.799 -0.1622 -0.0909  0.1640
 9071W        W25918   8.171  14.569   0.632  0.0485 -0.0869 -0.3622
 9072W        W25919  18.508  16.051  15.886 -0.0504 -0.1944  0.1794
 9073W        W25920   1.349  18.335  14.398  0.4059  0.1184  0.1191
 9074W        W25921   3.084   2.677  11.411  0.0357 -0.0263 -0.0130
 9075W        W25922  12.694  17.872   3.585 -0.1268 -0.1912 -0.2060
 9076W        W25923  16.660  12.572  14.957 -0.2859  0.1400 -0.0176
 9077W        W25924  13.046   9.427   5.161  0.1895 -0.0780  0.0120
 9078W        W25925   8.181   7.440   6.102 -0.1034 -0.2140  0.0257
 9079W        W25926   5.965   7.620  15.030 -0.1360  0.3112  0.1526
 9080W        W25927   2.147  12.410  13.121 -0.1889 -0.4240  0.0913
 9081W        W25928   7.841   7.213   0.453 -0.0832 -0.2079 -0.0169
 9082W        W25929   7.239  16.913   0.747  0.1807 -0.0055 -0.0111
 9083W        W25930  12.940  15.062   3.838  0.0408 -0.1201 -0.2498
 9084W        W25931  14.537  13.338   1.761 -0.0411 -0.1357 -0.1475
 9085W        W25932   3.593  13.825  14.703 -0.3661 -0.0664  0.5466
 9086W        W25933   1.781   7.738   4.410  0.1252 -0.0066  0.2588
 9087W        W25934   4.373   4.683   2.475 -0.1935 -0.4154  0.0138
 9088W        W25935   2.161   1.779  15.916 -0.1237 -0.0841 -0.1638
 9089W        W25936   4.558  13.383   4.581 -0.3012  0.2826 -0.1579
 9090W        W25937  12.445  12.679   2.590 -0.1205 -0.0532 -0.1887
 9091W        W25938  15.177   9.528  12.149  0.2085  0.1473 -0.2583
 9092W        W25939   0.966   7.853  12.841  0.3100 -0.1457  0.4642
 9093W        W25940   6.568  18.228  12.797 -0.2379 -0.3469 -0.3081
 9094W        W25941   2.610  15.539   0.625  0.1370 -0.2501  0.0766
 9095W        W25942   6.353   5.368   1.286  0.0048  0.0044  0.0025
 9096W        W25943  15.299   6.429   3.106  0.0949 -0.2601  0.2333
 9097W        W25944  11.373  18.117   5.274 -0.0948  0.0039 -0.0825
 9098W        W25945  16.922  11.247   3.427  0.0766 -0.1727  0.1676
 9099W        W25946   6.400  10.228   5.377 -0.2186  0.2391  0.1942
 9100W        W25947   5.161   1.089   3.782  0.0051  0.1863 -0.1739
 9101W        W25948  13.124   3.756   3.306  0.1278  0.0109 -0.1493
 9102W        W25949   6.079   4.113  11.028 -0.3121  0.1325  0.0165
 9103W        W25950   6.420   0.328  11.406  0.2294  0.3721  0.0271
 9104W        W25951  17.834  11.144   0.364 -0.0990 -0.2239 -0.0538
 9105W        W25952   5.452  10.291   5.378  0.0551  0.0196  0.0891
 9106W        W25953   2.382   4.514   4.637  0.2886  0.0003  0.0036
 9107W        W25954   8.588   3.021  15.831 -0.2257 -0.3762  0.0400
 9108W        W25955   9.468   2.820   0.990 -0.2049  0.2272  0.2416
 9109W        W25956  11.511   5.327   3.863 -0.2170  0.1488  0.1109
 9110W        W25957   5.910  15.829   2.061 -0.1063 -0.2180  0.0873
 9111W        W25958   9.038  18.417   2.479  0.1565  0.0334  0.3239
 9112W        W25959   0.962  17.132  12.476  0.2067 -0.4030 -0.0005
 9113W        W25960  11.023   5.262  11.742  0.1574 -0.3046 -0.1112
 9114W        W25961   8.771   7.733  12.624  0.1394 -0.0011 -0.3643
 9115W        W25962  10.228  10.752  14.129 -0.0709 -0.1433  0.2525
 9116W        W25963  15.374   2.507  13.664  0.0843 -0.1013  0.0368
 9117W        W25964  14.835   0.580   3.655  0.1251  0.0336  0.2664
 9118W        W25965   0.401   6.634   2.741  0.0057  0.0780 -0.0644
 9119W        W25966   2.565  10.868  14.507  0.3947  0.1797  0.1527
 9120W        W25967   5.594   4.285   0.181 -0.0331 -0.0679 -0.0120
 9121W        W25968  17.105  16.361  14.912 -0.3840 -0.0125  0.0375
 9122W        W25969   7.421   2.621  13.748 -0.4408  0.1156  0.0801
 9123W        W25970   2.821   1.133  14.454 -0.0630 -0.0955 -0.1928
 9124W        W25971   0.854  17.034   1.900 -0.2011 -0.1548  0.1989
 9125W        W25972   0.502  18.494  11.624 -0.0571 -0.0503  0.2818
 9126W        W25973   1.787  10.487   1.970  0.2211 -0.1341 -0.0206
 9127W        W25974  12.393   6.706   5.785  0.0456  0.0182  0.0131
 9128W        W25975   0.394  10.064  13.832 -0.0983  0.2125  0.0534
 9129W        W25976  18.369   2.972  13.700  0.2408  0.0538 -0.2949
 9130W        W25977  16.436   2.306  15.081  0.1201  0.0542 -0.0927
 9131W        W25978  10.789  10.812  12.247  0.1610 -0.0588  0.0471
 9132W        W25979   5.913  10.209   2.912 -0.3367 -0.2911  0.2171
 9133W        W25980  17.386  17.839   3.524  0.3306 -0.2523  0.0466
 9134W        W25981  12.713  14.081  12.489  0.0480 -0.1953  0.1684
 9135W        W25982   3.317   1.506   4.787 -0.1199  0.0144 -0.1693
 9136W        W25983  14.298  15.667   5.457 -0.3082  0.0329  0.0937
 9137W        W25984   9.736  15.194   5.472  0.1677  0.1667  0.0394
 9138W        W25985  10.801  12.259   1.096  0.0418  0.1650  0.0287
 9139W        W25986   0.914   1.652  12.088  0.3512 -0.1676  0.2698
 9140W        W25987  17.928  15.324  13.758 -0.2124 -0.2680  0.1103
 9141W        W25988   3.259   7.877  15.364 -0.0040 -0.1514  0.1028
 9142W        W25989   4.949  13.516  12.495 -0.1346  0.0273  0.1019
 9143W        W25990  15.851  17.700  15.223  0.1674  0.2168 -0.0413
 9144W        W25991  16.729   0.382  11.493 -0.3349  0.4863  0.2493
 9145W        W25992   0.765   3.842   0.541  0.2565  0.2363 -0.1893
 9146W        W25993  15.123  14.364   0.615  0.1907  0.3209  0.0195
 9147W        W25994  18.088  13.187   4.312  0.0776  0.3067 -0.1944
 9148W        W25995  14.086   7.234  15.083  0.2086  0.0396  0.0653
 9149W        W25996  17.477   3.820  15.778 -0.1716 -0.2680  0.2050
 9150W        W25997  18.000  13.592   1.059 -0.0971  0.0430  0.0639
 9151W        W25998  17.514   8.911   2.558  0.0304 -0.0956  0.1461
 9152W        W25999  17.457   0.760  13.848 -0.1401  0.3844 -0.0040
 9153W        W26000  12.293   8.635  15.365 -0.0652  0.0920  0.0174
 9154W        W26001  15.343   1.125   1.721  0.3369 -0.4231 -0.1435
 9155W        W26002  10.056  15.781   3.492  0.2886 -0.2276  0.0291
 9156W        W26003   3.441  11.144   0.857  0.0550 -0.0549  0.2317
 9157W        W26004   4.841  16.893  10.708  0.1136 -0.0993  0.0893
 9158W        W26005   2.193   5.064   0.866 -0.0861  0.1294 -0.1294
 9159W        W26006   5.480   0.535   2.448 -0.0641  0.1297 -0.1553
 9160W        W26007   1.186   1.532   3.853  0.0371 -0.1706 -0.0334
 9161W        W26008   0.814  15.045  11.572 -0.0294  0.1362 -0.4002
 9162W        W26009   6.331   2.524   1.801  0.2158  0.0742 -0.1253
 9163W        W26010  13.890   4.202   3.817 -0.0406 -0.1267 -0.3099
 9164W        W26011  10.807   8.523   3.532 -0.0598  0.0924  0.4165
 9165W        W26012   0.534   6.262  12.345 -0.1427  0.0069 -0.0605
 9166W        W26013  10.934  16.878   2.629 -0.0582 -0.1046  0.0177
 9167W        W26014  17.352  17.725  14.164  0.0811  0.0106 -0.0101
 9168W        W26015  14.631  13.010   4.001  0.2388  0.1445  0.0341
 9169W        W26016  12.740   4.671   0.228  0.1354  0.0151 -0.4181
 9170W        W26017   3.613   1.373   4.344 -0.2095 -0.0165 -0.2296
 9171W        W26018  13.852   4.087  12.507  0.0653  0.0939  0.3586
 9172W        W26019   4.188   4.160  14.772  0.0304 -0.2058  0.2289
 9173W        W26020   0.232   8.437   0.693  0.1190  0.0258 -0.1989
 9174W        W26021  10.376   0.138  12.410  0.1489  0.1311 -0.0840
 9175W        W26022  11.200   9.206  13.047 -0.1307 -0.2831 -0.3809
 9176W        W26023   1.047  17.359  13.703  0.0236 -0.1503  0.1319
 9177W        W26024  10.487  16.246  10.797 -0.0200  0.0491  0.0092
 9178W        W26025  17.203   5.563   5.924  0.2421 -0.0382 -0.0669
 9179W        W26026  11.220  17.333   5.442 -0.0211 -0.0684 -0.0814
 9180W        W26027  14.125  11.357   3.406 -0.0931  0.2840 -0.1503
 9181W        W26028   3.083  11.758  14.475 -0.0165 -0.2688  0.2461
 9182W        W26029  17.914   8.430  11.872 -0.0523  0.0674  0.0004
 9183W        W26030   4.585   8.360   3.462  0.1937  0.3275 -0.3260
 9184W        W26031   3.578  17.183   2.042 -0.3236 -0.1124 -0.0217
 9185W        W26032  18.512  12.902   0.361 -0.3326  0.1271  0.0195
 9186W        W26033   9.641  15.293   4.267 -0.0662  0.2281 -0.0810
 9187W        W26034  15.512   7.976   1.398  0.1713  0.1404 -0.2762
 9188W        W26035   0.902  10.125  14.804 -0.0943  0.1290 -0.2807
 9189W        W26036  11.063   2.703   1.816 -0.0516  0.0532 -0.0566
 9190W        W26037  15.315  15.051   4.432 -0.0872 -0.2728  0.0341
 9191W        W26038  15.616  14.584  14.793  0.2922 -0.0453 -0.0185
 9192W        W26039   6.065  17.538   1.103 -0.0469 -0.2752  0.0287
 9193W        W26040  13.677  16.154  10.702  0.0049 -0.0491 -0.0065
 9194W        W26041   8.052  13.118  11.469 -0.2020 -0.0293  0.2080
 9195W        W26042  16.495   6.579  15.416 -0.0628  0.1215 -0.4611
 9196W        W26043   7.151   5.318  13.709  0.0492 -0.0983 -0.1477
 9197W        W26044   0.922   4.379  12.672  0.0887  0.0899 -0.0838
 9198W        W26045   6.365  15.902   1.489  0.1717  0.1418 -0.1598
 9199W        W26046  15.744   1.344  11.545  0.1588  0.1066  0.0496
 9200W        W26047   4.651   3.473   3.349 -0.1009  0.1408 -0.1813
 9201W        W26048   0.523   7.924  11.697  0.1552  0.2488 -0.0667
 9202W        W26049   3.218  14.103  12.376  0.0716  0.0273  0.2468
 9203W        W26050   4.263  12.646  10.629 -0.1860 -0.3642  0.1242
 9204W        W26051  13.699   7.908   0.885  0.0141  0.1071 -0.1566
 9205W        W26052  15.844  12.155   3.790 -0.1033 -0.1550 -0.3905
 9206W        W26053  15.489   1.437  15.078 -0.0382 -0.0843  0.1590
 9207W        W26054  15.334   1.926   2.423 -0.1819  0.0153  0.1500
 9208W        W26055  12.941  15.319  13.721  0.1377  0.1249  0.1180
 9209W        W26056  12.600  15.137   5.431 -0.0775  0.3341 -0.1623
 9210W        W26057   6.970   5.609  11.316  0.0070 -0.0703 -0.0596
 9211W        W26058  10.264  12.550  14.683  0.1166 -0.3668 -0.0464
 9212W        W26059   0.082  12.214  15.347  0.2501 -0.2023 -0.1523
 9213W        W26060  13.218  11.787   3.314  0.1106 -0.1231 -0.0045
 9214W        W26061  17.730  11.341  12.662 -0.1356  0.0218 -0.2840
 9215W        W26062   6.084   1.330   1.160  0.1069  0.0187 -0.4232
 9216W        W26063   5.154   5.563   4.561 -0.2722  0.3188  0.1104
 9217W        W26064   3.264   3.388   2.550  0.2320  0.0542  0.0343
 9218W        W26065   4.884   1.595   2.499  0.1559 -0.2467 -0.1935
 9219W        W26066   6.597  15.445   1.472 -0.0816  0.1907 -0.1239
 9220W        W26067  10.532   0.214  13.333 -0.0547 -0.3749 -0.1553
 9221W        W26068   2.032  15.731   2.093 -0.3772  0.0116 -0.2002
 9222W        W26069   3.912   9.071  14.042 -0.0996 -0.0893 -0.3881
 9223W        W26070  12.488  15.579   4.183  0.1120  0.1228  0.1053
 9224W        W26071  16.229   3.236   2.968  0.2706  0.0744 -0.3126
 9225W        W26072  10.353   8.080  13.236  0.2308  0.0528 -0.1146
 9226W        W26073  14.095   0.123  14.073  0.0887 -0.1056  0.0520
 9227W        W26074   2.834   4.692   0.577  0.1760  0.3315 -0.0431
 9228W        W26075  12.625  11.741   0.339  0.0731 -0.2653  0.0405
 9229W        W26076  10.838  17.883   0.410  0.0075 -0.2117  0.0421
 9230W        W26077   3.159   3.815   1.198 -0.0270  0.0027 -0.2775
 9231W        W26078   6.842  17.160   2.715  0.1784  0.0019 -0.0067
 9232W        W26079   7.126  15.839  12.826 -0.0432  0.0114 -0.1942
 9233W        W26080   6.731  13.094   1.886 -0.5489 -0.1276  0.1250
 9234W        W26081   9.829   6.058  15.420  0.2199 -0.0877  0.0051
 9235W        W26082  14.892   3.856   2.181  0.1761 -0.2734  0.0620
 9236W        W26083   8.639   0.540   1.721 -0.1720 -0.1140 -0.1461
 9237W        W26084  18.348  17.565  14.530  0.1161  0.0341 -0.0408
 9238W        W26085  12.684  15.072   2.167  0.1080  0.0027 -0.4565
 9239W        W26086   3.295  16.303  13.076 -0.1120 -0.1456  0.1283
 9240W        W26087   4.472   8.541  13.681  0.1857  0.1191  0.1567
 9241W        W26088  13.883   9.743  13.805  0.0575 -0.2674 -0.0843
 9242W        W26089   9.607  10.639   2.245 -0.0006 -0.2192 -0.1998
 9243W        W26090   1.844   2.067   2.842 -0.1723  0.2246 -0.0439
 9244W        W26091  12.546   3.430   3.405 -0.2319  0.0928  0.0204
 9245W        W26092  15.507  18.010   4.466  0.0811 -0.0950  0.0198
 9246W        W26093  14.712   2.347   1.835 -0.3799 -0.1671 -0.0832
 9247W        W26094  10.148   1.522  14.528  0.0448  0.1067 -0.2085
 9248W        W26095  16.798  17.980   4.139  0.1719  0.0893 -0.2709
 9249W        W26096  12.458  16.599  11.106  0.1819  0.3265  0.1229
 9250W        W26097  11.342   8.172   0.812 -0.2001 -0.2766 -0.3049
 9251W        W26098   4.224   2.219   9.933  0.3107 -0.3016 -0.3384
 9252W        W26099   7.406   4.086  11.909  0.0436  0.0938  0.2253
 9253W        W26100  18.185   2.955   5.358 -0.0882 -0.0434 -0.0399
 9254W        W26101  11.514  12.789   2.538  0.1703 -0.1231  0.0871
 9255W        W26102  12.746   5.064   2.171  0.1168 -0.0545  0.1380
 9256W        W26103  11.971  13.477   5.323 -0.1618  0.0535 -0.0456
 9257W        W26104   6.949   9.280   1.931 -0.0232  0.0754  0.0055
 9258W        W26105   1.483  10.396  13.137  0.2859 -0.2207 -0.1644
 9259W        W26106   0.481   9.489  15.815 -0.0998  0.1187  0.2777
 9260W        W26107   5.926   8.561   3.767 -0.1432 -0.2378  0.2507
 9261W        W26108  12.383  13.792   3.122 -0.1055 -0.1408  0.0389
 9262W        W26109   2.370  16.815  11.357  0.3438 -0.2145 -0.2871
 9263W        W26110   7.399   6.511  14.451  0.0602 -0.0230 -0.2257
 9264W        W26111  15.254  11.485   4.730 -0.1914  0.2026 -0.2170
 9265W        W26112   4.849   2.912   4.130  0.4925  0.0275  0.0828
 9266W        W26113   8.132   8.963   4.484  0.0669 -0.0046  0.4861
 9267W        W26114  16.505   7.873   2.405  0.2420  0.1236 -0.0363
 9268W        W26115  12.188  11.682  12.359  0.0107  0.0269  0.1847
 9269W        W26116  17.391   7.778  15.935 -0.0274  0.0373  0.0180
 9270W        W26117  14.422  15.034   1.653  0.0130  0.2901  0.2786
 9271W        W26118  16.555  17.351   2.412 -0.1945 -0.1336  0.0374
 9272W        W26119  10.134  17.013   4.278  0.0860  0.2937  0.1311
 9273W        W26120   7.282  13.924   3.960 -0.0933  0.2702 -0.1765
 9274W        W26121  17.277   0.425  15.894 -0.1983  0.1325  0.1462
 9275W        W26122   1.737  12.102   5.149  0.1332 -0.0382  0.3103
 9276W        W26123  17.676  14.367   2.192  0.0973 -0.1590 -0.1127
 9277W        W26124  15.351  13.909  13.464  0.1697  0.2813 -0.0962
 9278W        W26125   8.303  14.167   5.152 -0.0431  0.1617 -0.2432
 9279W        W26126   5.417  11.275   2.578 -0.2270  0.2030  0.0492
 9280W        W26127   9.842  17.951  14.506 -0.0127  0.1444 -0.0921
 9281W        W26128  10.543  13.283   5.400  0.2546 -0.0135  0.0959
 9282W        W26129   6.978  10.174  14.296  0.0084 -0.3024 -0.0376
 9283W        W26130  12.972  13.267   2.559 -0.1253  0.0594 -0.1875
 9284W        W26131   1.748   3.822  12.956 -0.0286  0.0180  0.0413
 9285W        W26132  18.289  11.622  13.808 -0.2552  0.3240 -0.0348
 9286W        W26133   3.609  18.270   4.263 -0.0198  0.0978 -0.1226
 9287W        W26134  10.385   0.500   0.134  0.0155 -0.1270 -0.1396
 9288W        W26135  17.308   8.782  15.128  0.3961  0.3089 -0.1083
 9289W        W26136  13.745  13.438   1.479 -0.0949  0.1542  0.1165
 9290W        W26137  16.443  18.111  13.296  0.0027  0.0454  0.0444
 9291W        W26138   1.306   7.760   3.165  0.0693 -0.3163  0.2521
 9292W        W26139   7.703   0.051   0.792 -0.1078  0.0751 -0.0748
 9293W        W26140   3.756   8.635   4.903 -0.1016  0.0171  0.2303
 9294W        W26141  17.746   2.905  13.205 -0.3787 -0.0984 -0.0223
 9295W        W26142   2.248  17.320  11.104 -0.0186  0.2519 -0.3666
 9296W        W26143  14.413  11.037   3.118 -0.2614 -0.0462 -0.2605
 9297W        W26144  11.020   4.804  11.373 -0.1265 -0.0521  0.0620
 9298W        W26145   8.761   6.009   3.696  0.0538 -0.0402  0.3028
 9299W        W26146  16.008   7.417  15.611  0.1628  0.1785 -0.0742
 9300W        W26147   7.385  11.684  12.245 -0.0704  0.1167  0.0672
 9301W        W26148   4.715  13.925  11.255  0.0083  0.1761 -0.2960
 9302W        W26149   8.277  10.228   2.854 -0.2172 -0.2774 -0.2774
 9303W        W26150   6.494   9.767   0.314  0.0428 -0.3017 -0.0887
 9304W        W26151   9.967   2.198  15.152 -0.1608  0.0071 -0.1235
 9305W        W26152  18.450   0.665  13.663 -0.2449  0.3780 -0.1571
 9306W        W26153   8.900  17.047   1.698  0.2347 -0.1056  0.3706
 9307W        W26154   9.236   9.847   1.936  0.0343 -0.1156 -0.0385
 9308W        W26155  16.974  12.116  12.608  0.0253  0.1446  0.0675
 9309W        W26156   3.992  15.201  11.628 -0.1896  0.3413 -0.1265
 9310W        W26157   3.689   3.285   1.817 -0.0013 -0.2763 -0.0201
 9311W        W26158  11.682  11.244   1.147  0.2216  0.1217 -0.2273
 9312W        W26159  15.438  16.504  15.409  0.1364  0.1266  0.1329
 9313W        W26160   3.965   9.801   1.355 -0.0770 -0.3129 -0.0443
 9314W        W26161   4.718   0.159   3.442  0.2748  0.4394 -0.0736
 9315W        W26162  11.863   4.304   5.387 -0.0862  0.0524 -0.0899
 9316W        W26163  18.050   3.340  12.932  0.0761  0.2155  0.2842
 9317W        W26164   4.513   9.700  12.138 -0.3291  0.1243 -0.0063
 9318W        W26165  16.978   3.317   0.492 -0.2409  0.0023  0.0812
 9319W        W26166   9.927   2.912  12.117 -0.2885 -0.3251 -0.0450
 9320W        W26167  12.844   2.278  13.130 -0.1194 -0.0155  0.0185
 9321W        W26168  15.814   7.387  14.399  0.1138  0.0850 -0.3027
 9322W        W26169  15.511   9.857  13.266  0.2393 -0.1863  0.1175
 9323W        W26170  13.639  12.759  13.169 -0.1195  0.0106  0.1813
 9324W        W26171   4.583  13.675  11.644  0.1577  0.1445 -0.1687
 9325W        W26172  16.606   3.713   3.915  0.0564  0.2503 -0.1384
 9326W        W26173   8.382  12.183   0.707  0.0480  0.2626 -0.0293
 9327W        W26174   1.043   0.715   4.455 -0.1013  0.1618  0.0146
 9328W        W26175   9.245  17.382   1.572 -0.3666 -0.0616 -0.0887
 9329W        W26176  11.696   2.515   4.486  0.1803  0.2002  0.0982
 9330W        W26177  11.187   4.810   2.769  0.2506 -0.0820 -0.1373
 9331W        W26178  11.614   0.144  11.572 -0.1065 -0.2063  0.1420
 9332W        W26179   2.736   7.254  13.602  0.2906 -0.0602  0.0376
 9333W        W26180   3.537  14.925  11.632  0.1514  0.2854 -0.2441
 9334W        W26181  17.988  16.609  14.167 -0.2720  0.1164 -0.3631
 9335W        W26182  14.814   8.923   2.591 -0.0335  0.2334  0.0951
 9336W        W26183   5.814   1.912   0.234 -0.2263 -0.0903  0.0526
 9337W        W26184  16.353   6.769   5.325  0.0927  0.2122 -0.0492
 9338W        W26185  11.554  15.826  11.522  0.2577 -0.1680 -0.2902
 9339W        W26186  13.343  13.400   3.865  0.1759 -0.0148 -0.0177
 9340W        W26187  17.345   1.557   3.725  0.1690  0.1225  0.0688
 9341W        W26188   1.521  15.526   1.937 -0.0303 -0.0464  0.0481
 9342W        W26189  11.355  11.134  15.485 -0.0692 -0.1446  0.1503
 9343W        W26190   7.746  18.295  15.019 -0.0172  0.1507 -0.4149
 9344W        W26191   7.314  12.814  15.403  0.0645  0.0110 -0.0226
 9345W        W26192  15.453   1.351   0.114  0.0655 -0.1763  0.0806
 9346W        W26193  10.764   6.381  14.508  0.3194 -0.0097 -0.1227
 9347W        W26194  15.335   6.194   3.720  0.0460 -0.0518 -0.1741
 9348W        W26195  10.056   9.282  15.228 -0.0486 -0.0298 -0.1321
 9349W        W26196   6.981  11.371   3.373  0.1932 -0.0689 -0.2100
 9350W        W26197  18.080   7.783   4.745  0.0082  0.1169 -0.1600
 9351W        W26198   9.071  17.603   4.506 -0.1134 -0.0966  0.0069
 9352W        W26199   3.899  14.849   0.708  0.2322 -0.1470  0.3014
 9353W        W26200  14.102  11.381   2.858 -0.0394  0.1421 -0.0271
 9354W        W26201  10.345  16.339   4.021 -0.0411 -0.2124 -0.0482
 9355W        W26202   5.015   8.071  14.836  0.0883 -0.1168 -0.4603
 9356W        W26203  12.852  10.371  12.165 -0.0485  0.0005 -0.2133
 9357W        W26204   8.075   5.783  12.800 -0.1437  0.0192 -0.2591
 9358W        W26205   2.567   7.447  11.705 -0.1664 -0.0857 -0.1794
 9359W        W26206  12.054   8.083  12.148 -0.1166 -0.0011  0.4325
 9360W        W26207  14.195  13.256   4.247 -0.1853 -0.0754 -0.0188
 9361W        W26208   3.119   3.615   3.894  0.0573  0.0431 -0.0727
 9362W        W26209  15.651  14.458  12.544 -0.1108 -0.1293  0.1173
 9363W        W26210  14.464  15.260  12.749 -0.6337  0.0974 -0.2413
 9364W        W26211   9.611   3.465  10.784 -0.1383  0.2129  0.0399
 9365W        W26212  12.965   1.681   0.480  0.2067 -0.4061 -0.0886
 9366W        W26213  15.726   1.905  15.250 -0.0586 -0.2929  0.1225
 9367W        W26214   8.014   0.273   3.318 -0.2535  0.1712 -0.0685
 9368W        W26215  14.753   3.651  12.511 -0.1109 -0.1109  0.1375
 9369W        W26216   6.803   1.249   2.368 -0.1688  0.0017  0.0779
 9370W        W26217   3.848  10.467   3.820 -0.0410  0.0701  0.0459
 9371W        W26218  11.132  16.222   2.394 -0.1439  0.1488 -0.0377
 9372W        W26219   1.255   0.274   4.849  0.0517 -0.5705  0.0291
 9373W        W26220   7.753   9.270  15.112 -0.4481  0.2927  0.1751
 9374W        W26221   1.917   3.025   3.394  0.1182 -0.2427  0.2798
 9375W        W26222   1.108  12.059  13.847  0.3532  0.1260  0.0087
 9376W        W26223  17.979   8.755  14.741 -0.0551 -0.2222  0.1225
 9377W        W26224  14.892   6.004  14.994  0.2744  0.1112 -0.0262
 9378W        W26225   2.519   6.324  12.312  0.0241  0.2250  0.0809
 9379W        W26226   4.555   6.514   5.246 -0.0762 -0.1042 -0.1155
 9380W        W26227  11.555  11.337  12.099 -0.1903  0.1808  0.0494
 9381W        W26228  15.982   1.468  14.995  0.1376  0.2205 -0.0190
 9382W        W26229  16.977   8.316   0.025 -0.2209  0.1713  0.1938
 9383W        W26230   7.469  14.372  11.106  0.2583  0.0847  0.1763
 9384W        W26231   4.170   3.978  12.045  0.1518  0.0497  0.2281
 9385W        W26232   4.498   7.240  15.419 -0.0118  0.0828  0.1074
 9386W        W26233  14.957   7.051   5.261 -0.1238  0.3419  0.1929
 9387W        W26234  11.746   4.065  10.493  0.2132  0.1572  0.2241
 9388W        W26235  15.268   6.692   3.578 -0.2758 -0.0671  0.2195
 9389W        W26236   6.087   4.344  12.464 -0.1540  0.1379 -0.3234
 9390W        W26237   2.115  14.784   3.686 -0.3531  0.0467 -0.0591
 9391W        W26238  10.136   6.752  15.940 -0.0870  0.0448 -0.0197
 9392W        W26239  16.931  12.084  14.850 -0.2258 -0.1061  0.0653
 9393W        W26240   6.645  14.226   5.096 -0.3226  0.1292 -0.1735
 9394W        W26241  13.234  16.606  14.589  0.0346 -0.0478 -0.1167
 9395W        W26242  14.687   6.841  13.557 -0.1346 -0.3108  0.2703
 9396W        W26243   7.639   5.194  14.813 -0.0767  0.4280  0.0508
 9397W        W26244  15.904   6.564  12.420  0.3844  0.0911  0.2061
 9398W        W26245  12.124   0.936   2.800 -0.2381  0.2427 -0.2005
 9399W        W26246  14.126  15.033   5.396  0.0339 -0.1516 -0.2608
 9400W        W26247   7.708   8.252   1.752  0.1692  0.2097 -0.0526
 9401W        W26248   6.702  18.061   2.052  0.2961 -0.0405 -0.0424
 9402W        W26249   6.670  15.525   2.468  0.3325  0.0647  0.2998
 9403W        W26250   9.210  17.806  13.470  0.2025  0.0640 -0.1731
 9404W        W26251  16.323   8.581   1.767 -0.0390  0.0790  0.0044
 9405W        W26252   9.876   8.637  13.108 -0.0640  0.1302  0.1149
 9406W        W26253   9.583  13.622  14.651 -0.0272 -0.1592  0.0207
 9407W        W26254   2.921  14.036   2.183  0.0560 -0.3544 -0.1146
 9408W        W26255   0.933   1.695   4.395 -0.0646 -0.0249 -0.2716
 9409W        W26256  17.187  15.221  12.627 -0.1689  0.3623 -0.0848
 9410W        W26257  12.302   9.244  11.614  0.2329 -0.1158  0.2429
 9411W        W26258  16.270  12.873   4.253 -0.0088  0.1726  0.1868
 9412W        W26259  15.804   6.460   0.534 -0.0895 -0.2256  0.0311
 9413W        W26260  16.034  10.574  14.139  0.0040  0.0985 -0.0248
 9414W        W26261   5.591   6.520  12.814 -0.2336  0.1307  0.0086
 9415W        W26262   0.068  17.025   2.336 -0.1911  0.0197  0.1899
 9416W        W26263   7.953  15.845   5.840  0.0387  0.1308 -0.0299
 9417W        W26264   7.549  15.269  11.525  0.0905  0.3246 -0.0921
 9418W        W26265  14.998  14.622   4.128  0.0659  0.4067 -0.1880
 9419W        W26266  10.046  16.596  14.630 -0.1206 -0.1001 -0.1713
 9420W        W26267  10.498  10.230   2.647  0.0091 -0.1401  0.1544
 9421W        W26268   8.771  12.820   3.546 -0.1080  0.1582  0.0308
 9422W        W26269  14.874  13.449   4.845 -0.0844  0.2161 -0.3363
 9423W        W26270   5.562   3.136   3.548 -0.0058 -0.0953  0.0466
 9424W        W26271  18.424   9.576  14.129  0.3298  0.0718 -0.0979
 9425W        W26272  11.195  17.298  14.647 -0.3113 -0.1280 -0.1684
 9426W        W26273  16.034   6.071  10.819 -0.0003 -0.1720 -0.0918
 9427W        W26274  12.368   7.675  13.863  0.0831 -0.0403 -0.0642
 9428W        W26275  14.401  12.030   2.669  0.0945  0.1183  0.2744
 9429W        W26276  12.251  15.430  14.492 -0.0418 -0.1433 -0.1289
 9430W        W26277   1.669  14.018   4.034 -0.0294 -0.5051  0.0808
 9431W        W26278   4.594  14.699   1.082  0.3500 -0.1040  0.0166
 9432W        W26279   9.353  15.807  13.485 -0.0208 -0.1937 -0.1702
 9433W        W26280   6.924  12.472  14.694 -0.1031  0.4588  0.2232
 9434W        W26281   0.353  17.236   4.808 -0.0004 -0.0307  0.0065
 9435W        W26282   3.998  18.127   6.048  0.1885  0.1579  0.2056
 9436W        W26283  16.854  16.980   4.884 -0.2650  0.0341 -0.1598
 9437W        W26284   3.285   6.000  14.754  0.1583  0.1092  0.0548
 9438W        W26285   4.727  15.589   1.601  0.1150  0.2296  0.1728
 9439W        W26286  11.504  11.736   4.116  0.2530 -0.0120  0.1960
 9440W        W26287   0.091  15.558  10.317  0.1351 -0.0263 -0.1647
 9441W        W26288   8.765   5.599   2.366  0.2992  0.2907 -0.1248
 9442W        W26289   1.575   4.612  14.064 -0.1822 -0.2336 -0.1742
 9443W        W26290   8.207   0.923  14.075  0.2764  0.1169 -0.1636
 9444W        W26291   3.738   5.447   5.008  0.0830 -0.0505  0.0860
 9445W        W26292   4.743  10.395   5.050  0.1756 -0.0728  0.3800
 9446W        W26293   9.279  14.320   0.417 -0.1405 -0.0638  0.1547
 9447W        W26294  17.864   9.838  13.520  0.0452  0.0482  0.0184
 9448W        W26295   6.466   9.078   3.968 -0.3591 -0.2689  0.3330
 9449W        W26296   5.342   0.879   2.783  0.2384 -0.0746  0.0799
 9450W        W26297   0.415  13.863  11.471 -0.1011 -0.4494  0.0827
 9451W        W26298   5.035  14.451  15.438  0.0321  0.2958  0.0731
 9452W        W26299  14.834   3.499  11.677  0.2874  0.0753  0.2014
 9453W        W26300   5.534   9.561   2.378  0.2475 -0.2177  0.2553
 9454W        W26301   7.858   9.806  13.867 -0.3437 -0.0627 -0.0845
 9455W        W26302  16.100   5.368   0.559 -0.0580 -0.1239  0.1183
 9456W        W26303  15.379   8.672   1.885 -0.0145  0.1855 -0.2105
 9457W        W26304  12.271  14.420  12.847  0.2812 -0.0534 -0.3425
 9458W        W26305   1.809   2.711  15.779 -0.0784 -0.0328  0.0322
 9459W        W26306   8.934   2.490   2.446  0.2622  0.3323 -0.4225
 9460W        W26307   6.553  17.732  12.689  0.2657 -0.0556 -0.1084
 9461W        W26308   2.176  17.350   3.687  0.0919 -0.2280 -0.4142
 9462W        W26309  16.879  16.052   1.969 -0.0537  0.0352  0.0558
 9463W        W26310   1.046  18.092   0.971 -0.0694  0.2820  0.1664
 9464W        W26311  11.012  15.222   3.068  0.0037 -0.1867 -0.1586
 9465W        W26312   9.984   3.246  15.546  0.1962 -0.0548 -0.1845
 9466W        W26313  16.632   6.065  11.726  0.0028  0.0734  0.0392
 9467W        W26314   8.175  11.536  13.992 -0.1111 -0.1652 -0.1677
 9468W        W26315   5.788  11.348   3.092  0.0102  0.1929 -0.1264
 9469W        W26316   0.936  15.728   1.223 -0.2901  0.3315 -0.0494
 9470W        W26317  12.647  15.028   4.913  0.0360  0.1194  0.1133
 9471W        W26318   3.938   6.758  14.784 -0.0035  0.0874 -0.0454
 9472W        W26319  17.505   9.994   4.805  0.0195  0.1922  0.0511
 9473W        W26320   7.445   0.949  12.612 -0.0580 -0.2530 -0.4978
 9474W        W26321   1.654  12.529  14.773  0.2524 -0.3091 -0.4048
 9475W        W26322   2.564  16.958  11.941  0.0048  0.1200  0.1834
 9476W        W26323  13.972  12.088   1.427  0.0776  0.2216 -0.1772
 9477W        W26324   0.530   5.169  14.006 -0.0964 -0.3098 -0.0524
 9478W        W26325   4.611   4.752   0.329 -0.2386  0.1935  0.0155
 9479W        W26326  16.156   3.040   2.331 -0.0249 -0.2137  0.2863
 9480W        W26327   4.139  18.330  14.101  0.0823 -0.0817  0.0597
 9481W        W26328   4.871   1.871   5.225 -0.1489 -0.0480 -0.1881
 9482W        W26329  15.754   2.727  15.678  0.0022 -0.1197 -0.1203
 9483W        W26330  11.864  10.224   1.806  0.1538 -0.1871 -0.0913
 9484W        W26331   2.890   6.557   1.686  0.1076 -0.1750  0.1225
 9485W        W26332  12.626  17.691   3.128 -0.2613  0.0616  0.3361
 9486W        W26333  13.558   0.579   0.256  0.0076 -0.1044 -0.0221
 9487W        W26334  13.390  16.234  14.196  0.0279 -0.1567  0.2915
 9488W        W26335   1.898  15.950   1.637 -0.1965  0.0614 -0.1611
 9489W        W26336  14.142   0.026  14.618  0.0944  0.0104  0.0222
 9490W        W26337   3.377   9.466   5.087 -0.2963  0.1226  0.0351
 9491W        W26338  10.350   7.918  14.283 -0.0472 -0.0770  0.0050
 9492W        W26339   8.839   9.786   1.609  0.0140 -0.0206 -0.0615
 9493W        W26340   2.709   2.568   0.963 -0.0923  0.2873 -0.1143
 9494W        W26341  11.131   1.400  14.899 -0.1203 -0.3889 -0.1233
 9495W        W26342   9.033  18.407  12.854  0.1191  0.0141 -0.0489
 9496W        W26343   5.905  16.247  13.948 -0.0153 -0.2249  0.1777
 9497W        W26344  15.056   0.261   4.447  0.0641 -0.0615  0.1806
 9498W        W26345  16.601   4.153   3.696 -0.3325 -0.1068  0.1317
 9499W        W26346   1.067   4.697   0.832 -0.0853 -0.1723 -0.2534
 9500W        W26347  18.390  14.354  13.719 -0.3960  0.1121 -0.2010
 9501W        W26348   3.672   6.316   1.662 -0.1696 -0.0634 -0.1820
 9502W        W26349   7.613  11.042   0.939 -0.4331  0.1326 -0.1687
 9503W        W26350   0.207   6.253  15.902  0.1632  0.0039  0.1161
 9504W        W26351   6.312   1.592  13.448 -0.4578 -0.1762  0.0443
 9505W        W26352  12.248  13.536   2.327 -0.4224 -0.0638 -0.0571
 9506W        W26353  15.780   2.860   4.285 -0.2610 -0.1319 -0.1444
 9507W        W26354  15.567  10.132   1.941  0.1976 -0.0044  0.0051
 9508W        W26355   6.377  12.584  15.717 -0.1709  0.1379 -0.1840
 9509W        W26356   7.829   4.826  10.891 -0.0443 -0.0085  0.0617
 9510W        W26357  11.516   8.337   5.148  0.1782 -0.0663 -0.2914
 9511W        W26358   6.196   4.996   5.952 -0.2671 -0.0867 -0.0304
 9512W        W26359   0.606   0.145   3.509 -0.0194 -0.3274 -0.0409
 9513W        W26360   7.683  12.472  11.968  0.0139  0.2146 -0.0886
 9514W        W26361   1.754   0.985  11.623 -0.1613 -0.0172 -0.2038
 9515W        W26362  12.045   8.799  13.267  0.0403 -0.2181  0.0505
 9516W        W26363   5.286   3.633  14.142 -0.0916  0.3986 -0.3091
 9517W        W26364   6.314   0.705   3.578  0.2298 -0.2506 -0.2023
 9518W        W26365   6.900  13.527   3.429  0.1465  0.0181 -0.0284
 9519W        W26366  18.453  18.207   2.592 -0.2555  0.0946 -0.1557
 9520W        W26367   8.465  14.658   3.009  0.1597  0.2762 -0.2171
 9521W        W26368  17.429   6.846  15.038  0.3149  0.0326 -0.1002
 9522W        W26369  13.059   7.585  15.584  0.1154  0.2024  0.2988
 9523W        W26370   2.649   9.577   1.925 -0.2554 -0.2265 -0.3378
 9524W        W26371   3.902   9.523  15.316 -0.1161 -0.1339 -0.1624
 9525W        W26372  13.881   9.776   3.232  0.0766  0.1373  0.1627
 9526W        W26373   4.371  14.795   3.504 -0.5628  0.2149  0.1178
 9527W        W26374   0.406   2.277   4.223 -0.1213  0.1929 -0.0375
 9528W        W26375  11.052  15.088  11.161 -0.3130  0.1312 -0.1061
 9529W        W26376  17.483   7.656  12.985  0.1803  0.0832  0.1676
 9530W        W26377   9.833  12.364  13.806 -0.1191  0.0993 -0.1870
 9531W        W26378  10.645  15.159   3.484  0.0006 -0.0864 -0.1774
 9532W        W26379   8.466  12.059   1.966 -0.3941 -0.0379  0.1193
 9533W        W26380   8.159  12.020  11.485  0.3129 -0.2919 -0.0833
 9534W        W26381  17.286   7.880   0.953  0.3024 -0.1172 -0.0048
 9535W        W26382   7.624   9.457  15.580 -0.1093  0.1041  0.2352
 9536W        W26383  13.353   4.387  13.380 -0.1907  0.0396 -0.0884
 9537W        W26384  17.843   4.075  15.496 -0.2976 -0.0170 -0.1546
 9538W        W26385   3.709   4.117  15.586  0.3449  0.2501 -0.0777
 9539W        W26386  18.161   2.183  11.141  0.0472 -0.0546  0.0239
 9540W        W26387  13.876   9.458  13.364  0.0779  0.2333  0.0223
 9541W        W26388   2.739   7.382  14.921  0.0754  0.0880  0.2945
 9542W        W26389   8.549  14.050   1.729 -0.2689 -0.0720 -0.1092
 9543W        W26390  10.210  16.673  10.945  0.0294 -0.0870 -0.0989
 9544W        W26391  13.020   3.989  13.036  0.1479 -0.1387 -0.2803
 9545W        W26392  15.233  14.525  12.089 -0.1414  0.3005 -0.0798
 9546W        W26393   9.254   6.956   2.899 -0.0924 -0.1207  0.1805
 9547W        W26394   9.550  12.720   3.811  0.2177  0.1249  0.0996
 9548W        W26395  16.266  17.794   3.595 -0.0308 -0.3595  0.1643
 9549W        W26396   3.919   7.924  11.439 -0.1222 -0.2665  0.0029
 9550W        W26397  16.798   9.678   1.098 -0.1746 -0.0311  0.0500
 9551W        W26398   2.270   6.986  11.106 -0.3380 -0.0411 -0.1264
 9552W        W26399   1.035  10.214  15.725 -0.0996 -0.1985 -0.1214
 9553W        W26400  16.630   3.251   0.927 -0.0088 -0.2095  0.0617
 9554W        W26401  17.877   3.491  12.029  0.1366 -0.0383  0.2812
 9555W        W26402  10.526  15.715  15.822 -0.3857 -0.1306 -0.2209
 9556W        W26403   4.250  15.867   1.374 -0.1467  0.1335  0.0583
 9557W        W26404  12.609   6.273   1.725  0.2505 -0.0486 -0.1761
 9558W        W26405   3.369   4.700   2.354 -0.3288 -0.1438  0.0272
 9559W        W26406   0.601   3.098  13.481  0.1272  0.0579 -0.1136
 9560W        W26407   1.909  18.159   2.461  0.0809 -0.0169 -0.0061
 9561W        W26408   3.790   4.253   0.494 -0.0048 -0.1730  0.1178
 9562W        W26409  16.044   9.687  15.116 -0.2406  0.1310  0.0212
 9563W        W26410   7.354  12.445   0.633 -0.1282  0.0493 -0.1608
 9564W        W26411  15.263   9.683   2.724  0.1012 -0.5554  0.0254
 9565W        W26412   3.012   3.893   4.504  0.0326 -0.1346 -0.2835
 9566W        W26413   7.802   9.202   0.151 -0.1843 -0.1793  0.0309
 9567W        W26414   1.393  17.966   4.455 -0.2583 -0.1303 -0.2061
 9568W        W26415   3.294   7.259   0.227 -0.1743  0.2044  0.0493
 9569W        W26416   6.091  16.500  14.947 -0.0830 -0.0738 -0.0908
 9570W        W26417  17.528  17.752  14.725  0.2605 -0.1836 -0.1144
 9571W        W26418  18.203   6.333  13.559  0.0167 -0.0565  0.1446
 9572W        W26419  15.484   5.743  12.738 -0.0748  0.0492 -0.0922
 9573W        W26420  15.287   1.408   1.087 -0.0429  0.0842  0.5068
 9574W        W26421  16.743  18.529   4.980  0.0155 -0.0822 -0.2352
 9575W        W26422   6.608   2.539   2.960 -0.0226  0.2758  0.0324
 9576W        W26423   8.427   8.504  15.502  0.0882  0.1388  0.0853
 9577W        W26424   1.962   4.537  12.923 -0.1604 -0.1020 -0.0375
 9578W        W26425   1.077  17.656   2.584 -0.0347  0.0903 -0.2710
 9579W        W26426   0.606  12.898   2.464 -0.1895  0.0313  0.0564
 9580W        W26427   2.981   7.706  12.936 -0.1493 -0.1733  0.0622
 9581W        W26428   5.956  11.551   0.363  0.3274  0.0993  0.0583
 9582W        W26429  16.161  14.453   1.566  0.1029  0.0759 -0.0925
 9583W        W26430  15.157  13.418  13.812 -0.2902 -0.0050 -0.3461
 9584W        W26431   5.668  10.562  11.669  0.0233 -0.1231  0.0870
 9585W        W26432  12.253   6.091  13.173 -0.0296  0.1268 -0.2468
 9586W        W26433   2.012  15.543   1.304 -0.1223  0.4964 -0.0020
 9587W        W26434  11.524   7.032  14.230  0.0762 -0.1759 -0.0085
 9588W        W26435  11.715   5.113  13.150  0.1842  0.0927 -0.0354
 9589W        W26436   9.783   1.846  10.498 -0.3998 -0.1267  0.1431
 9590W        W26437   9.023  16.483   5.401  0.3790 -0.2994  0.0565
 9591W        W26438  10.749   2.870  12.624  0.0525 -0.0974 -0.3615
 9592W        W26439  16.853  18.440   3.902 -0.1399 -0.0733  0.0441
 9593W        W26440   2.532   1.719  11.331 -0.0067 -0.0483  0.0976
 9594W        W26441   9.293  14.448   3.264  0.0499  0.1550 -0.1625
 9595W        W26442  16.529   3.305   3.630 -0.1250 -0.0326  0.1935
 9596W        W26443  11.331   5.380   1.430 -0.0807 -0.2503  0.1275
 9597W        W26444   4.185  16.742   4.351 -0.3332 -0.1028 -0.0987
 9598W        W26445  16.162  13.226  14.705  0.0368  0.0666 -0.0705
 9599W        W26446  17.678   3.255   4.892  0.0228 -0.0088  0.2640
 9600W        W26447   8.294  16.681  13.975 -0.2365  0.1836 -0.0403
 9601W        W26448  13.406  12.935   2.237 -0.3645 -0.1770  0.0821
 9602W        W26449  17.368  10.353   2.695 -0.1554  0.0297 -0.1666
 9603W        W26450  16.919   6.008  11.266  0.2099  0.0691  0.3084
 9604W        W26451  12.842   0.792  11.120 -0.2585  0.2886  0.0599
 9605W        W26452   1.315  10.571   0.096 -0.2724  0.0560 -0.0974
 9606W        W26453  17.224   9.910   2.523  0.1154  0.3123  0.1253
 9607W        W26454  11.538  16.719  15.789 -0.0809  0.0444  0.0463
 9608W        W26455   4.747   4.782  11.926  0.1641 -0.0406 -0.0869
 9609W        W26456   9.730  10.932   1.685  0.1599  0.1902 -0.0824
 9610W        W26457  16.232   7.493   3.363 -0.0137  0.3310  0.1293
 9611W        W26458   4.151   4.839   4.495  0.0412  0.2242  0.0905
 9612W        W26459   9.097  10.988   4.845  0.1442  0.1049  0.1960
 9613W        W26460   8.259   7.089   4.875 -0.0894  0.1041  0.1001
 9614W        W26461   4.186   8.407  15.415  0.0885 -0.0862  0.1181
 9615W        W26462   5.677   9.617   4.723 -0.0095  0.2284  0.1536
 9616W        W26463   6.910   8.213   4.587  0.0053 -0.3865 -0.0769
 9617W        W26464  16.852   1.800  15.611  0.0645 -0.1247  0.1174
 9618W        W26465   8.951  12.641   1.215 -0.1077  0.0178 -0.2034
 9619W        W26466  12.128  13.362   0.585 -0.0115 -0.2357 -0.1615
 9620W        W26467  12.701   4.600  11.389  0.1898 -0.0678 -0.1526
 9621W        W26468   2.773  16.683   5.228  0.0843 -0.2558 -0.1879
 9622W        W26469   8.065   6.742   3.891  0.2936  0.0286  0.1326
 9623W        W26470  10.361   8.384   2.401  0.0990  0.0686  0.0858
 9624W        W26471  14.317   9.247   4.185  0.0360  0.0357 -0.1218
 9625W        W26472   9.189   5.052  12.977  0.2844  0.0533  0.1302
 9626W        W26473   9.436   3.576  10.186  0.2367 -0.1957  0.1038
 9627W        W26474   6.972   7.955   4.190  0.1014  0.4861  0.0503
 9628W        W26475   5.191   0.852  15.130  0.1187  0.1279  0.0317
 9629W        W26476   2.933  18.144   3.512  0.1405  0.1781  0.2757
 9630W        W26477  15.014  13.521   0.858  0.1384 -0.0412 -0.2816
 9631W        W26478   0.610  17.403  14.109  0.0904 -0.2057 -0.0960
 9632W        W26479   2.396  16.007  13.321 -0.2257 -0.0923  0.3615
 9633W        W26480  10.982   5.520  12.976  0.6084 -0.0207  0.2826
 9634W        W26481  15.086  13.205  15.107 -0.3064  0.3359 -0.0162
 9635W        W26482   5.837   9.484   5.880  0.0079 -0.0347  0.1010
 9636W        W26483   6.846   7.352  14.249 -0.1048  0.1853  0.0310
 9637W        W26484   7.752   1.466  11.389 -0.3445  0.1142  0.1420
 9638W        W26485   9.816   7.975  12.030  0.1869 -0.3315 -0.2558
 9639W        W26486  12.489  11.770   4.524 -0.0340 -0.0677 -0.0672
 9640W        W26487  17.417   2.041   2.733  0.0908 -0.2153 -0.0992
 9641W        W26488   2.323   0.627  13.805 -0.1460  0.1806  0.3007
 9642W        W26489   0.516   6.764  13.173  0.0062  0.0849  0.0585
 9643W        W26490  16.960  15.616   0.402  0.1491 -0.2011  0.1545
 9644W        W26491   2.333  13.289   4.203  0.0792  0.0439 -0.1581
 9645W        W26492   2.829   1.270  11.164 -0.0669  0.0640  0.3073
 9646W        W26493  12.727  10.679   0.357 -0.0614 -0.1524  0.1934
 9647W        W26494  17.808   1.198   3.256  0.1507 -0.2486  0.0671
 9648W        W26495   4.556   2.385  13.927 -0.0733  0.4044 -0.1593
 9649W        W26496  15.736  10.714  14.937 -0.0902 -0.0516 -0.1033
 9650W        W26497   8.749  17.050  14.921  0.1284  0.0047 -0.0179
 9651W        W26498  16.133   7.819  11.732 -0.4086 -0.0207 -0.2293
 9652W        W26499  11.264  12.915   3.250 -0.3922 -0.1754 -0.1264
 9653W        W26500   9.631  14.770   0.447 -0.0096 -0.2548 -0.0733
 9654W        W26501  11.980   7.366  11.355  0.0172 -0.0850  0.2042
 9655W        W26502  17.959   0.430  15.141  0.0500 -0.2102 -0.2895
 9656W        W26503   4.737  12.037  15.364  0.0940 -0.0435  0.2329
 9657W        W26504  16.989  16.829  11.181  0.1293  0.4832  0.0595
 9658W        W26505   8.778  10.099  12.991 -0.1254 -0.1029  0.2855
 9659W        W26506  15.277  13.918  12.374  0.1631  0.0019 -0.2007
 9660W        W26507   2.712   4.882   4.870 -0.1798  0.1633 -0.0144
 9661W        W26508   8.876   3.459   3.781 -0.0187 -0.4251 -0.0365
 9662W        W26509   0.915  16.608  11.628 -0.0538  0.0684 -0.1398
 9663W        W26510   6.271   9.109  12.854 -0.0574  0.1493  0.1352
 9664W        W26511   6.614  15.181  14.608  0.0321  0.2835  0.1014
 9665W        W26512   6.296   7.899   5.375  0.2327 -0.0837 -0.0915
 9666W        W26513  16.729  17.330  11.980  0.0453  0.1470  0.3543
 9667W        W26514  13.998   3.275  15.837  0.1237  0.3087 -0.0309
 9668W        W26515  17.651   7.393  15.820 -0.3306 -0.1072  0.0574
 9669W        W26516  15.931   6.955   0.548 -0.0886  0.1587 -0.1293
 9670W        W26517  12.039   2.272   0.631  0.0971 -0.3732 -0.3581
 9671W        W26518  15.357   5.079  11.559  0.0357  0.0237 -0.1746
 9672W        W26519   3.869  12.114  13.579 -0.0051  0.0883  0.0428
 9673W        W26520  18.202  12.577   3.165  0.1093 -0.5308 -0.1372
 9674W        W26521  18.163   8.325  12.742  0.2138  0.3029 -0.4729
 9675W        W26522   0.283   3.021   3.297  0.1539 -0.1574 -0.1648
 9676W        W26523   8.056  16.456   3.315  0.3045 -0.0800 -0.1416
 9677W        W26524  10.484   4.625  12.125  0.1918 -0.1022  0.3633
 9678W        W26525   4.276  14.491   2.648  0.0703 -0.4584  0.2636
 9679W        W26526  10.005   6.231   5.943 -0.0493  0.3261  0.0403
 9680W        W26527  16.103  13.950   3.741  0.1059 -0.2117  0.2042
 9681W        W26528   2.564   3.027   0.968  0.0914 -0.1683  0.0926
 9682W        W26529   1.939  10.091   3.164 -0.1321  0.0329  0.0826
 9683W        W26530   3.244   1.995   2.568  0.2382  0.0386 -0.1474
 9684W        W26531   1.054   1.860   3.485 -0.0012  0.1716  0.0469
 9685W        W26532   7.774  13.760   0.807 -0.2153 -0.2374  0.2501
 9686W        W26533   5.526  17.742   3.939  0.1790 -0.1381  0.1810
 9687W        W26534   7.742  17.222  14.914  0.0871 -0.0025 -0.2992
 9688W        W26535   2.991  13.569  14.275  0.0337 -0.0717 -0.1309
 9689W        W26536  15.616   4.599  11.848  0.2115  0.2031 -0.1870
 9690W        W26537  13.612  11.696  14.012 -0.3270 -0.1385 -0.1120
 9691W        W26538  11.433  11.413  13.322 -0.1891  0.0819 -0.4637
 9692W        W26539  10.039  15.591   5.693 -0.1848 -0.2104  0.2430
 9693W        W26540   7.632   3.641  12.267  0.0446  0.0288  0.0914
 9694W        W26541  13.538   4.650   3.824  0.0298  0.4485  0.1670
 9695W        W26542  10.607  14.349   3.751 -0.1251  0.0236  0.0248
 9696W        W26543  15.368   3.710  10.966 -0.1494 -0.1231  0.2330
 9697W        W26544  18.186  12.038  15.136 -0.1151  0.1057  0.3286
 9698W        W26545   0.378  17.297  15.687  0.2870 -0.0070  0.1028
 9699W        W26546  15.146  10.369   1.786 -0.1134  0.0990 -0.0869
 9700W        W26547  11.473  15.605  12.710  0.2322  0.0811 -0.1450
 9701W        W26548   1.752  13.632   1.327 -0.0415  0.1708  0.2267
 9702W        W26549   7.514  16.459  15.216  0.6147  0.3352 -0.2072
 9703W        W26550  15.196   4.740  13.029 -0.1012 -0.0977 -0.0116
 9704W        W26551  14.997   2.810  15.115  0.0353 -0.2587  0.2668
 9705W        W26552   6.598   5.545  10.998  0.3599 -0.0384  0.0744
 9706W        W26553  15.108  17.057  15.246 -0.0576 -0.2587 -0.2948
 9707W        W26554  14.515   4.083  11.043  0.5134  0.0173 -0.0683
 9708W        W26555  16.463  14.391   3.745 -0.1734 -0.1621  0.3161
 9709W        W26556   6.772  10.916   3.245 -0.0302 -0.1393  0.0649
 9710W        W26557   4.946   6.789   2.854  0.0216  0.0228 -0.0516
 9711W        W26558  10.103   6.625   1.387 -0.2924 -0.0256 -0.0010
 9712W        W26559   4.443  18.401  12.848 -0.1028 -0.0870 -0.1245
 9713W        W26560  15.079  17.026  12.769  0.0375 -0.1261 -0.1267
 9714W        W26561  17.928   1.016   5.339  0.0138  0.0482  0.1834
 9715W        W26562  14.897  14.054   4.155  0.2721  0.2048  0.3012
 9716W        W26563  14.381   3.266  11.692  0.1765 -0.0758 -0.0884
 9717W        W26564  10.676   9.234  13.016  0.1474 -0.2769  0.1944
 9718W        W26565   8.688   9.080   2.328 -0.2301  0.1626 -0.1727
 9719W        W26566   6.349   7.182   4.113  0.0242 -0.1534  0.0948
 9720W        W26567  14.377   7.069   2.053  0.0286 -0.1169  0.2829
 9721W        W26568  14.718  10.294   5.272  0.0779  0.0988  0.0355
 9722W        W26569   3.129   0.096   2.437  0.2878  0.1481  0.2507
 9723W        W26570   3.684   6.242   3.303 -0.0796 -0.1872 -0.0969
 9724W        W26571   3.367  15.381   2.133 -0.1889  0.0344  0.0125
 9725W        W26572   3.321   9.689  13.878 -0.1113  0.0040  0.2959
 9726W        W26573   3.803   8.707   1.629  0.2191  0.1027  0.1161
 9727W        W26574  17.094   5.690  13.591 -0.0075 -0.1476  0.2285
 9728W        W26575   4.454  14.345  14.778  0.0038  0.3271  0.3620
 9729W        W26576   1.404   8.608   1.304  0.1459 -0.0642  0.0397
 9730W        W26577  13.285   8.647  11.972 -0.0424  0.0547 -0.0846
 9731W        W26578   5.358   9.527   5.129 -0.1930  0.1811 -0.1197
 9732W        W26579   2.646  15.153  15.743  0.3997  0.1235  0.1466
 9733W        W26580   3.128   0.473  12.717 -0.0196 -0.1984  0.0489
 9734W        W26581  14.509  11.932  11.903 -0.3039  0.0704 -0.1936
 9735W        W26582  15.149   1.024  14.408  0.1959 -0.2306 -0.1068
 9736W        W26583  18.036  17.243  15.294 -0.0476  0.1830  0.2358
 9737W        W26584   7.438   0.011  14.298  0.0561  0.1867 -0.0121
 9738W        W26585   8.425  10.325   1.909  0.1510 -0.0244  0.2471
 9739W        W26586   4.065  13.428  14.628 -0.0641  0.1366  0.1727
 9740W        W26587  15.379  16.646  12.901  0.2273 -0.0338  0.2148
 9741W        W26588   0.217   4.304   0.192 -0.1344  0.3007  0.0352
 9742W        W26589   7.749  10.044  14.967  0.0350 -0.0857  0.0364
 9743W        W26590   6.706  12.837  11.887 -0.0249  0.0571  0.0929
 9744W        W26591   9.405  14.355  15.890 -0.0744 -0.1845  0.2993
 9745W        W26592  14.336   5.380   3.852  0.1150  0.0790 -0.3245
 9746W        W26593   6.998  16.569  15.386 -0.1455  0.0879 -0.0806
 9747W        W26594   1.323   8.795   0.827  0.1658 -0.0477 -0.0474
 9748W        W26595  13.326   8.849  13.159  0.1030  0.0233  0.2315
 9749W        W26596  10.823   8.189  14.114  0.0089  0.2286 -0.0474
 9750W        W26597   2.910  13.578  13.204 -0.0174 -0.1841  0.3082
 9751W        W26598  17.342  14.272   4.272  0.2639  0.1103 -0.0776
 9752W        W26599   6.950  15.749   5.483 -0.0737 -0.2664  0.1485
 9753W        W26600   1.896   3.462  12.170 -0.1373  0.0577 -0.1922
 9754W        W26601  13.023   2.538   1.429 -0.0415  0.4244  0.0587
 9755W        W26602   2.321   2.706  15.897 -0.0839 -0.1260 -0.0515
 9756W        W26603   3.846   7.469  12.997  0.4858  0.3917 -0.3364
 9757W        W26604  10.690   8.748   1.138  0.2197  0.1067  0.0666
 9758W        W26605   4.802  11.064   1.844 -0.1089  0.2619 -0.1984
 9759W        W26606   5.774  14.477   4.343  0.0931  0.2181 -0.1466
 9760W        W26607   9.281   4.110  14.790 -0.2983 -0.0910  0.4944
 9761W        W26608  13.883  13.678   2.785  0.0320  0.1413 -0.2199
 9762W        W26609   4.236  16.869  11.027 -0.0243  0.0003 -0.2198
 9763W        W26610  12.052   2.600   2.799 -0.4400 -0.2712  0.0969
 9764W        W26611  17.632  17.273   4.966 -0.0952 -0.1648  0.2062
 9765W        W26612   2.538  11.807   2.287 -0.2890  0.1332  0.2052
 9766W        W26613   4.345   0.918  14.925  0.0487  0.0192 -0.1442
 9767W        W26614   7.461  13.397   2.640  0.0206 -0.0649  0.1011
 9768W        W26615   2.142   6.842   2.997  0.0450 -0.0486  0.0304
 9769W        W26616  11.290  13.627   2.795 -0.0564 -0.2706  0.0087
 9770W        W26617   2.462   8.563   5.069 -0.1381  0.1385 -0.4473
 9771W        W26618   9.214   5.360  11.355 -0.2352 -0.1172  0.2835
 9772W        W26619  17.429  10.219   2.191 -0.3407  0.1990  0.1138
 9773W        W26620   1.872  13.796   0.539  0.1533 -0.0616 -0.1183
 9774W        W26621  14.667   8.244   1.001  0.0051 -0.3307  0.0293
 9775W        W26622   7.125  17.014  11.530  0.1289 -0.0274  0.3415
 9776W        W26623   6.222  11.343  15.885 -0.0754 -0.2876  0.1587
 9777W        W26624   9.240   6.214   3.701 -0.0265 -0.0483  0.1791
 9778W        W26625  16.163  11.335   0.816  0.1147 -0.0117 -0.0762
 9779W        W26626   8.747  11.652   5.440  0.0365 -0.0244 -0.2332
 9780W        W26627  15.282   7.285  12.074 -0.1740 -0.0905  0.2148
 9781W        W26628  10.365   8.875  14.278 -0.0447  0.2761 -0.4389
 9782W        W26629   2.322  17.469  12.488 -0.2896 -0.3463  0.2702
 9783W        W26630  14.283  12.997  13.012 -0.1538  0.1106 -0.1257
 9784W        W26631  11.651  10.539   5.407 -0.1755  0.1303  0.0481
 9785W        W26632   5.174  10.806  13.455  0.0971  0.3086 -0.0699
 9786W        W26633  14.252  18.351   0.251 -0.0740 -0.0352 -0.2568
 9787W        W26634   5.420  13.436  15.454 -0.2718 -0.1003 -0.3020
 9788W        W26635  12.689  11.700  13.800 -0.0334  0.1378  0.0640
 9789W        W26636  13.151   5.931  13.627  0.2881 -0.1691  0.1616
 9790W        W26637   5.804   2.230  13.459  0.0331 -0.3351  0.3075
 9791W        W26638  12.648  15.522   5.060  0.0235  0.2756  0.0111
 9792W        W26639   4.829  18.225   2.217 -0.2663  0.1895  0.0553
 9793W        W26640   1.533  16.531   1.288 -0.4767 -0.2477 -0.0947
 9794W        W26641   0.248  14.428  12.146  0.2020 -0.1214 -0.1486
 9795W        W26642   5.363   2.630  12.361 -0.0765 -0.1038 -0.1019
 9796W        W26643   7.757   1.874   1.491 -0.2185  0.0024 -0.3676
 9797W        W26644  16.410  14.687  15.570  0.2679  0.3103 -0.1230
 9798W        W26645  12.542   9.040  14.154  0.0380  0.2587 -0.0059
 9799W        W26646   2.028  14.571   0.110  0.0340 -0.1425 -0.2722
 9800W        W26647  11.492   9.344  13.545  0.2179  0.0690  0.2089
 9801W        W26648   2.850   8.023   0.523  0.1605  0.1904 -0.0562
 9802W        W26649   4.470   0.656  13.873  0.0912 -0.1209 -0.0481
 9803W        W26650   5.222  15.992  15.291 -0.1434 -0.4886 -0.0453
 9804W        W26651   0.257  13.200  12.797  0.1379  0.1240 -0.1431
 9805W        W26652   7.944  15.124  12.293  0.0010  0.1738 -0.0090
 9806W        W26653  17.548  16.518   6.340 -0.0737 -0.1173 -0.2617
 9807W        W26654   6.464   0.262   0.739  0.2345  0.2616  0.1513
 9808W        W26655   0.746  17.425   6.188  0.0470 -0.1072  0.3163
 9809W        W26656  18.307  15.555   0.958  0.1150 -0.1049  0.4017
 9810W        W26657  11.722   1.211  12.248  0.0940 -0.0561  0.0073
 9811W        W26658  15.765   6.329   3.978  0.0485 -0.2338  0.0829
 9812W        W26659  12.602  14.183   5.431 -0.2723 -0.0116 -0.0530
 9813W        W26660   2.703  14.411   3.281  0.1797 -0.2734  0.1903
 9814W        W26661  16.491   1.557  14.854  0.1274 -0.0180 -0.1569
 9815W        W26662   3.329   5.332  14.018 -0.2704  0.0451 -0.0029
 9816W        W26663   3.399  16.481  14.386 -0.3023  0.0718 -0.0220
 9817W        W26664  12.358   6.619  13.076  0.1471  0.1226  0.2114
 9818W        W26665  12.829  12.408  14.645 -0.0100 -0.1669 -0.3168
 9819W        W26666  16.553  10.077   0.874  0.0997 -0.2024  0.3127
 9820W        W26667   2.286   1.882  10.426 -0.1191 -0.2364  0.3155
 9821W        W26668   1.611   8.522   4.267 -0.1370 -0.4225  0.2357
 9822W        W26669  16.872   0.644  14.491 -0.0114 -0.0857  0.1962
 9823W        W26670  14.783  14.722  13.277 -0.2659  0.1752 -0.0147
 9824W        W26671  15.089   0.978   1.280 -0.2868  0.0395  0.2115
 9825W        W26672  16.331  17.560  15.123 -0.2135 -0.2487 -0.2835
 9826W        W26673  13.671   8.401   4.377 -0.1983 -0.3377  0.2215
 9827W        W26674   5.543   9.898  14.693 -0.1626 -0.0805 -0.1372
 9828W        W26675   6.242   0.730  15.543 -0.1754 -0.0196  0.1516
 9829W        W26676   9.601  14.040  15.102 -0.0459  0.0798  0.0214
 9830W        W26677   0.159  15.180   1.744 -0.0874 -0.3089  0.3537
 9831W        W26678   5.556  12.145   4.610  0.0085 -0.1847  0.0946
 9832W        W26679   4.736   8.812  14.561  0.1327  0.3577  0.3099
 9833W        W26680  14.810   3.266  12.934 -0.0645 -0.2211  0.1241
 9834W        W26681  16.803  15.240   3.264 -0.1392 -0.3680 -0.2528
 9835W        W26682  17.755   5.451  14.251  0.2417  0.3126 -0.5487
 9836W        W26683  17.292  16.367   5.945  0.0994 -0.1505 -0.0425
 9837W        W26684  16.989   6.914  14.793  0.0455 -0.2408  0.0291
 9838W        W26685   5.911  15.918  12.955 -0.0631 -0.0242  0.0793
 9839W        W26686  13.284   9.763   4.905  0.1066 -0.2571 -0.2326
 9840W        W26687  10.897   0.915  14.524  0.1675 -0.0304  0.1993
 9841W        W26688   8.396  13.196   0.853  0.0870  0.1138 -0.2011
 9842W        W26689  17.997   5.155   2.364  0.0494  0.2165 -0.0792
 9843W        W26690   7.089   6.241  14.790  0.5783  0.0590  0.1698
 9844W        W26691   9.699  17.564   0.636  0.0414  0.0092 -0.0125
 9845W        W26692  12.018   7.499   2.922  0.2331 -0.2966 -0.0261
 9846W        W26693  15.617  12.313  13.067  0.2008  0.0510  0.1108
 9847W        W26694   5.562  12.635   3.284  0.2599 -0.2076  0.1181
 9848W        W26695  16.652  12.909  14.060 -0.0492  0.1358  0.1773
 9849W        W26696   5.180  10.461  15.692  0.1849  0.3348  0.2148
 9850W        W26697   5.448  15.723   0.628  0.0142 -0.0755 -0.0001
 9851W        W26698   3.195   7.238   2.054  0.0276 -0.3601 -0.0609
 9852W        W26699   0.998  16.374   4.789  0.1599 -0.0712  0.1855
 9853W        W26700   7.970  14.204   2.327  0.1130  0.2029 -0.1423
 9854W        W26701  13.843   9.397   1.111  0.1179  0.0334 -0.0565
 9855W        W26702  10.259   4.148  15.091 -0.0765 -0.0401 -0.3881
 9856W        W26703   3.134   5.495   3.535 -0.3058 -0.0256  0.2348
 9857W        W26704  15.488   3.441   5.713  0.0292 -0.2443 -0.2921
 9858W        W26705  16.668   0.199  13.124 -0.0232  0.0720  0.0104
 9859W        W26706   2.283  10.510  14.219  0.1631 -0.2073 -0.0913
 9860W        W26707   9.141   5.637  13.433 -0.1304  0.0358  0.1038
 9861W        W26708   2.725  16.570   3.839  0.0064 -0.5382 -0.0698
 9862W        W26709  16.299   8.257   3.798 -0.0604 -0.0528  0.0368
 9863W        W26710  18.384   2.185  12.463  0.2288  0.3711  0.0597
 9864W        W26711  13.648   9.155  13.680 -0.2190 -0.0524 -0.0635
 9865W        W26712   4.896  16.093   2.120 -0.2581 -0.0145  0.0384
 9866W        W26713   4.903  10.544  14.466  0.1723 -0.1915 -0.0234
 9867W        W26714  10.357  13.680  10.682  0.0736  0.1308  0.1211
 9868W        W26715  17.033  15.184   0.118 -0.3411  0.0749  0.2450
 9869W        W26716   4.156  16.527  14.025  0.0952 -0.2097  0.1290
 9870W        W26717   5.539  15.732  14.323 -0.4761 -0.0432 -0.2731
 9871W        W26718   3.959   0.496   0.048  0.0010 -0.0059  0.0714
 9872W        W26719  15.292  12.734   2.012 -0.3537  0.3856 -0.0832
 9873W        W26720   8.311  17.203   1.820 -0.0029 -0.3349 -0.0871
 9874W        W26721   2.776   0.881   1.376 -0.3345 -0.0204  0.1296
 9875W        W26722   7.147  11.038   4.941  0.2452  0.1177  0.3048
 9876W        W26723  18.239  11.487   1.270  0.1972 -0.3027  0.0493
 9877W        W26724  16.841  12.483   3.437  0.3261 -0.0328 -0.2462
 9878W        W26725   5.142   5.054   3.072 -0.2736 -0.0526 -0.0660
 9879W        W26726  16.752  17.992   4.938  0.1133  0.0272 -0.0114
 9880W        W26727  10.237  11.057  12.556  0.1998 -0.0058 -0.2312
 9881W        W26728   9.495   1.937  13.033 -0.0920  0.0420 -0.1689
 9882W        W26729   6.825  10.579   4.797  0.0120  0.1331 -0.0830
 9883W        W26730   3.837   8.113   5.140 -0.2501 -0.0613  0.3429
 9884W        W26731  13.466   2.757  14.814 -0.1890  0.0726 -0.1482
 9885W        W26732   6.125   2.290  13.043 -0.0155  0.1402 -0.1295
 9886W        W26733  15.574  16.661   2.246 -0.0152  0.2373 -0.1995
 9887W        W26734  13.460  13.874  15.789  0.0240 -0.1114  0.1348
 9888W        W26735   0.414   5.365  12.563  0.0065 -0.1343  0.0785
 9889W        W26736   3.165  16.295  15.568  0.1971 -0.0940  0.2743
 9890W        W26737   8.661  10.829  12.739 -0.3322 -0.0966  0.2116
 9891W        W26738   4.592   9.814  12.952 -0.0600  0.1136  0.2323
 9892W        W26739   5.405   2.423   2.436  0.1342 -0.1113 -0.2101
 9893W        W26740   0.125  12.587  13.534  0.3318  0.0690  0.0788
 9894W        W26741   5.124  15.419   0.872  0.4492  0.1734 -0.0090
 9895W        W26742   0.830   8.505  13.724 -0.2165  0.0084 -0.0843
 9896W        W26743  18.308   9.701   4.728 -0.1347 -0.1163 -0.0238
 9897W        W26744   0.110   3.571   5.014  0.1070 -0.4259 -0.1479
 9898W        W26745   5.137   3.509   0.730  0.0134 -0.0975  0.5086
 9899W        W26746  11.584   8.337  15.208 -0.2083  0.1270  0.0843
 9900W        W26747  15.361   1.330  13.648 -0.3518 -0.1462 -0.1936
 9901W        W26748  14.914  12.163  14.788 -0.2949 -0.0049  0.1703
 9902W        W26749   5.862  15.375   2.813  0.0066 -0.0995  0.0248
 9903W        W26750   8.379  12.991   5.101 -0.1381 -0.2182  0.1051
 9904W        W26751   0.573  15.204   4.175 -0.4519 -0.1615  0.2478
 9905W        W26752  12.940   6.458   1.407  0.0724  0.0223  0.1073
 9906W        W26753  16.239   9.041  15.691  0.1175 -0.1435  0.0164
 9907W        W26754   7.257  14.061  13.206  0.2397 -0.0533 -0.1756
 9908W        W26755   2.119  17.255   5.554 -0.1506 -0.1294 -0.0976
 9909W        W26756  15.695  18.093   0.142  0.2453  0.2024 -0.0593
 9910W        W26757   0.458  12.262   3.088 -0.2373 -0.0827  0.0433
 9911W        W26758  11.024  10.541   1.884  0.0729  0.1357 -0.2377
 9912W        W26759  16.414   0.953  13.686 -0.0394 -0.0637  0.1219
 9913W        W26760   3.073  11.409  13.606  0.1370 -0.0590 -0.0813
 9914W        W26761   1.623   4.248   0.900 -0.1929  0.2214 -0.3148
 9915W        W26762   4.567   7.912   0.081  0.0451  0.2205  0.1327
 9916W        W26763  16.545   8.638  15.737  0.1294 -0.1763 -0.2505
 9917W        W26764  16.978  13.469  14.149 -0.1501  0.2531  0.3146
 9918W        W26765   2.849   7.333   4.752 -0.1535  0.0025 -0.1131
 9919W        W26766  14.805  14.376   4.529 -0.1534 -0.1800 -0.0972
 9920W        W26767  13.484   9.428   2.463  0.0983 -0.0102  0.0142
 9921W        W26768  18.271  17.505  13.955  0.0994  0.1343 -0.3010
 9922W        W26769   7.049   0.082  14.591 -0.3611 -0.2298  0.0505
 9923W        W26770  12.923   6.659   1.920  0.1307  0.0710 -0.1266
 9924W        W26771  10.628   3.091  11.472  0.2518  0.1929  0.1259
 9925W        W26772  13.369   4.854  10.845 -0.0540  0.1043 -0.2175
 9926W        W26773  10.563   5.803  11.804  0.1079 -0.0374  0.1317
 9927W        W26774  15.303   9.024  15.292  0.1095  0.1824  0.4008
 9928W        W26775  18.080   0.423   2.002  0.1019 -0.2760 -0.0727
 9929W        W26776   2.864   9.855   3.396 -0.0275 -0.0241 -0.1308
 9930W        W26777  16.745  14.070  11.578 -0.1103 -0.3636 -0.2132
 9931W        W26778   8.553  12.070  11.801  0.4642 -0.2877  0.2141
 9932W        W26779   5.990  16.130  12.148 -0.1649 -0.0568  0.0248
 9933W        W26780  15.042   3.978   0.456  0.1634 -0.0231 -0.0160
 9934W        W26781  18.142  16.581   2.108 -0.1134  0.1982  0.2096
 9935W        W26782  18.191   3.517  13.861 -0.1714  0.0181  0.3038
 9936W        W26783   0.093  14.630   2.007 -0.1805 -0.0153  0.1173
 9937W        W26784   9.009  15.303   3.191 -0.0236  0.1174 -0.1367
 9938W        W26785   1.703  12.373  13.417  0.0580 -0.0186 -0.0464
 9939W        W26786  16.515   4.783   3.054 -0.0337 -0.0785 -0.1606
 9940W        W26787  10.381   2.201   9.787  0.0658 -0.0651 -0.0880
 9941W        W26788  17.018   4.544   1.374 -0.0119 -0.1269 -0.1939
 9942W        W26789   2.136   5.995   4.504  0.3666 -0.2323  0.2122
 9943W        W26790  17.534  13.097   1.870 -0.0004 -0.1793  0.0788
 9944W        W26791  10.935   8.224  14.633 -0.3887 -0.1096  0.1653
 9945W        W26792   9.830  14.333   4.970  0.0960  0.0959 -0.3142
 9946W        W26793  10.628   3.645   2.448 -0.4062  0.1195  0.1263
 9947W        W26794  10.926  12.304  15.760  0.0698  0.1026 -0.0793
 9948W        W26795   4.941  18.460  14.148  0.4245  0.0040  0.0850
 9949W        W26796  14.350  13.648  14.406  0.1237  0.2016 -0.1062
 9950W        W26797  14.220   4.689   4.702 -0.0036 -0.0952  0.1424
 9951W        W26798  16.769   7.380   0.611  0.0658  0.1206 -0.0482
 9952W        W26799   8.248   7.966   5.106  0.1434  0.3494  0.1635
 9953W        W26800  15.695  17.369   0.791  0.1153 -0.2711 -0.0393
 9954W        W26801   5.527   7.301   4.157  0.1059  0.0639 -0.2627
 9955W        W26802   2.484   4.385  11.289 -0.1890  0.0354 -0.1225
 9956W        W26803   3.632   8.431   3.046  0.1843 -0.0142  0.2725
 9957W        W26804   9.517   6.781   5.171 -0.1154  0.2179 -0.0853
 9958W        W26805  17.614   2.843   0.925  0.0795 -0.1098  0.0317
 9959W        W26806   1.361   8.409   5.393 -0.0541  0.2176 -0.0793
 9960W        W26807   4.671  13.035   3.690  0.0669  0.0679 -0.1552
 9961W        W26808   8.135   9.533  14.753 -0.2871  0.3526  0.0455
 9962W        W26809   7.158  18.217  11.126  0.2886 -0.0866  0.0103
 9963W        W26810  10.153  15.110   0.482 -0.0405  0.0780 -0.0073
 9964W        W26811  13.223   2.495  13.372  0.0808  0.0445 -0.0329
 9965W        W26812  17.467   9.513   1.330 -0.0549  0.2157  0.0935
 9966W        W26813   1.076   1.951   0.740 -0.2591  0.0341 -0.0339
 9967W        W26814  14.412   1.857  12.670 -0.0244 -0.2123 -0.1117
 9968W        W26815   6.854  13.526  15.860  0.1583  0.1844 -0.1122
 9969W        W26816  11.069   6.397  12.543 -0.1184  0.0551 -0.1645
 9970W        W26817   8.721  14.019   1.265 -0.2109 -0.0209 -0.2050
 9971W        W26818   1.262  15.370   0.191  0.1136  0.2225  0.0589
 9972W        W26819   5.365   9.793  10.146 -0.3006 -0.1966 -0.2065
 9973W        W26820   6.254  14.076  15.618 -0.2554 -0.1082 -0.0564
 9974W        W26821  17.346   2.038   4.647  0.0904  0.1263 -0.0541
 9975W        W26822   1.786   2.519  10.751 -0.0919 -0.2561  0.1089
 9976W        W26823   6.353  10.601   3.928 -0.0054  0.0198  0.1004
 9977W        W26824  15.651  14.140   3.486 -0.0357  0.0460 -0.1758
 9978W        W26825   6.510  16.458  14.626  0.0816 -0.0319 -0.2193
 9979W        W26826  12.673   2.538   4.168 -0.0609  0.0948  0.0807
 9980W        W26827   5.884  18.068  14.189 -0.0111  0.1236 -0.0122
 9981W        W26828  11.203  17.028   1.731  0.0201  0.0499 -0.3141
 9982W        W26829   6.694   5.914  13.163  0.0402 -0.0780  0.2249
 9983W        W26830   5.714   7.875   5.418 -0.0373 -0.1746  0.0596
 9984W        W26831   7.428  11.815   6.089 -0.1750  0.1908 -0.2113
 9985W        W26832   4.186   7.417  15.724 -0.1433 -0.1614 -0.0890
 9986W        W26833   8.507   5.360   2.026  0.1368  0.2404 -0.1807
 9987W        W26834   3.445   3.422  11.731  0.3213 -0.2526 -0.0968
 9988W        W26835  18.472  12.198  11.997 -0.2049  0.3843 -0.0064
 9989W        W26836  15.409  16.751   4.707 -0.1618  0.0153 -0.2930
 9990W        W26837   4.989  12.974  13.254  0.2476  0.2063 -0.1949
 9991W        W26838  14.336  10.621  13.753  0.1928 -0.0064  0.0082
 9992W        W26839  12.460   4.486   1.683  0.0170 -0.1562  0.1964
 9993W        W26840  15.701  16.311  11.136  0.3452 -0.0241  0.1757
 9994W        W26841   1.155   0.597  15.473 -0.1732 -0.0562 -0.1678
 9995W        W26842  17.648  11.195  11.421  0.0345 -0.2136  0.2345
 9996W        W26843  10.001  11.925  12.289  0.2606 -0.0152 -0.0569
 9997W        W26844   5.607  15.162  14.993  0.1792  0.4761 -0.0287
 9998W        W26845   7.610   3.185  11.544  0.1139  0.1116 -0.0262
 9999W        W26846   5.996  10.587  15.933  0.0763 -0.0289 -0.0782
10000W        W26847  12.223  16.158  15.456  0.0799  0.2747 -0.2656
10001W        W26848  14.650  15.710  11.350 -0.2194 -0.1330 -0.0913
10002W        W26849  17.551   4.224   1.714 -0.1479  0.0630 -0.3689
10003W        W26850  12.326  11.059  15.940 -0.0818 -0.0609  0.0774
10004W        W26851  11.624   9.365   0.609 -0.1240 -0.2844 -0.0922
10005W        W26852  13.503  11.958   1.422  0.0664 -0.0512 -0.0090
10006W        W26853   1.049  16.487  14.988 -0.2035  0.1389  0.2733
10007W        W26854  14.382  10.639  13.185 -0.0297  0.2107 -0.5091
10008W        W26855  13.382  15.929  11.595  0.0139 -0.4792 -0.0779
10009W        W26856  17.024   9.641  10.211 -0.0544 -0.1972 -0.2672
10010W        W26857   4.454  18.167   4.431  0.1448  0.0875  0.3188
10011W        W26858  11.436  18.171   4.138 -0.3158  0.2394  0.1592
10012W        W26859   3.052   7.550   3.317  0.2847 -0.1723  0.0020
10013W        W26860  16.801  10.556   2.747 -0.2814  0.0409 -0.0875
10014W        W26861  15.774  15.385   3.544  0.0966 -0.2354  0.0498
10015W        W26862  16.701   3.721  11.767  0.1995 -0.0419 -0.2065
10016W        W26863  18.109  15.002   2.687 -0.0886  0.1852  0.0243
10017W        W26864   6.321   5.890  12.096 -0.1593  0.2339  0.2484
10018W        W26865   6.714   5.409   3.794  0.0120 -0.1246  0.0077
10019W        W26866   7.578  14.699   2.853 -0.2733  0.0430 -0.0125
10020W        W26867  12.243   9.619  12.473 -0.0081 -0.0876  0.1095
10021W        W26868   4.798  14.123  12.459 -0.0172  0.2670 -0.4013
10022W        W26869   4.257  15.173   0.494 -0.2141  0.2112  0.0111
10023W        W26870  12.038  15.781  14.935 -0.0770 -0.5828 -0.0053
10024W        W26871  15.932   7.989   2.549  0.0110 -0.0389 -0.0140
10025W        W26872  16.257   7.695  12.709  0.0340  0.1589  0.0752
10026W        W26873   3.137  12.674   5.301 -0.0257  0.0427  0.0044
10027W        W26874  17.849   2.096  15.065 -0.0631 -0.2255 -0.0953
10028W        W26875   0.947   3.822   1.197  0.1206 -0.2787 -0.0407
10029W        W26876   9.763  10.981  12.906 -0.1230 -0.2838 -0.2265
10030W        W26877  13.253  10.675  15.154 -0.2458 -0.1936 -0.1402
10031W        W26878  14.448   3.001  10.702  0.2667 -0.1171  0.0008
10032W        W26879  17.708  17.675  11.981  0.0717  0.1008  0.0930
10033W        W26880  16.076  13.962  13.824 -0.3758 -0.1104 -0.0725
10034W        W26881   9.218  11.765   1.458 -0.0850  0.4360  0.1132
10035W        W26882  11.532  17.857  12.493 -0.0189 -0.0300  0.0762
10036W        W26883  16.981   8.309  12.523  0.0372 -0.1208  0.0125
10037W        W26884  14.474   7.093   2.566  0.0101  0.2524 -0.0149
10038W        W26885   4.324   3.702   4.823  0.0207  0.2005 -0.2094
10039W        W26886   3.905   3.328   5.037 -0.0372  0.0660 -0.1686
10040W        W26887   4.547   1.703  15.863  0.1071 -0.1719 -0.2107
10041W        W26888   6.528  10.670   1.780  0.1235  0.0821 -0.0829
10042W        W26889   7.790   0.484  14.917 -0.2013  0.0293 -0.0315
10043W        W26890  14.830   6.655   3.115 -0.0285 -0.1209  0.2141
10044W        W26891   6.358  17.070   1.945 -0.0481 -0.1089 -0.0753
10045W        W26892   3.316   1.525  11.158 -0.1777  0.0997  0.3595
10046W        W26893   9.538   0.094   0.518  0.2612 -0.0326 -0.3260
10047W        W26894   8.738   1.136   5.256 -0.1644 -0.1250 -0.0937
10048W        W26895   8.116   4.688   0.131  0.0191  0.2289 -0.0186
10049W        W26896  12.461   0.615   2.349  0.1286 -0.0370  0.0985
10050W        W26897  15.642   9.467  11.580 -0.2170  0.0985 -0.0552
10051W        W26898   8.870  15.350  14.041  0.0821  0.0392 -0.0290
10052W        W26899   8.506  11.994  14.277 -0.0021  0.2322  0.2711
10053W        W26900   0.831   9.586  11.517  0.0139  0.0807  0.1251
10054W        W26901  16.927  12.008   0.649  0.0957 -0.1714  0.0416
10055W        W26902  17.285   6.453   0.504 -0.1475  0.0433  0.1269
10056W        W26903  13.783  16.650  10.660 -0.1674  0.1487 -0.1888
10057W        W26904  16.585  13.099   1.294 -0.0596  0.1390 -0.0525
10058W        W26905   0.089   0.902  11.964  0.2135  0.0654 -0.0561
10059W        W26906  15.597  18.457  15.752  0.0626 -0.0611  0.3106
10060W        W26907  16.404   7.528   0.017 -0.0106  0.3069  0.1246
10061W        W26908  13.238  18.178  14.784  0.1407  0.0237  0.5042
10062W        W26909  13.965  11.208  14.882  0.2378 -0.0237 -0.3008
10063W        W26910   8.446  12.787   1.268 -0.3525  0.0653 -0.0486
10064W        W26911   9.776  14.837   5.069 -0.4235  0.1180 -0.1203
10065W        W26912  15.357   3.607   4.829  0.2120  0.1097 -0.0601
10066W        W26913  17.834   0.019   4.940  0.0052 -0.1489 -0.0771
10067W        W26914  12.829   6.173  15.156  0.1774 -0.1159 -0.0407
10068W        W26915   8.022  15.439  11.888  0.3023  0.0420  0.0782
10069W        W26916   4.662   8.045  11.567 -0.1054  0.0657  0.1528
10070W        W26917   3.025   2.736  13.049  0.1132 -0.1608 -0.0974
10071W        W26918  11.377   5.467  13.929  0.0539 -0.1351 -0.0370
10072W        W26919   0.864  15.432  12.917  0.1556 -0.0221 -0.2574
10073W        W26920   8.588  18.419   3.740 -0.3328 -0.2643 -0.0032
10074W        W26921   2.905  16.595  11.821  0.2064  0.1988  0.0254
10075W        W26922   7.153  16.196   5.526 -0.3049  0.1746 -0.0975
10076W        W26923  14.956   3.373   4.485 -0.3543 -0.1607  0.1710
10077W        W26924   6.860  16.228   4.340  0.1218  0.5693 -0.2449
10078W        W26925   4.294   5.475   2.180  0.1182  0.0022  0.0751
10079W        W26926  15.035  12.054  13.743 -0.0161 -0.0998 -0.3728
10080W        W26927  15.227   8.745   4.187 -0.1273  0.2847  0.1054
10081W        W26928   4.062  14.964   4.552 -0.0207  0.2207  0.1781
10082W        W26929   7.353   3.673  13.720 -0.1145  0.0777 -0.3489
10083W        W26930   9.235   0.791   1.160  0.2290 -0.1022  0.1508
10084W        W26931  11.272  12.286   0.949 -0.0997  0.1715  0.2733
10085W        W26932   9.323  15.454  14.351  0.2117 -0.2421 -0.1120
10086W        W26933  16.228  10.603   3.432  0.1108  0.0145 -0.0299
10087W        W26934   5.852   7.592   4.540 -0.1832  0.2048  0.2529
10088W        W26935  13.106   2.091   0.669  0.1632 -0.0406 -0.0187
10089W        W26936  16.289  15.927  11.702 -0.0787  0.0275 -0.1799
10090W        W26937   3.173  16.178  11.151  0.3970 -0.0605 -0.1026
10091W        W26938   6.294  16.471  12.930  0.3340  0.1505 -0.1436
10092W        W26939   4.599  12.755   4.566 -0.2266 -0.0958  0.6300
10093W        W26940   3.665   8.765   4.380  0.4375 -0.2284  0.1286
10094W        W26941   5.895   6.098   1.775  0.0633  0.1554 -0.0158
10095W        W26942   2.359   4.364   3.033 -0.2610 -0.2080  0.3750
10096W        W26943  11.428   8.584   3.909 -0.0599 -0.0659 -0.0325
10097W        W26944   2.078  16.234  12.107  0.0805 -0.0560  0.1703
10098W        W26945   4.531   4.957   3.386 -0.1881 -0.3241  0.4005
10099W        W26946  17.651   1.648   0.594  0.0960 -0.1161  0.0856
10100W        W26947  16.938   1.938  13.451  0.2543  0.3557 -0.0477
10101W        W26948   5.805  18.498   4.564 -0.0640 -0.0834  0.0773
10102W        W26949  18.114  12.688   2.470 -0.2561  0.1996 -0.1835
10103W        W26950  11.834   9.759  10.752  0.3520  0.2866 -0.1240
10104W        W26951  17.895   1.907  15.512 -0.1317  0.1566  0.1737
10105W        W26952   1.228   2.408   2.368  0.0404 -0.2450  0.2670
10106W        W26953  10.196  17.225  15.635 -0.2851 -0.1956  0.0342
10107W        W26954  15.041  12.455   4.713  0.1228 -0.0231  0.0651
10108W        W26955  11.519   9.391   1.407  0.1419 -0.1858  0.1197
10109W        W26956  17.944  15.168   5.262  0.1346 -0.0296  0.2152
10110W        W26957  17.871   3.193  11.635 -0.1060  0.3081 -0.1281
10111W        W26958  14.373  14.829  10.652 -0.1404 -0.0872  0.1284
10112W        W26959  11.612  17.174  15.598 -0.0474 -0.1215  0.0065
10113W        W26960   4.302   0.576   2.371  0.1695  0.2225  0.1507
10114W        W26961   0.314  17.997  11.474  0.2558  0.2551 -0.0757
10115W        W26962   1.469  10.213  15.353 -0.3200 -0.1985 -0.1562
10116W        W26963  18.263   1.747  14.697  0.1460  0.2641  0.0124
10117W        W26964  17.716   6.390  12.528 -0.4373  0.3506 -0.1729
10118W        W26965  17.123   5.056   5.771  0.0639  0.1186 -0.0567
10119W        W26966  13.219   5.596   2.128 -0.6195  0.1705 -0.0513
10120W        W26967  17.125  12.827   2.174 -0.4594 -0.0307  0.0428
10121W        W26968  12.642   7.704   4.740  0.3460 -0.1177  0.1109
10122W        W26969  11.590  11.351  11.567 -0.3134  0.2045 -0.2096
10123W        W26970   1.372   2.493  15.112  0.0883 -0.0063 -0.0766
10124W        W26971  17.484  16.598   2.826 -0.2011 -0.1202 -0.4620
10125W        W26972  18.018  17.227  15.791 -0.1811  0.2557 -0.4714
10126W        W26973   1.890  12.851  13.310 -0.3997 -0.1879  0.0945
10127W        W26974  15.135  11.382   2.780 -0.2858  0.1107 -0.1926
10128W        W26975   6.777   3.515   4.586 -0.1166  0.1584  0.0542
10129W        W26976   9.957   8.552   1.204  0.2351  0.1020  0.1292
10130W        W26977   1.332  11.300  14.158  0.1584  0.3519  0.2271
10131W        W26978   1.672  13.158   1.526 -0.0546 -0.0183 -0.1542
10132W        W26979   1.760   7.567   0.851 -0.1495  0.0612 -0.1276
10133W        W26980   9.292  13.987   4.208 -0.0201 -0.3070 -0.2547
10134W        W26981   2.962  14.822  10.818  0.2443 -0.0172 -0.1159
10135W        W26982   3.976   0.742  13.701  0.0456 -0.0958 -0.0289
10136W        W26983   5.779  11.664   4.164  0.2053  0.0508  0.0763
10137W        W26984   2.923   2.038  11.463  0.0312  0.0918  0.1690
10138W        W26985   5.341   0.165   0.585  0.1035 -0.0158  0.0243
10139W        W26986   8.393   9.041   3.415 -0.2941  0.2211  0.3707
10140W        W26987   6.354   9.701   1.396  0.0304  0.2065 -0.1407
10141W        W26988  13.070  14.413  12.336 -0.0686  0.1394 -0.1580
10142W        W26989  15.924   9.682   3.244 -0.1060  0.0893  0.0861
10143W        W26990  16.552   8.141  15.743  0.1559  0.1486 -0.2637
10144W        W26991  11.802   0.909   1.823  0.1023 -0.0059 -0.1290
10145W        W26992  13.895  13.612   3.560  0.0441 -0.0794 -0.0852
10146W        W26993   3.510  15.307  11.293 -0.1488 -0.0949  0.0643
10147W        W26994  14.638   6.448   4.566 -0.0280  0.2239 -0.3248
10148W        W26995   9.351  15.143   1.663  0.1578 -0.2088  0.3898
10149W        W26996   8.540  11.172  15.738 -0.2324 -0.0832  0.0961
10150W        W26997  14.836  14.693   1.670 -0.0919  0.0165  0.0864
10151W        W26998   4.205   0.560   4.142  0.0703 -0.1467  0.1274
10152W        W26999  11.585  15.373   3.944  0.1047  0.0615  0.0886
10153W        W27000  10.425  18.033  15.335 -0.1444  0.0129 -0.1420
10154W        W27001   4.124   8.476  14.072  0.0251  0.2229  0.3291
10155W        W27002   2.592   9.626   3.742 -0.2934  0.1592 -0.1114
10156W        W27003  14.232   5.825  11.285 -0.1357  0.2419 -0.0079
10157W        W27004   8.163  13.323   3.852  0.1951 -0.2999 -0.1156
10158W        W27005  14.501   0.440  13.385 -0.2168 -0.0267  0.1439
10159W        W27006   0.882   6.713   3.222 -0.0893 -0.0460  0.2272
10160W        W27007  11.758   3.729  12.345 -0.0855 -0.4665 -0.0635
10161W        W27008  16.736  12.046   2.111 -0.1164  0.0257 -0.1146
10162W        W27009   7.164   3.101  11.141  0.0478  0.1375  0.0745
10163W        W27010   0.509   7.647   4.731  0.0413 -0.4078  0.0800
10164W        W27011   3.162  13.231   0.453  0.1872 -0.0724 -0.1920
10165W        W27012  16.329   0.696   3.822 -0.2635 -0.3706  0.3029
10166W        W27013  15.532  16.348   5.019  0.1106  0.0627 -0.2241
10167W        W27014  13.486  15.184  13.527  0.3837 -0.2228  0.0541
10168W        W27015   5.022  17.023  11.175  0.2089 -0.2366  0.0731
10169W        W27016  16.707  11.023  15.841  0.3496 -0.0668  0.2204
10170W        W27017  10.368  17.509  13.010 -0.1114 -0.1323  0.1459
10171W        W27018   2.838   6.438   4.027  0.2078  0.1121  0.2133
10172W        W27019  10.271  10.212  14.750  0.2001  0.1591 -0.0351
10173W        W27020   6.017  12.466   3.743  0.0637  0.0685 -0.0258
10174W        W27021  10.340  12.159   1.204 -0.1881  0.1216 -0.0721
10175W        W27022  17.584  16.192  15.697 -0.1820 -0.1527  0.0220
10176W        W27023   4.327  15.252   2.754 -0.1096 -0.2796 -0.1526
10177W        W27024  13.343   6.459  12.033  0.0066  0.3009  0.1996
10178W        W27025  12.437   7.615  15.519 -0.1729  0.2888 -0.1070
10179W        W27026  12.527   9.963   4.494 -0.2975  0.0411  0.1957
10180W        W27027  12.815   0.589  11.620  0.0091 -0.2568 -0.0143
10181W        W27028  10.175   0.518  12.687  0.3169  0.1950  0.2085
10182W        W27029   4.160  14.622  15.576  0.1043 -0.0802 -0.0103
10183W        W27030   6.347  14.292  14.962 -0.0865 -0.1350 -0.1354
10184W        W27031  16.295   4.574  13.446  0.1808 -0.1108  0.0112
10185W        W27032   4.952   3.111  13.299 -0.0653 -0.0159 -0.0325
10186W        W27033   4.906   0.023  15.009  0.1932  0.1226 -0.2110
10187W        W27034  16.626   3.273   1.909  0.0177  0.0309 -0.0278
10188W        W27035  14.976  10.254   0.083 -0.1857 -0.1606  0.0876
10189W        W27036   8.691  16.454  15.277  0.2563 -0.0643 -0.0628
10190W        W27037   4.333  17.094   4.635  0.0940 -0.1662  0.0345
10191W        W27038  16.199   3.171   1.533  0.0900  0.0718 -0.0122
10192W        W27039   3.198  13.914   1.746 -0.1763  0.1157 -0.0473
10193W        W27040  13.393   0.688   1.556  0.1633 -0.3474  0.0927
10194W        W27041  11.293   1.222  14.384 -0.1971 -0.0356  0.2676
10195W        W27042  14.316   9.227   0.413 -0.3629 -0.1066  0.0343
10196W        W27043  13.179   3.048  13.636 -0.1903 -0.1216 -0.3138
10197W        W27044  16.610   6.526  13.213  0.0077 -0.1074 -0.2188
10198W        W27045  10.105   6.611   2.074  0.2640  0.1094 -0.4469
10199W        W27046  12.647  14.715   0.808 -0.3117  0.0067 -0.0336
10200W        W27047  10.111   6.044   2.810 -0.1405  0.0209  0.0626
10201W        W27048  11.714  11.113  12.967 -0.2021 -0.3559 -0.0097
10202W        W27049  13.941  17.636   3.751  0.4652 -0.0044  0.4082
10203W        W27050  18.126  10.299   4.810 -0.1684  0.1936 -0.1062
10204W        W27051  14.448  12.335   3.996 -0.0456 -0.2895 -0.1466
10205W        W27052  17.952   8.242  15.589 -0.0188 -0.1490  0.1423
10206W        W27053   5.580   7.294   1.305  0.0687 -0.0821  0.1053
10207W        W27054  12.480  14.159   0.518  0.2301  0.1559 -0.2276
10208W        W27055  12.945  17.319   2.817 -0.0723 -0.0289 -0.0637
10209W        W27056  14.800   6.831   4.811  0.2099 -0.0385 -0.0650
10210W        W27057   0.847   9.502   0.242  0.0837  0.0582  0.0378
10211W        W27058  18.121   9.555   4.240 -0.0784  0.1386 -0.0098
10212W        W27059   8.326  16.815  15.151 -0.3391 -0.0850 -0.0266
10213W        W27060   4.760   4.291  13.567  0.0453  0.1241  0.0830
10214W        W27061   3.087  15.907   2.238 -0.1154  0.0180 -0.1217
10215W        W27062   5.914   2.395   3.219 -0.0236  0.0445  0.0235
10216W        W27063   9.487   5.274  13.790 -0.1962  0.4260 -0.0529
10217W        W27064  17.330   4.279  11.896  0.1592 -0.1002  0.1734
10218W        W27065  18.030   5.064   0.007  0.3526  0.1960 -0.0277
10219W        W27066   8.900  15.604  12.627 -0.0405 -0.1120  0.1279
10220W        W27067  15.206   7.685   1.044 -0.1939  0.0996  0.1496
10221W        W27068  13.284   6.307   0.282  0.3864  0.1923 -0.1762
10222W        W27069  13.853  10.208  13.963 -0.1665 -0.1950  0.2134
10223W        W27070   6.438  15.170  13.000 -0.0764  0.3215 -0.0425
10224W        W27071   7.779  14.580  12.165  0.0914  0.2726 -0.1609
10225W        W27072   5.450   0.796   1.823  0.2127  0.0518  0.1308
10226W        W27073   4.683  12.517   3.599 -0.0088 -0.2013 -0.0799
10227W        W27074   9.510   0.018   3.977 -0.0192  0.1132 -0.0380
10228W        W27075  12.245   7.259   1.913  0.0802  0.3647  0.0335
10229W        W27076  16.547   2.445   5.182 -0.2143 -0.0301 -0.5236
10230W        W27077  14.818   9.417   2.743 -0.2791 -0.2003 -0.3244
10231W        W27078  12.889   0.094  14.789  0.0700  0.2645  0.1197
10232W        W27079  16.763  17.984   5.805  0.0560 -0.2150 -0.1664
10233W        W27080  16.575  16.054   0.585  0.1496 -0.1720 -0.0654
10234W        W27081   8.179  17.189  15.720  0.0315 -0.0878  0.0401
10235W        W27082  10.547   8.846  13.754  0.3636  0.1255  0.0781
10236W        W27083  17.544  12.889   1.409 -0.2730  0.1382  0.1859
10237W        W27084   9.007  14.824   1.620 -0.0601 -0.0238 -0.2855
10238W        W27085  15.859   8.812   1.859 -0.0974 -0.0625  0.2202
10239W        W27086   8.072  12.201   3.430 -0.0677 -0.2519 -0.1393
10240W        W27087   1.545   8.561  13.217 -0.1320  0.0467 -0.2037
10241W        W27088   1.334   7.973   4.421 -0.0897  0.0075  0.0161
10242W        W27089  14.156   8.931   2.087  0.0362  0.1121 -0.1472
10243W        W27090  17.444   9.113  15.523  0.0659  0.2535  0.1488
10244W        W27091  12.202   3.765   3.295  0.1547  0.2600 -0.1133
10245W        W27092   6.763  12.581   1.493  0.3061  0.3309 -0.0271
10246W        W27093   6.988   5.361  13.133  0.2251 -0.1627  0.0500
10247W        W27094   3.291   1.042  11.008 -0.2390  0.0876  0.3298
10248W        W27095   9.986   4.862  14.518 -0.2647 -0.1478  0.3061
10249W        W27096   7.057  17.745   4.188  0.1179 -0.0214 -0.1326
10250W        W27097  13.887  11.374   4.478  0.3193 -0.3090 -0.0842
10251W        W27098   3.550   9.331   5.769 -0.0246  0.0003 -0.2202
10252W        W27099  11.764  16.917   3.189 -0.0609  0.0911 -0.0631
10253W        W27100   2.719   5.728   3.359 -0.0450 -0.1370 -0.1442
10254W        W27101   8.870  18.458   0.098  0.0237 -0.3306 -0.0309
10255W        W27102  10.749   9.060  15.546 -0.1166 -0.1398  0.2005
10256W        W27103  11.782  10.110  13.112 -0.1085 -0.0407  0.2571
10257W        W27104   2.920   9.976   5.195  0.5798 -0.0987 -0.2979
10258W        W27105   6.745   8.973   1.176 -0.0935  0.4441 -0.0717
10259W        W27106  17.046   0.849  12.386 -0.1237  0.0845 -0.1607
10260W        W27107  14.254   8.770  13.202 -0.1456 -0.0757 -0.1136
10261W        W27108  11.976   8.266  15.507  0.1788  0.0010 -0.0034
10262W        W27109   1.351   9.352   3.993 -0.0028  0.1457 -0.1913
10263W        W27110  14.708   4.062  11.572  0.1232 -0.0156 -0.0810
10264W        W27111  15.379  10.106   2.415  0.2682  0.1271 -0.0933
10265W        W27112   3.152   5.950  13.298  0.1883 -0.1002 -0.1768
10266W        W27113  12.656   6.165   4.258  0.0087 -0.0880 -0.0223
10267W        W27114   8.532  10.920   2.276 -0.2775  0.1099 -0.0159
10268W        W27115  10.615  16.502   3.036  0.1073 -0.0165  0.0796
10269W        W27116  12.227  10.367  13.153 -0.1312 -0.2298 -0.1296
10270W        W27117  17.752   0.005   3.021  0.3996  0.0796  0.0754
10271W        W27118   7.888  12.204   0.689  0.4277 -0.3590 -0.1496
10272W        W27119   9.900  13.112   0.515  0.1214  0.0045 -0.0598
10273W        W27120  14.495  18.490  12.605 -0.1934  0.1534  0.0054
10274W        W27121   3.294   7.678  12.543 -0.0197  0.4070  0.0545
10275W        W27122   8.528  15.766  11.229 -0.0426  0.2165  0.1154
10276W        W27123   8.891  12.908  11.412  0.3138 -0.1823 -0.2414
10277W        W27124   1.418   4.249  14.510  0.0847  0.3014  0.1406
10278W        W27125   1.882   4.542   2.281  0.2382  0.3129 -0.2636
10279W        W27126  13.058   0.810   3.890  0.2226  0.1799 -0.0514
10280W        W27127   2.982  15.791   0.912 -0.3829 -0.1293  0.2637
10281W        W27128  12.006   0.066  12.400  0.0399 -0.3500  0.3374
10282W        W27129  13.961   3.926  14.055 -0.1673 -0.2738 -0.3295
10283W        W27130  14.858   6.951  12.312 -0.2073  0.3459  0.0109
10284W        W27131  13.191  13.624   3.428 -0.0654 -0.1370  0.2277
10285W        W27132   4.353  11.109   4.793 -0.1020 -0.1229 -0.1417
10286W        W27133  14.966  13.680   1.815 -0.2309  0.0348  0.0510
10287W        W27134   0.055   2.621  14.238 -0.2569 -0.1051  0.1705
10288W        W27135   9.418   0.461   1.421  0.0162  0.0805  0.2820
10289W        W27136  11.969   3.689   4.232 -0.0511 -0.1674  0.1577
10290W        W27137   2.200   5.425   2.057  0.1237 -0.2040 -0.3257
10291W        W27138  10.185  15.298   3.639 -0.0063 -0.1041 -0.2686
10292W        W27139   4.798   2.015   4.291 -0.1502  0.0255 -0.2449
10293W        W27140  13.902   6.334   2.877  0.1182  0.1726  0.0740
10294W        W27141   5.951  10.796   4.288 -0.3470 -0.2455 -0.0387
10295W        W27142   4.369  18.209   2.331  0.0378 -0.3003 -0.1620
10296W        W27143   1.681  17.499   5.358  0.1788 -0.2684  0.0779
10297W        W27144   6.632  12.951   1.142 -0.1675 -0.0058  0.0690
10298W        W27145   3.385  17.940   5.668  0.0365 -0.0166  0.3653
10299W        W27146  17.196   8.555   1.634 -0.2483 -0.2119 -0.4372
10300W        W27147  16.825   4.491   4.054  0.3690 -0.0803  0.2117
10301W        W27148  12.906   9.638   0.912 -0.0124 -0.1144  0.0109
10302W        W27149  11.061  15.849   4.714 -0.1151 -0.0076 -0.0620
10303W        W27150  10.919   7.021  15.685  0.3929 -0.0406  0.0857
10304W        W27151  12.457  18.504   3.044  0.2386 -0.2106 -0.2532
10305W        W27152  13.720  15.276  14.476  0.2327  0.0204  0.0338
10306W        W27153   4.980  18.224  11.060 -0.1853 -0.0617 -0.2045
10307W        W27154  13.359   5.066  12.528 -0.0527  0.0692  0.1715
10308W        W27155   4.555  15.228  15.731 -0.3475  0.1142  0.2238
10309W        W27156   5.850  14.779   1.550  0.1085 -0.1601  0.0500
10310W        W27157   4.584   9.346   0.176 -0.0322  0.1223  0.0704
10311W        W27158   2.560  12.836   1.036 -0.1370  0.0245  0.1147
10312W        W27159   6.907   5.321  12.309  0.5468  0.1876  0.0838
10313W        W27160   2.353  18.518   4.566  0.1152  0.2743 -0.1281
10314W        W27161   1.802   8.466  14.086 -0.0400 -0.3284 -0.0304
10315W        W27162  17.273   9.469  11.591  0.1680  0.1403 -0.3513
10316W        W27163   5.393   5.838  10.545 -0.2235  0.0081  0.0478
10317W        W27164   0.152  12.838   6.307 -0.0678  0.2624 -0.2206
10318W        W27165   8.446  15.704   0.751  0.2290 -0.0454 -0.0141
10319W        W27166   4.452  16.793  12.756 -0.0120  0.1573 -0.0177
10320W        W27167  15.438  16.729   4.189 -0.1861  0.0270  0.0902
10321W        W27168   4.324   0.133   2.681  0.0090  0.3376  0.2086
10322W        W27169  14.383  18.534  12.037 -0.0477 -0.0582  0.1179
10323W        W27170  10.404  11.270  10.774 -0.1575  0.0253 -0.0335
10324W        W27171  15.293   5.692  12.232  0.0975 -0.2864  0.0168
10325W        W27172  11.908  16.233   3.427 -0.1020  0.0382 -0.0739
10326W        W27173   7.324   1.362   2.343 -0.0052  0.0161  0.0135
10327W        W27174  11.919  17.725   1.910 -0.1664 -0.0980  0.0490
10328W        W27175  16.051   9.828  11.759  0.0886  0.1683  0.3872
10329W        W27176   3.227  12.132   1.221 -0.2227 -0.0156  0.1229
10330W        W27177   4.205  12.650   3.814  0.1380 -0.2411  0.1882
10331W        W27178  10.289   7.536   0.941 -0.2408  0.2165  0.1811
10332W        W27179  13.547   7.342  15.853 -0.1529 -0.0457  0.1092
10333W        W27180  14.779  16.988   0.099 -0.2102 -0.0250  0.1152
10334W        W27181   2.958  16.341   0.958  0.0437 -0.1834  0.2807
10335W        W27182  10.735   8.468   2.722  0.0202  0.2198 -0.1794
10336W        W27183   5.039   6.113   4.521 -0.2984 -0.0475  0.0069
10337W        W27184  10.832   0.930  15.006  0.3668 -0.2154  0.1247
10338W        W27185   6.745   0.389  15.516 -0.1010 -0.2423  0.1706
10339W        W27186   4.209  15.642   3.534  0.0012 -0.0617  0.2883
10340W        W27187   3.031   6.399  12.924  0.2328  0.3569  0.0233
10341W        W27188  18.260   8.552   2.313 -0.0052  0.0130  0.3215
10342W        W27189  18.277  16.369   1.261 -0.0925  0.1710  0.0195
10343W        W27190  13.480   7.897   2.696  0.0594 -0.0272 -0.0478
10344W        W27191  17.466  12.006   0.566 -0.1432  0.0740  0.1225
10345W        W27192   8.776   3.414   1.776 -0.0153  0.1144 -0.2827
10346W        W27193   4.268   9.074   1.065  0.1415  0.0484  0.2620
10347W        W27194   5.473   4.362  15.413  0.1855 -0.1426 -0.2260
10348W        W27195   0.645   4.676   1.583  0.3339 -0.1891 -0.0200
10349W        W27196   9.142   2.405  12.332  0.0879  0.2791  0.0033
10350W        W27197   1.862   9.591  14.633  0.3986  0.1020 -0.1201
10351W        W27198   0.505   8.098   4.974  0.0046  0.0654 -0.0933
10352W        W27199   3.766  16.816  14.290  0.1855  0.1386 -0.2117
10353W        W27200  13.139   7.813   3.845 -0.1813  0.0207 -0.0214
10354W        W27201  12.287  16.136   3.087 -0.1686 -0.0509  0.0168
10355W        W27202   7.579   0.962  11.422  0.2344  0.1743  0.4577
10356W        W27203  17.793   9.783   5.187 -0.0177  0.4439  0.0588
10357W        W27204   8.575   3.120   0.539  0.1942 -0.2288  0.2014
10358W        W27205  14.198   8.369   1.263  0.0455 -0.0637 -0.3697
10359W        W27206  11.923   6.767  12.696 -0.0496 -0.0377 -0.1395
10360W        W27207   2.249  12.080  14.874 -0.2409 -0.0217  0.0226
10361W        W27208   3.430   0.463   2.657  0.0295  0.3989  0.1354
10362W        W27209   3.114  16.270  14.759 -0.0260  0.2735  0.0115
10363W        W27210   6.115  14.892  11.712  0.0849  0.1329 -0.0654
10364W        W27211   3.010  13.128   1.015 -0.1954  0.3341  0.0315
10365W        W27212  13.207   2.566  13.852 -0.0213 -0.0985 -0.4432
10366W        W27213  13.289  15.899  15.600  0.0470  0.2920  0.2008
10367W        W27214  14.207   8.112   2.668  0.0938  0.0431  0.3379
10368W        W27215  15.801   5.708  14.019 -0.0477  0.0315  0.2393
10369W        W27216  12.197   9.936   2.062  0.0004 -0.0304 -0.0056
10370W        W27217   4.880  13.399  14.576  0.0768 -0.3133  0.1222
10371W        W27218  13.808  16.761   5.549  0.1206 -0.3816 -0.4608
10372W        W27219   5.470  16.318   3.899 -0.0418  0.1628 -0.2196
10373W        W27220   1.218  17.714   4.867  0.3444 -0.3242  0.1485
10374W        W27221  11.341   9.999   2.582 -0.1762  0.0082  0.1422
10375W        W27222  12.684  15.555   0.434 -0.2459  0.2980  0.0101
10376W        W27223  11.418   2.069  11.710  0.3785 -0.1550 -0.3546
10377W        W27224   8.012  11.311  13.082  0.2706 -0.0585 -0.0871
10378W        W27225   1.272  13.304   0.657  0.0261 -0.2702  0.0348
10379W        W27226   7.317  14.318   0.370  0.0562  0.2392  0.0273
10380W        W27227  15.283  18.314   1.615 -0.0424 -0.0102  0.2080
10381W        W27228  16.153   8.271   3.125 -0.0381  0.0382 -0.1781
10382W        W27229  16.891  12.941  12.157 -0.0252  0.0620 -0.0512
10383W        W27230   0.251   6.435   1.424  0.2167 -0.0096  0.2914
10384W        W27231  13.961   3.647  11.473  0.0438  0.0478  0.0153
10385W        W27232   7.249   7.297   5.043  0.1550  0.0999 -0.1889
10386W        W27233  13.980  10.095   0.801  0.0572  0.1504  0.1502
10387W        W27234   1.104   3.332  11.545 -0.0308 -0.1490 -0.1681
10388W        W27235   3.026  12.377   0.285  0.2562  0.0209  0.1830
10389W        W27236  10.550  11.248   4.438 -0.0441  0.0325 -0.3100
10390W        W27237   7.251  11.582  11.270 -0.2174 -0.2445  0.2721
10391W        W27238  13.325   5.185   1.535  0.0458  0.1628  0.1129
10392W        W27239   2.920   7.057   3.202  0.2809  0.0918 -0.0177
10393W        W27240   3.584   1.186  13.731  0.0502 -0.2601 -0.0383
10394W        W27241  10.358  16.959  14.089  0.0668 -0.0179 -0.3088
10395W        W27242  13.023  10.918  14.803  0.0720 -0.1204  0.0253
10396W        W27243   5.537   5.498  14.324  0.1475  0.0092 -0.1241
10397W        W27244   1.844  13.140   2.118 -0.0644  0.0281  0.1366
10398W        W27245  16.754  12.982   4.435  0.3178 -0.0748  0.0079
10399W        W27246  10.775  17.136   4.511 -0.0859  0.0351  0.3282
10400W        W27247   0.269  14.863  12.444 -0.2318  0.2755  0.1357
10401W        W27248   0.916   8.054  13.904 -0.2617 -0.3568 -0.0254
10402W        W27249   8.663   3.011  13.961  0.0317  0.3367 -0.2678
10403W        W27250   8.195   7.326  15.289  0.2606  0.1619 -0.1748
10404W        W27251  11.370  14.649   5.831  0.1830 -0.1911 -0.1690
10405W        W27252   5.530   7.250   4.695  0.0030  0.0245  0.2504
10406W        W27253   2.054   1.654  11.295  0.0056 -0.0763  0.0162
10407W        W27254   0.320   5.886  15.598  0.3348  0.2576  0.3994
10408W        W27255   7.436   5.899  15.656 -0.1899  0.0624  0.0835
10409W        W27256  15.111   3.787  12.791  0.0003  0.1527 -0.1347
10410W        W27257   0.971   4.333   3.229  0.5468  0.1929  0.1277
10411W        W27258   4.007   7.945  13.941  0.2500 -0.2378 -0.0026
10412W        W27259  11.330   0.796  14.153  0.0655  0.1438 -0.0287
10413W        W27260   0.621   7.158   4.588  0.4431  0.3098 -0.2569
10414W        W27261   8.927   0.194   4.837  0.1015  0.0469 -0.0269
10415W        W27262  15.524  17.691  14.426  0.1076  0.0749  0.0147
10416W        W27263  13.485  14.411   3.911  0.1350 -0.1678  0.0616
10417W        W27264   6.266  13.066   1.523 -0.0625 -0.0594  0.1767
10418W        W27265  14.850   0.108  11.847  0.0478  0.5561  0.1677
10419W        W27266   5.348  13.633   2.348 -0.0090 -0.2137 -0.0393
10420W        W27267  10.336   2.132   0.821 -0.1107 -0.1295  0.1006
10421W        W27268   9.596   5.414   3.466  0.1291 -0.0411  0.1701
10422W        W27269   4.142   4.960  15.084  0.1023  0.2185  0.0536
10423W        W27270   4.008  10.266  14.539 -0.0627 -0.0217  0.0243
10424W        W27271  15.802   2.326   3.415 -0.3052  0.0320 -0.2309
10425W        W27272   6.056   0.111   5.043  0.2196  0.0969 -0.2911
10426W        W27273  10.493   6.817  12.399 -0.2345 -0.0965  0.0670
10427W        W27274  11.014   4.026   2.361  0.0100 -0.3626  0.3123
10428W        W27275   7.399   5.461   2.086 -0.2228  0.1309 -0.0975
10429W        W27276  17.946  17.820  14.402  0.3146 -0.0913  0.2442
10430W        W27277  16.939   6.947   2.664 -0.1161  0.1716  0.1244
10431W        W27278   3.219   4.969  13.594  0.1103 -0.0420 -0.0842
10432W        W27279   7.402  17.396   0.533  0.2194 -0.0651 -0.0217
10433W        W27280   5.362  15.857   2.346  0.4299 -0.0855 -0.1997
10434W        W27281   3.672  13.416  11.732 -0.1039 -0.0595 -0.1453
10435W        W27282  18.523   1.421  14.140 -0.3394 -0.0935 -0.0762
10436W        W27283   3.175  18.443  13.724 -0.1439  0.0978  0.0223
10437W        W27284  15.317  10.140  12.733 -0.0604 -0.0842  0.1128
10438W        W27285   7.911  13.765   3.027 -0.0603 -0.2863  0.0026
10439W        W27286  16.954   3.083  11.102  0.0532  0.0113 -0.0615
10440W        W27287  11.883   4.446   9.673  0.2444 -0.1910  0.2133
10441W        W27288   7.348  13.531  13.307  0.3013 -0.1321 -0.1009
10442W        W27289  18.272  17.253  13.115 -0.2297  0.0568 -0.1106
10443W        W27290  11.557   3.445   1.499 -0.1532  0.2857 -0.0164
10444W        W27291  11.105   2.953  13.401  0.3005 -0.2092  0.1343
10445W        W27292   3.106   8.331   3.899 -0.1363 -0.0908  0.1846
10446W        W27293  14.202   1.580  12.234 -0.3040 -0.0882  0.0334
10447W        W27294   2.852   7.233  12.835  0.2231 -0.0836 -0.1686
10448W        W27295   6.075  13.471  14.842  0.1526  0.0385  0.2252
10449W        W27296   7.531   9.482   0.544  0.0334  0.2059 -0.0386
10450W        W27297  17.628  17.095  15.535 -0.3055  0.2820 -0.4066
10451W        W27298   2.199   6.531  13.930 -0.0941  0.0630 -0.0327
10452W        W27299   3.976   4.304   5.312 -0.2876  0.0720 -0.0540
10453W        W27300  12.006  11.137   0.709 -0.0520  0.4186 -0.0748
10454W        W27301  16.936  16.163   4.724  0.0710 -0.0754  0.0962
10455W        W27302   9.165   0.434   2.337 -0.0749 -0.3236 -0.0038
10456W        W27303   8.537  14.426  12.722 -0.0657 -0.2407 -0.0996
10457W        W27304   1.709   8.390   1.832  0.2114 -0.1626 -0.2614
10458W        W27305   6.108   9.152  14.811  0.1453  0.2230  0.1111
10459W        W27306   2.573   0.387   3.622  0.0549 -0.1337  0.2168
10460W        W27307   4.656  11.805   5.576  0.0012  0.2271  0.0922
10461W        W27308   4.909  14.561   0.626 -0.0563 -0.0317 -0.2003
10462W        W27309   4.580  18.048  14.006 -0.3854  0.1835  0.0787
10463W        W27310   7.545  14.916  13.580 -0.0630 -0.2994  0.0658
10464W        W27311  13.333   7.064   4.613  0.0388 -0.0565  0.1286
10465W        W27312   6.181  12.711   1.106 -0.0694  0.0630 -0.1306
10466W        W27313   7.222  10.218   0.846  0.3979  0.0005 -0.0067
10467W        W27314   5.278   3.867   0.337  0.1625  0.0329 -0.2719
10468W        W27315   1.333  12.602   3.659 -0.0333 -0.0224  0.0587
10469W        W27316   3.849  15.344   2.526 -0.3384  0.1852 -0.0875
10470W        W27317  12.624  15.337  15.866 -0.1304 -0.2948  0.1979
10471W        W27318  10.882  14.887  14.047  0.0150 -0.0359  0.0523
10472W        W27319   9.180  11.035  11.147 -0.2912  0.1512 -0.1488
10473W        W27320   2.989   1.376   0.619 -0.0587 -0.0569 -0.0012
10474W        W27321   6.401   3.949  12.424 -0.1622  0.3493 -0.2808
10475W        W27322  13.350   1.333   0.309  0.0379  0.0224 -0.3318
10476W        W27323   6.520   9.773   4.391  0.4321 -0.0153  0.0649
10477W        W27324  14.882   6.502  14.791  0.0353  0.3540  0.2069
10478W        W27325  14.534   4.172   3.050 -0.0713  0.0728 -0.0210
10479W        W27326   5.665   9.952   5.104 -0.2811 -0.0927 -0.0439
10480W        W27327  12.393  14.868  11.308 -0.0720 -0.2618  0.2920
10481W        W27328   5.342   5.487  15.260  0.1483  0.0883  0.1528
10482W        W27329  13.860  18.138   5.641 -0.0745 -0.0604 -0.0286
10483W        W27330   5.815  10.695   1.499 -0.1648 -0.0337 -0.1944
10484W        W27331   4.880   2.124   4.767  0.1438 -0.2120  0.0279
10485W        W27332  10.478  13.949  14.937  0.3189  0.2257 -0.2286
10486W        W27333  10.864  16.936   0.465  0.2118  0.0139  0.0465
10487W        W27334   6.975   6.246  10.726  0.1010 -0.0892  0.1281
10488W        W27335   3.439   2.935   3.227  0.0614  0.0664 -0.4232
10489W        W27336  10.643  16.862  11.930 -0.1899  0.1274  0.1065
10490W        W27337   3.251   6.508  13.412  0.3228  0.1514  0.1181
10491W        W27338  18.115  17.672  13.364 -0.0610  0.3728  0.0617
10492W        W27339   6.019   2.879   4.284 -0.0208 -0.3704  0.0811
10493W        W27340   9.244   6.985  11.054 -0.2218 -0.0038  0.1587
10494W        W27341  11.470  15.946  13.056 -0.0262  0.2393  0.2193
10495W        W27342  15.650  14.833  15.259  0.5003 -0.0780  0.1383
10496W        W27343  13.867   4.200  13.225 -0.2160 -0.1430 -0.0580
10497W        W27344   1.991  14.720   1.720  0.0341  0.1307 -0.0871
10498W        W27345  10.442  13.428   3.759 -0.2164 -0.1248  0.2062
10499W        W27346   2.187  17.556   4.478  0.4710 -0.0335  0.0509
10500W        W27347   1.948   4.527  12.008 -0.1148 -0.0204  0.0564
10501W        W27348   9.161  10.334   2.911  0.0199 -0.1531  0.1098
10502W        W27349  10.533  10.563   2.035 -0.1520 -0.0113 -0.1993
10503W        W27350   0.831  14.634  14.712  0.1262  0.0666 -0.3072
10504W        W27351  10.836  16.411  13.204 -0.0413  0.2038  0.2015
10505W        W27352  12.825   6.409  11.809 -0.0124 -0.2247  0.2591
10506W        W27353   7.795  18.023  10.386  0.1145 -0.0268  0.0411
10507W        W27354   4.422  15.681  11.811 -0.1742  0.0513  0.1645
10508W        W27355  17.880   1.927   3.724  0.2611 -0.1362 -0.0514
10509W        W27356   0.747  12.630  11.927  0.1516 -0.1731 -0.2336
10510W        W27357   2.487   2.675  12.360  0.2212  0.1302  0.1175
10511W        W27358   2.641   4.787   1.443 -0.1348  0.1051  0.0854
10512W        W27359   3.566   3.174  15.661  0.1713 -0.0343 -0.1071
10513W        W27360  13.519  14.376  12.448 -0.3771 -0.0192 -0.1544
10514W        W27361   0.725   8.906  12.837  0.2548 -0.2213 -0.1661
10515W        W27362  10.267   2.443  14.559 -0.1884  0.0240 -0.1961
10516W        W27363   1.898   4.645   0.793 -0.1170 -0.1039  0.4400
10517W        W27364  17.777   7.620   0.362  0.2143  0.1662 -0.1027
10518W        W27365  15.393  14.593   1.935  0.3416  0.1268 -0.0920
10519W        W27366  16.077  13.415  12.688  0.0091 -0.0954 -0.0874
10520W        W27367   6.668   0.390  11.841 -0.3676  0.0507  0.2008
10521W        W27368  11.424   3.132  15.881 -0.1522  0.0658 -0.2043
10522W        W27369  18.124   0.333  12.499  0.1187 -0.1624  0.0129
10523W        W27370  14.757  15.896  12.617 -0.1298  0.0436  0.2038
10524W        W27371   7.601   1.898  15.492  0.1389  0.4095 -0.3211
10525W        W27372   1.056  16.539   3.834 -0.2871 -0.0093 -0.1246
10526W        W27373  13.565   8.913   3.433 -0.0065  0.5149  0.1624
10527W        W27374   4.365   0.754   5.156 -0.0155  0.1136  0.2630
10528W        W27375   7.910   6.732  15.458 -0.0347  0.2690 -0.0480
10529W        W27376  14.076   1.809  14.634  0.1674 -0.1214 -0.0049
10530W        W27377  16.174  11.525  14.981 -0.2587 -0.3703  0.2239
10531W        W27378  12.243  18.207   2.285 -0.4298 -0.4821 -0.0136
10532W        W27379  12.264  17.765  15.688  0.0715 -0.0921  0.1895
10533W        W27380   3.407  12.843   0.791  0.3340  0.1152  0.2066
10534W        W27381   2.350   6.571  11.876  0.3633 -0.3008 -0.0223
10535W        W27382  18.493   8.905   3.526 -0.2117  0.0040  0.0644
10536W        W27383  10.737  10.683   2.527  0.0733  0.2082  0.1339
10537W        W27384   2.817  11.446   4.043 -0.2301  0.1321  0.0306
10538W        W27385  18.270   2.426   2.221  0.3888 -0.2567 -0.1024
10539W        W27386  13.410   3.066   3.893  0.0622  0.2438  0.5378
10540W        W27387  17.787  10.744  13.703 -0.1347  0.2668  0.1580
10541W        W27388   6.018  11.802   4.842  0.2848 -0.1278 -0.0098
10542W        W27389  12.199  11.724  13.630 -0.6162 -0.0176 -0.0818
10543W        W27390  16.085   2.274   0.480 -0.0487  0.0049  0.1483
10544W        W27391  17.637   6.852   3.118  0.2568  0.1354 -0.1128
10545W        W27392  16.523  14.184  15.390  0.2201  0.2464 -0.1927
10546W        W27393  10.878  15.668  11.944 -0.1857  0.0507 -0.1631
10547W        W27394   8.459  10.137   1.470  0.0952  0.3313  0.1431
10548W        W27395  10.168   6.288   0.123 -0.0565  0.1529 -0.0527
10549W        W27396   6.585   8.124  13.084 -0.1782 -0.1368 -0.0279
10550W        W27397   7.658  15.169   3.051  0.1887 -0.2824 -0.0949
10551W        W27398  16.914  16.538   3.581 -0.0842  0.2121  0.0888
10552W        W27399   3.745   9.052  11.269 -0.2700 -0.2212  0.3057
10553W        W27400   9.572   3.548  14.160  0.0804 -0.0962  0.1469
10554W        W27401   3.610   0.772  13.301  0.2400 -0.2282 -0.0053
10555W        W27402   0.107  14.211   3.658 -0.1496  0.1177  0.1439
10556W        W27403   8.855  15.337   4.735 -0.2683 -0.1879 -0.1409
10557W        W27404   3.200  11.419   5.885 -0.1610  0.4333  0.3394
10558W        W27405   7.402   5.063  14.383  0.3521 -0.0863 -0.3927
10559W        W27406  15.395   1.003  11.757 -0.1629 -0.2965  0.0958
10560W        W27407   4.531  13.383  15.802 -0.0582 -0.2614 -0.2507
10561W        W27408   2.498   9.388  14.879  0.1309  0.1459  0.1653
10562W        W27409   7.697   2.497  12.775 -0.1623 -0.0572  0.2873
10563W        W27410  17.264  11.192   0.505  0.0840  0.2148  0.1799
10564W        W27411   4.402  17.158  15.271 -0.0060  0.1819 -0.0902
10565W        W27412  14.928   2.969   4.928 -0.0784 -0.0682  0.0332
10566W        W27413   5.545   6.193  13.197  0.0522  0.2103 -0.1708
10567W        W27414   6.162   3.471  11.314 -0.1629 -0.1687 -0.2708
10568W        W27415   2.784  16.653  12.399  0.0450  0.1525 -0.1696
10569W        W27416  18.008   5.501   4.777 -0.0367 -0.1280 -0.0469
10570W        W27417  14.347   4.370   1.025  0.0338 -0.1559  0.0991
10571W        W27418   6.160   2.388   4.254 -0.3848 -0.1204 -0.3159
10572W        W27419   7.750   3.938  13.554  0.1793 -0.0558  0.0191
10573W        W27420  11.114  10.382  12.349 -0.1180  0.3231  0.0809
10574W        W27421  18.504  12.330   5.929  0.0920  0.1274  0.3253
10575W        W27422   5.237   0.101  14.606  0.1501  0.1635  0.0208
10576W        W27423   5.873   9.953   3.407 -0.2091  0.0116  0.2378
10577W        W27424  11.440  10.137  15.228 -0.0782  0.2119  0.3275
10578W        W27425   1.080  14.252  12.669  0.1556  0.1253 -0.1784
10579W        W27426   4.887  16.673   5.412  0.1434  0.1390  0.2778
10580W        W27427   1.707  11.588  11.160  0.0133 -0.0770 -0.4883
10581W        W27428  15.174  13.601   5.608  0.0643 -0.2356 -0.3253
10582W        W27429  17.274  12.403  14.552  0.1741 -0.0513  0.1104
10583W        W27430  17.129  16.092  15.676  0.0063 -0.0050  0.0106
10584W        W27431  10.472   6.659   4.392  0.0659  0.0012 -0.0043
10585W        W27432   9.128  15.790   3.157  0.0733  0.1584 -0.0472
10586W        W27433  12.088   9.607   9.883 -0.0320  0.0163 -0.0763
10587W        W27434   0.076  16.487   2.216  0.1161 -0.0155 -0.0984
10588W        W27435   3.798  12.063   5.569  0.3297 -0.2417 -0.1333
10589W        W27436  12.803  15.142   2.957 -0.2573 -0.2386  0.1201
10590W        W27437  10.221  15.462  15.462 -0.0074  0.3284  0.0640
10591W        W27438   5.241   4.345  12.359  0.1518 -0.0365  0.0499
10592W        W27439   5.291  12.998   4.917 -0.1263  0.3861 -0.0239
10593W        W27440   1.941   0.446  13.556  0.0286 -0.0297  0.1650
10594W        W27441  12.252  17.947  10.907 -0.0886 -0.0104  0.0411
10595W        W27442  11.590   9.276   1.967  0.1207 -0.1958 -0.0261
10596W        W27443  17.885   4.505  13.779  0.0685  0.0843 -0.0207
10597W        W27444  14.524   5.537  12.523  0.0603  0.0341 -0.1192
10598W        W27445   6.234  17.312   3.062 -0.1590  0.0537 -0.1482
10599W        W27446  18.370   1.256   4.584  0.3094  0.1531 -0.1300
10600W        W27447  14.366  12.443   2.370 -0.3637 -0.2438  0.0585
10601W        W27448  12.675  17.002   4.358 -0.0498 -0.1579  0.0537
10602W        W27449   8.527  13.953   4.457 -0.0279  0.0040 -0.0289
10603W        W27450  14.353  14.152   1.039  0.3028  0.0516 -0.2926
10604W        W27451  13.115  17.996  12.270 -0.0863  0.0096 -0.0886
10605W        W27452  16.594   6.563  14.794 -0.2404  0.2662  0.3919
10606W        W27453   9.862  14.575  12.704 -0.0053 -0.0392 -0.0351
10607W        W27454   4.765  11.738   0.106  0.1524  0.1402  0.3192
10608W        W27455  16.292   5.920  14.696 -0.1396 -0.0813 -0.0826
10609W        W27456   9.071   7.650  13.033  0.1735  0.1898 -0.2937
10610W        W27457  14.502   3.464  10.842 -0.1008  0.0761  0.1198
10611W        W27458   4.516  12.749  12.359 -0.1064 -0.1383 -0.1193
10612W        W27459  13.167  14.828  11.565 -0.0077 -0.2630  0.0228
10613W        W27460   8.888  11.370   0.922  0.0836 -0.0096 -0.1785
10614W        W27461  15.772   0.164  15.363  0.2242  0.4555 -0.0606
10615W        W27462  13.588  16.651  12.153 -0.0538 -0.1230 -0.0604
10616W        W27463   2.510   8.815   3.364 -0.0014 -0.1266 -0.2170
10617W        W27464  14.449  15.046  13.361 -0.2207  0.0976  0.0157
10618W        W27465   2.084  13.675   3.135 -0.3321 -0.2459 -0.0332
10619W        W27466  12.377  10.334   0.562 -0.2309 -0.0154 -0.0963
10620W        W27467   4.160   2.637   4.583  0.0309  0.2407  0.1416
10621W        W27468   2.457   0.653   1.876  0.0840 -0.0087  0.3080
10622W        W27469   8.143   2.718  11.388 -0.1038  0.2856 -0.2225
10623W        W27470   1.791  11.796  12.687 -0.0508  0.0396 -0.0818
10624W        W27471   7.646  11.529   2.731  0.1921 -0.3828  0.2372
10625W        W27472   2.808  17.204  13.319 -0.0298  0.0808 -0.0140
10626W        W27473  11.659   1.200   2.566  0.0145 -0.3191  0.0283
10627W        W27474  16.690   7.234   1.074 -0.0916  0.0678 -0.1272
10628W        W27475  14.973   9.392   4.729 -0.2258  0.0273 -0.1241
10629W        W27476   5.431  12.893   0.617 -0.2448 -0.1703 -0.0886
10630W        W27477  17.284  11.625   0.809 -0.1580  0.2245 -0.2463
10631W        W27478  15.005  15.977   2.730  0.1434  0.1271 -0.1278
10632W        W27479   0.917  17.757  15.170  0.0094 -0.1429 -0.0943
10633W        W27480  16.398   7.487  14.481  0.3268  0.0568  0.1271
10634W        W27481  13.504  15.248  12.312 -0.1758  0.0006 -0.0773
10635W        W27482  10.470   8.700  13.309  0.1162  0.0010 -0.1249
10636W        W27483   6.398  13.248   2.480 -0.0699  0.0721  0.1788
10637W        W27484   3.966   0.198  15.600 -0.1984  0.0209 -0.1192
10638W        W27485   5.180   7.644   3.999  0.3962  0.0356  0.1087
10639W        W27486   0.734   6.793   0.953  0.5055 -0.1858 -0.0787
10640W        W27487   7.638  12.647   5.709 -0.0297  0.0267  0.1261
10641W        W27488  15.307  14.720  12.924  0.0118  0.0321  0.0715
10642W        W27489  14.702   0.934   4.966 -0.0326 -0.1670 -0.0539
10643W        W27490   4.505  13.267  13.972  0.1300 -0.0722 -0.2939
10644W        W27491   4.841   6.170   5.066 -0.2213 -0.0096 -0.0547
10645W        W27492   4.199  10.609  11.978 -0.3166  0.2887  0.2813
10646W        W27493   7.882  13.857   1.377  0.1294  0.0476 -0.1456
10647W        W27494   9.139   4.103   2.543 -0.1486  0.0500  0.0913
10648W        W27495  12.788  15.883  14.936  0.0954  0.0328 -0.0544
10649W        W27496   2.553  14.028   3.619  0.1169  0.2035  0.0525
10650W        W27497  11.584   4.209   2.060 -0.2681  0.1794 -0.1407
10651W        W27498   8.176   3.389   4.761  0.0590  0.0504 -0.3680
10652W        W27499  11.451   2.455   1.979  0.1444 -0.1076  0.1004
10653W        W27500   2.362   4.380   1.427 -0.0778 -0.0152  0.0273
10654W        W27501   9.133   1.878  13.701  0.2345  0.1610 -0.1001
10655W        W27502   4.668   8.629   5.307 -0.0305  0.1738  0.1759
10656W        W27503   7.242  12.865   5.047  0.0585  0.0904  0.1760
10657W        W27504   3.517  18.201  15.006 -0.1447  0.0194  0.2314
10658W        W27505  13.518   5.844  11.822  0.1344 -0.0647  0.2649
10659W        W27506  18.243   8.895  12.069  0.1992  0.0984  0.0130
10660W        W27507   0.362  15.163   4.628  0.2790 -0.1320  0.1224
10661W        W27508  10.654   0.126   4.248  0.3238  0.0173  0.3231
10662W        W27509   4.741  13.709   3.292 -0.0306  0.0340  0.1233
10663W        W27510  16.193  15.959   0.117 -0.2183  0.1387 -0.3436
10664W        W27511   4.854  14.131   5.016 -0.1556 -0.0272 -0.2239
10665W        W27512   4.814  11.225   5.470 -0.2106  0.1230 -0.2209
10666W        W27513   5.908  14.263  15.306 -0.1257  0.0012 -0.2209
10667W        W27514  14.293   2.072  15.058 -0.2064 -0.1176  0.1170
10668W        W27515  18.007  17.789  12.364  0.1989 -0.1560 -0.2511
10669W        W27516   2.821  10.205  10.619  0.1002 -0.1152  0.2699
10670W        W27517  10.741   5.649   5.811 -0.2342  0.1292 -0.1428
10671W        W27518   0.239  13.272   3.597  0.0298  0.0537  0.1931
10672W        W27519  13.389   9.579   0.271  0.3221 -0.1455 -0.3095
10673W        W27520  11.904   0.586  11.521 -0.0176 -0.2027  0.3334
10674W        W27521  16.806  16.923  14.009  0.0760  0.1978 -0.2434
10675W        W27522  17.319  14.754  14.387  0.4465 -0.0671 -0.3991
10676W        W27523   0.208   4.425  12.545 -0.0294  0.1039  0.0816
10677W        W27524   5.728  10.454   1.929  0.3109  0.2517  0.2576
10678W        W27525   7.626   4.477  13.580 -0.0788 -0.2156 -0.0854
10679W        W27526  13.617   7.265  15.316 -0.2327 -0.2662  0.0241
10680W        W27527  17.297   9.568   5.147  0.0444  0.2031  0.1929
10681W        W27528  11.058   1.891  12.558 -0.1887  0.1978 -0.0467
10682W        W27529  11.587  10.635   0.203  0.2378  0.0683  0.1152
10683W        W27530   8.363   1.416   5.433 -0.1140 -0.3423 -0.1823
10684W        W27531  14.001   5.649   2.281  0.1338 -0.1661 -0.0229
10685W        W27532   5.331   6.274   4.976  0.0171 -0.3038  0.3150
10686W        W27533  13.602   3.858   1.281 -0.0309 -0.0768 -0.3297
10687W        W27534  11.999   0.312   2.893  0.0691  0.0828 -0.0703
10688W        W27535  14.682  17.433   0.396 -0.2109  0.1714  0.1414
10689W        W27536   8.979   5.392  13.965  0.1885 -0.0109  0.0381
10690W        W27537   1.290  17.560  12.715 -0.3562  0.0092 -0.2077
10691W        W27538  11.974   8.629   3.831 -0.1382 -0.1313  0.0681
10692W        W27539  13.574  11.279   0.187  0.0123 -0.2794  0.0982
10693W        W27540   1.417   5.151  11.377  0.3913  0.2442  0.0313
10694W        W27541  11.015  13.790   4.530 -0.1702 -0.1916  0.1274
10695W        W27542  11.785   2.134  13.314  0.1307 -0.3500 -0.2786
10696W        W27543   7.207   6.591   4.234  0.3028  0.3061  0.0992
10697W        W27544   7.611   3.539   1.775  0.1381 -0.0694 -0.1858
10698W        W27545  17.867  14.888  15.888 -0.1994 -0.3663 -0.0065
10699W        W27546  11.034  17.291   1.011 -0.1331 -0.0410 -0.0233
10700W        W27547  15.957   1.422   3.531  0.1929 -0.2259 -0.0280
10701W        W27548   3.349   4.193   1.603 -0.0224 -0.1801 -0.2362
10702W        W27549   6.356   4.652  12.739  0.1084 -0.0820  0.0493
10703W        W27550   6.156   2.719   2.822  0.1541  0.4945 -0.1590
10704W        W27551  17.109   3.024  10.635 -0.1032 -0.0828 -0.1577
10705W        W27552   1.873   8.449   5.192  0.1012 -0.3010  0.0464
10706W        W27553   9.236   7.026   0.247 -0.0173 -0.0229  0.1351
10707W        W27554  16.578   1.278  11.161 -0.1904 -0.0361 -0.3373
10708W        W27555   8.387  18.497  12.920 -0.0790 -0.0186  0.1412
10709W        W27556  16.738   2.370   2.973 -0.0824  0.0378 -0.3532
10710W        W27557  13.506   5.839   4.384 -0.2228  0.0722  0.0716
10711W        W27558  12.843   0.495   0.169  0.1033  0.1413  0.0048
10712W        W27559  14.344   7.817  11.568  0.2401  0.2111 -0.3238
10713W        W27560   0.753  17.724  15.656  0.0336  0.0292 -0.0113
10714W        W27561   2.605   1.902  13.635  0.0576 -0.0633  0.1008
10715W        W27562   1.912   3.440  12.680  0.1505 -0.3128  0.3120
10716W        W27563   3.321   6.122   0.819  0.0697  0.1816  0.0019
10717W        W27564  17.047  13.317  14.622  0.1195 -0.0144  0.0507
10718W        W27565   5.833   2.377  12.517  0.2597 -0.1116  0.0484
10719W        W27566   0.650  14.329   0.108 -0.0635 -0.0211 -0.1891
10720W        W27567   4.881   3.495   2.352  0.1431 -0.1669 -0.2477
10721W        W27568   2.656   4.233  10.813  0.1102 -0.0635 -0.0417
10722W        W27569   6.845  11.053   5.396  0.1051  0.0218  0.2887
10723W        W27570  16.975   2.570  12.676  0.0932 -0.0810  0.0952
10724W        W27571  10.856   9.996  15.174 -0.1570 -0.1021  0.0531
10725W        W27572  11.542   0.351  13.209  0.2339 -0.0425 -0.2567
10726W        W27573  17.228   5.905   5.046 -0.1327  0.2091  0.2554
10727W        W27574  13.671   4.288  11.516  0.0300  0.1022 -0.1006
10728W        W27575   1.508  11.861  10.840 -0.1630  0.0958 -0.2635
10729W        W27576   6.377   0.509   4.318 -0.3450 -0.1867 -0.0393
10730W        W27577  15.687  15.496   2.403 -0.3317 -0.2392 -0.2540
10731W        W27578  11.056  12.936  12.451 -0.2631 -0.2186  0.2293
10732W        W27579  13.536   9.362   1.609 -0.1104 -0.0252 -0.0910
10733W        W27580  12.557  11.630  10.639  0.1999 -0.1327 -0.0331
10734W        W27581   7.889  18.289  14.095  0.1652 -0.1127  0.2297
10735W        W27582  12.681  16.087  11.141 -0.1917 -0.0634 -0.1077
10736W        W27583   3.146   7.521  11.580  0.2258  0.0446 -0.1046
10737W        W27584   1.800  16.867   1.712 -0.1554 -0.2168  0.0421
10738W        W27585  16.694  14.426   2.525 -0.1674  0.1509  0.0891
10739W        W27586   7.421  18.419   0.358  0.3098  0.0676 -0.0087
10740W        W27587  14.868  12.764  14.414 -0.1156 -0.0108 -0.3243
10741W        W27588  17.215  14.076  11.473 -0.4056 -0.1213 -0.1507
10742W        W27589   3.716  13.859  12.241 -0.0371 -0.2807 -0.1085
10743W        W27590  18.311  10.403   0.472 -0.0325 -0.0398  0.2212
10744W        W27591   7.583  15.289  12.620 -0.0228 -0.1323  0.1152
10745W        W27592   4.389   7.152   2.663  0.0926 -0.0155 -0.0496
10746W        W27593   0.400  12.952   1.064 -0.0899 -0.0068  0.1078
10747W        W27594   3.183   3.385   2.009  0.0876 -0.1320 -0.0885
10748W        W27595   2.766   2.204   1.287 -0.0513  0.1302  0.2796
10749W        W27596   4.659  16.103  13.408 -0.0094  0.0429 -0.1894
10750W        W27597   7.472  11.220  13.915  0.1645 -0.2668 -0.1568
10751W        W27598  12.730   8.361   5.689 -0.0202 -0.0094 -0.1238
10752W        W27599  12.264  12.222   4.652 -0.0401  0.1697 -0.1346
10753W        W27600   6.419  15.139  11.341  0.3333  0.0516 -0.1288
10754W        W27601  10.221   2.341  15.894 -0.2118 -0.0857  0.0356
10755W        W27602   0.075   0.533   0.848 -0.1701 -0.1362  0.2563
10756W        W27603   1.427   0.995  13.839 -0.0378  0.1117  0.1796
10757W        W27604   8.213   3.465   0.545 -0.0277 -0.2655 -0.1290
10758W        W27605   5.174   7.843   5.739 -0.2095 -0.2068 -0.1835
10759W        W27606   3.654   4.757  14.859 -0.0065 -0.0099 -0.0418
10760W        W27607  15.006  17.577  15.914 -0.0248 -0.0797 -0.1552
10761W        W27608  15.780   4.845  12.259  0.2185 -0.2996  0.1742
10762W        W27609  13.530   4.430  14.922  0.0390  0.1469  0.2008
10763W        W27610  13.681  13.092   0.675  0.0751 -0.0803 -0.0759
10764W        W27611  11.010  15.743   3.054 -0.0635 -0.0817  0.1212
10765W        W27612  14.976   5.642  10.959  0.0164  0.1440 -0.1732
10766W        W27613  12.977  13.026   0.932 -0.0546 -0.1123  0.2454
10767W        W27614   3.819  10.836   3.456 -0.0280 -0.0351  0.2000
10768W        W27615  11.033  15.330  14.162 -0.0850 -0.0473 -0.0692
10769W        W27616   4.693   3.386  11.489  0.0819 -0.0544 -0.1031
10770W        W27617  18.454   9.986  12.481 -0.1570 -0.0286 -0.2545
10771W        W27618   3.952   2.612  14.623  0.2056  0.1085 -0.0768
10772W        W27619   9.360  17.129  11.705 -0.0363  0.1706 -0.0640
10773W        W27620   9.427  16.755   5.314 -0.2271  0.2172  0.3993
10774W        W27621   5.975   6.305  14.032 -0.0515 -0.0794 -0.0466
10775W        W27622   5.677   3.451   0.766 -0.1302 -0.2203  0.2104
10776W        W27623  18.431   6.001  13.108 -0.1840  0.1535  0.1133
10777W        W27624  12.362   7.737   2.742 -0.0437 -0.0892 -0.0263
10778W        W27625  12.258   1.403  15.333  0.0783  0.4713 -0.2242
10779W        W27626   7.024   3.788   2.894  0.4947 -0.1379  0.0261
10780W        W27627  14.873  16.625  10.511  0.0801 -0.1315  0.2391
10781W        W27628   2.022   6.221  12.350  0.1866 -0.0936 -0.0956
10782W        W27629  16.499   5.692  11.464 -0.1194  0.2094 -0.2478
10783W        W27630   5.885   5.193   3.949 -0.0605 -0.1796  0.0715
10784W        W27631  15.630   1.697  12.943 -0.0831  0.2470 -0.1162
10785W        W27632  15.478   6.612  11.356 -0.1601  0.0152 -0.1720
10786W        W27633  13.788   7.634  12.839 -0.0695 -0.0906 -0.1624
10787W        W27634   4.748   1.460  14.149  0.0191 -0.2510 -0.1861
10788W        W27635   7.235   4.618   3.347  0.0352  0.1163 -0.1469
10789W        W27636   9.170  10.047  12.220 -0.1717  0.2787  0.3688
10790W        W27637   7.213   9.226  11.222  0.0168  0.2406  0.1446
10791W        W27638  15.380  17.835   0.963 -0.0151 -0.0704 -0.1185
10792W        W27639   2.696  18.288   1.851 -0.2232  0.0006 -0.0327
10793W        W27640  13.994   8.189   0.527 -0.2545  0.2275  0.1370
10794W        W27641   4.536  15.389  15.109 -0.0611  0.1650 -0.2136
10795W        W27642   5.406  16.736   3.581  0.1478 -0.1840 -0.0542
10796W        W27643  13.947   5.095   2.361 -0.3369  0.2202  0.1094
10797W        W27644  15.553  18.347  14.394 -0.3677 -0.2604 -0.2726
10798W        W27645   3.930  16.136   2.294 -0.1519 -0.2997  0.1128
10799W        W27646  12.976   9.384   1.333  0.2954 -0.1563 -0.0480
10800W        W27647   4.649   4.847   1.676  0.1689 -0.2717 -0.2052
10801W        W27648  16.769  13.842  12.507  0.0617  0.1871 -0.1219
10802W        W27649  10.283  16.233   0.379  0.2606  0.0666  0.0880
10803W        W27650   3.519   6.134  13.612 -0.0254 -0.2964 -0.6780
10804W        W27651   9.251   7.117  14.102  0.1919  0.0068 -0.0291
10805W        W27652   7.169   0.066   5.731 -0.1330  0.2770  0.4095
10806W        W27653   3.854   3.406  10.875  0.1419  0.0954 -0.4997
10807W        W27654   5.038  17.282  11.971  0.0895 -0.0402 -0.3683
10808W        W27655   3.310   2.012  13.438 -0.2680  0.3289 -0.4814
10809W        W27656   4.493  14.982   5.831 -0.0271  0.0235  0.4413
10810W        W27657   4.792   6.366  15.069  0.0038  0.1113 -0.0038
10811W        W27658   7.346  14.627  15.430 -0.0008 -0.0331  0.0572
10812W        W27659   2.758  18.490   1.383 -0.0102  0.0681  0.0172
10813W        W27660  10.635   4.916  11.695 -0.1208  0.1979 -0.0686
10814W        W27661   1.150   1.746   1.189 -0.1200 -0.1112  0.1875
10815W        W27662   4.376  14.905  11.056 -0.1119  0.2208  0.2512
10816W        W27663  10.386   7.539   1.464  0.1321 -0.3658  0.0887
10817W        W27664  11.872  15.782   3.109 -0.1066 -0.0013 -0.0350
10818W        W27665  10.865   9.299  11.404  0.1085 -0.2234  0.1532
10819W        W27666   2.904   9.921   0.602  0.0151  0.1631 -0.2360
10820W        W27667  12.025   7.033  11.781 -0.1028  0.1895  0.1294
10821W        W27668  11.399   7.219  13.791  0.1231 -0.0159  0.1462
10822W        W27669   4.174   0.072  14.558  0.1808  0.0210  0.0572
10823W        W27670   0.681  16.880  14.341  0.2744 -0.3191 -0.0064
10824W        W27671  12.500   0.240   1.249 -0.1036  0.0983  0.0740
10825W        W27672  18.106  11.787  15.674  0.0752  0.0861 -0.0697
10826W        W27673   8.807   7.288   5.039 -0.0225 -0.1881 -0.3626
10827W        W27674   8.950  13.860   2.605 -0.1109  0.4613  0.0007
10828W        W27675   8.154   8.659  13.115 -0.0741 -0.0192  0.0231
10829W        W27676   1.967  13.528  13.415  0.1614 -0.0144  0.0924
10830W        W27677  17.408  17.156  13.329  0.1597  0.0867  0.0575
10831W        W27678  17.030   3.745  15.441  0.1029  0.0529 -0.0944
10832W        W27679   6.226   0.477   2.135  0.2901 -0.0355  0.2196
10833W        W27680   0.424   9.940  15.552 -0.3841  0.0897  0.1151
10834W        W27681   6.061   8.516  15.027 -0.1377  0.0625 -0.0250
10835W        W27682  15.672   8.812   1.032  0.0421  0.0356 -0.0194
10836W        W27683  11.722  12.450  11.854 -0.1758 -0.0519  0.3358
10837W        W27684  15.210  16.238  10.648 -0.1193 -0.0653  0.2650
10838W        W27685  14.173  13.377  15.327 -0.2661 -0.0140 -0.2078
10839W        W27686   4.288  11.713   3.387 -0.0548 -0.0612 -0.0057
10840W        W27687  16.353  12.428   1.629  0.0762  0.3373 -0.2421
10841W        W27688   5.395  18.201   1.180 -0.1061 -0.0998  0.1564
10842W        W27689   1.158   4.450   1.708  0.0367 -0.1166 -0.1601
10843W        W27690   8.735  13.771   3.055  0.1112 -0.0626 -0.0839
10844W        W27691   3.375  16.769   2.422  0.0886  0.0942 -0.0407
10845W        W27692  14.257   8.847  15.100 -0.1142  0.0161 -0.1868
10846W        W27693   9.627  14.117   0.965 -0.0946  0.0185  0.2324
10847W        W27694   6.373  16.361  12.359  0.2391  0.1233  0.0906
10848W        W27695  12.293  16.348  11.543  0.1074 -0.0169 -0.1303
10849W        W27696  11.762   2.282  11.147 -0.0110  0.1333 -0.0102
10850W        W27697   3.032   5.974  11.550 -0.3326  0.2567  0.0360
10851W        W27698  17.381   5.833   2.250  0.0120 -0.0820  0.1294
10852W        W27699  16.399  10.972  13.801  0.0910 -0.0555  0.1707
10853W        W27700  17.917   4.280  11.913 -0.1014 -0.1812 -0.0891
10854W        W27701  14.257   2.384   2.707  0.0277 -0.3407  0.0612
10855W        W27702   5.540  14.786  11.676 -0.2091  0.0342 -0.1584
10856W        W27703  13.577  15.117   1.769 -0.1704 -0.4290  0.3338
10857W        W27704   4.715   5.564   0.187 -0.0399  0.0450  0.0556
10858W        W27705   2.548   4.579   1.969  0.1065  0.0314 -0.0812
10859W        W27706  10.951   6.606  10.784  0.0746 -0.3235  0.0347
10860W        W27707   3.945   4.180   3.616 -0.1543 -0.0378 -0.1069
10861W        W27708   8.074   3.855   4.232 -0.0061 -0.2648  0.2344
10862W        W27709  11.287  13.485   1.884 -0.1072 -0.1098 -0.2832
10863W        W27710   0.219   1.682   2.449 -0.1487  0.0854  0.1858
10864W        W27711   8.546  13.582   1.848 -0.1120  0.0855  0.0765
10865W        W27712   1.552  15.588  10.933 -0.3223 -0.0521  0.1404
10866W        W27713   6.297   9.905  13.516  0.0958 -0.0427 -0.4692
10867W        W27714  11.474  18.510   2.632 -0.2696  0.0434  0.1134
10868W        W27715   9.578   9.769  13.657 -0.0407 -0.1421  0.3911
10869W        W27716   6.921   1.786  14.178 -0.0671  0.1746 -0.0750
10870W        W27717  11.799   0.425  12.715 -0.0156 -0.1075 -0.0816
10871W        W27718   1.457  13.015  15.543  0.2726  0.0085  0.0735
10872W        W27719  14.786   0.268  12.366  0.0553  0.1045  0.0879
10873W        W27720   5.681   9.616  12.702 -0.0202  0.2569 -0.0532
10874W        W27721   8.161   1.943   1.915  0.2048 -0.2632  0.2205
10875W        W27722  15.795   9.770   2.750 -0.1592  0.1694  0.0210
10876W        W27723   1.302   1.351  11.521 -0.0045 -0.0630  0.0825
10877W        W27724   9.808  14.573  11.486 -0.0480  0.0744  0.2150
10878W        W27725   1.130  11.564   4.690 -0.0336 -0.2078  0.3737
10879W        W27726   6.598   3.044   4.066  0.0864 -0.0845  0.0452
10880W        W27727   4.109   5.069  12.685 -0.0612  0.2308 -0.0987
10881W        W27728  12.443  12.256   1.220 -0.1565  0.0595  0.1495
10882W        W27729  12.771   4.771   4.341 -0.3443  0.1733 -0.3181
10883W        W27730  13.822  12.803   5.453  0.0514  0.0436 -0.2013
10884W        W27731   9.105  13.982  14.166 -0.1055  0.1351 -0.0301
10885W        W27732   9.649  12.098   6.227 -0.0852 -0.3128 -0.5103
10886W        W27733   8.229  17.367  12.402  0.1451 -0.1044 -0.1324
10887W        W27734  14.518  15.232  12.230 -0.1329 -0.3759  0.0148
10888W        W27735   3.102  17.028   0.864 -0.0335 -0.0169  0.1092
10889W        W27736   4.398   3.642  12.747  0.0346  0.2064 -0.0323
10890W        W27737  13.427  16.614  12.623  0.1301  0.0525  0.0700
10891W        W27738   1.110   3.768   5.376 -0.2507  0.2928  0.1383
10892W        W27739   8.359   5.376   5.002  0.0632  0.2180 -0.0892
10893W        W27740   2.391  16.295  11.601 -0.2065 -0.2784  0.2110
10894W        W27741   5.922   7.666   0.124 -0.4571  0.1411  0.0415
10895W        W27742   8.984   6.890   3.440 -0.1275 -0.1760 -0.1060
10896W        W27743   3.011   2.572   0.566 -0.0708  0.1649 -0.1899
10897W        W27744   0.867  17.151  15.795  0.1693 -0.0949  0.3005
10898W        W27745  16.739   0.520   2.934  0.3387  0.0665  0.0114
10899W        W27746   5.563   9.225  10.934 -0.1086  0.0693 -0.0428
10900W        W27747   9.742   0.480  15.676 -0.4244  0.0986  0.1399
10901W        W27748   9.167   8.044   4.762 -0.0377 -0.0590  0.2019
10902W        W27749   5.569   8.768   4.744  0.4225  0.0170  0.0745
10903W        W27750   3.533   5.529  14.432  0.1228  0.2509 -0.2333
10904W        W27751  12.415   8.307  15.749 -0.2226  0.1257  0.1603
10905W        W27752  14.857  17.475  13.534 -0.0957  0.1635 -0.0044
10906W        W27753  12.464   0.062  14.390 -0.3634 -0.4541 -0.2116
10907W        W27754   1.279   5.101   0.458 -0.2118 -0.0857 -0.2091
10908W        W27755   9.311   3.147  13.424 -0.1875 -0.2309 -0.0249
10909W        W27756  12.817  16.097   0.371  0.0438  0.0278  0.1939
10910W        W27757   4.006  11.241   4.405 -0.2564  0.1245 -0.2410
10911W        W27758   1.541  14.581   0.360  0.2759  0.0797 -0.0895
10912W        W27759   9.594   3.277   0.369  0.1237 -0.0113 -0.1155
10913W        W27760  13.876   5.253  10.528 -0.1628 -0.1755 -0.0453
10914W        W27761   1.025   6.445   2.585  0.0893 -0.2182 -0.0404
10915W        W27762  11.351  13.666   3.675  0.0290  0.0795 -0.1431
10916W        W27763  16.510  11.703   5.225 -0.1193 -0.2264  0.1047
10917W        W27764   7.574  12.863  13.708 -0.0398  0.2630  0.0899
10918W        W27765   7.577   0.809   3.897  0.2255 -0.2604  0.1198
10919W        W27766  10.853   1.688  13.486 -0.0285 -0.0529 -0.0301
10920W        W27767   5.292   6.337  15.240  0.3999 -0.0267  0.0478
10921W        W27768   4.662   8.634   2.686 -0.1846  0.0931  0.1536
10922W        W27769  11.721  18.294  13.439 -0.0091  0.0161  0.1598
10923W        W27770  16.277   1.708   0.369 -0.1642  0.1832 -0.0017
10924W        W27771   1.613   6.129  14.673  0.2628 -0.0866 -0.1067
10925W        W27772  15.724   2.083   1.253  0.1683  0.1008  0.1004
10926W        W27773   0.663   8.235   0.951 -0.0816  0.1294  0.2672
10927W        W27774  16.419   6.690  14.125 -0.2214  0.4287  0.2644
10928W        W27775   4.462   9.433  10.301  0.0413  0.0315 -0.0466
10929W        W27776   4.195   4.895   5.817  0.2796 -0.0183 -0.1996
10930W        W27777   1.476  14.998   2.003  0.2003  0.1303  0.2100
10931W        W27778   3.787  17.115   5.150  0.1605 -0.0454  0.0907
10932W        W27779  15.338  16.348  15.922 -0.1134 -0.3256  0.2712
10933W        W27780  17.078  17.597  15.474 -0.0273 -0.3189 -0.1375
10934W        W27781   1.680   3.062  14.297 -0.2165  0.0156 -0.0030
10935W        W27782  15.770   7.430  12.744 -0.0605 -0.2633  0.0709
10936W        W27783   3.839  15.966   4.428 -0.2299  0.4465  0.0583
10937W        W27784  14.552  13.155   4.638 -0.0262  0.0765 -0.0168
10938W        W27785  13.704  17.736   5.207  0.0700  0.1008 -0.3112
10939W        W27786   9.309   0.153   0.010  0.1819  0.1950  0.2591
10940W        W27787  17.682   0.098  12.415  0.4362  0.0748 -0.2001
10941W        W27788  17.591   9.635  12.840  0.0113  0.0344 -0.3265
10942W        W27789   6.577  13.943   4.663 -0.1401 -0.2426 -0.5231
10943W        W27790  17.985   4.686  15.591  0.0016 -0.1691  0.1356
10944W        W27791   9.564   4.030  13.908  0.0934 -0.3554  0.0468
10945W        W27792   7.143   9.553   3.328 -0.2536  0.1377 -0.2130
10946W        W27793  13.871  14.044   4.801  0.0050 -0.3477 -0.1016
10947W        W27794  18.058  18.358  14.269 -0.2103 -0.1790 -0.1700
10948W        W27795  18.182   7.746  13.611 -0.2942  0.2025  0.0055
10949W        W27796  16.961   5.600  12.490  0.2983 -0.0683 -0.3284
10950W        W27797   8.197   3.404   3.089  0.1444  0.0553  0.0547
10951W        W27798   2.686   8.980  13.978  0.0370 -0.2077  0.0589
10952W        W27799  16.052  15.192   5.014  0.2951  0.0685  0.1072
10953W        W27800  10.725   3.641  15.675 -0.0737  0.2359 -0.0261
10954W        W27801   9.714  11.400   0.839 -0.0945  0.0546  0.0818
10955W        W27802   8.056   4.010   0.493  0.1463 -0.2890 -0.1729
10956W        W27803  17.761   6.803   1.649  0.1224  0.0338 -0.0438
10957W        W27804  11.489  16.797  12.983  0.0474  0.0108 -0.0254
10958W        W27805   0.459   8.297  15.259 -0.0998 -0.1312 -0.0896
10959W        W27806  17.688  17.736  12.726  0.1730  0.1063 -0.0714
10960W        W27807   4.244  13.151   5.160 -0.3192 -0.1188 -0.1215
10961W        W27808   6.386   0.482   1.190 -0.3514  0.0272  0.0419
10962W        W27809   5.416   5.398  13.299  0.0842  0.2372 -0.2904
10963W        W27810   3.382  14.574  15.818  0.0945 -0.0926 -0.1361
10964W        W27811  17.783  10.143  14.308  0.0367 -0.0318  0.1944
10965W        W27812  11.341   0.629  12.845 -0.0828 -0.1804 -0.0364
10966W        W27813   6.153  14.906  12.482  0.4332  0.0331 -0.0656
10967W        W27814   0.872  11.118   4.731  0.1641 -0.0703  0.0879
10968W        W27815  12.331  14.284   1.064  0.1039 -0.1640 -0.0938
10969W        W27816  14.108   0.485  13.673 -0.2324 -0.0074 -0.0435
10970W        W27817   0.963  15.664  15.194 -0.0738  0.0631 -0.0327
10971W        W27818  10.802  13.877   4.996 -0.1621 -0.2462 -0.2680
10972W        W27819  14.709  16.424   2.012  0.3476  0.1336 -0.0905
10973W        W27820  12.801  14.337  11.563 -0.0768 -0.1733  0.2437
10974W        W27821   3.003   0.640   3.467  0.1212 -0.0362  0.2334
10975W        W27822   7.369   7.040   4.287  0.2264  0.1049  0.2478
10976W        W27823   1.187  12.992   1.580  0.0661  0.2674 -0.3278
10977W        W27824   4.709  10.631  11.756  0.1288  0.1436 -0.2027
10978W        W27825   8.597  10.673  14.226 -0.3022  0.3932 -0.2151
10979W        W27826  17.635   4.810   0.043  0.1355 -0.0858  0.0673
10980W        W27827   9.790   3.716   4.707  0.1753 -0.2319 -0.1095
10981W        W27828   0.485   2.791  14.629 -0.1614 -0.0373 -0.1932
10982W        W27829  10.569  13.979   4.519  0.0213 -0.0659  0.2742
10983W        W27830   1.930   1.373   1.653  0.1039  0.1314 -0.0276
10984W        W27831  12.840   5.421   1.818 -0.1228  0.2885  0.1025
10985W        W27832   0.502   9.199  11.617 -0.1942 -0.2055  0.0050
10986W        W27833   4.930   8.026  14.268  0.0630  0.1485 -0.2971
10987W        W27834   2.198  18.062   3.046 -0.0714 -0.0205  0.0466
10988W        W27835  12.325   4.780  12.591  0.2208  0.4584  0.0334
10989W        W27836  18.426  18.074  14.485 -0.0749 -0.0963  0.0313
10990W        W27837  11.596  17.327   1.772  0.1705 -0.0719  0.0413
10991W        W27838   9.481  11.570  11.547  0.0657 -0.0947  0.3179
10992W        W27839  12.242  15.875  10.959  0.0430  0.0840  0.0477
10993W        W27840   1.579  10.943  14.526  0.4099 -0.0940  0.1443
10994W        W27841   9.991  10.763  15.740 -0.0624 -0.0013  0.3002
10995W        W27842  16.902  11.100   2.907  0.1843 -0.1509 -0.1074
10996W        W27843  15.604  15.815   3.907  0.0361  0.2631  0.3194
10997W        W27844   8.565  16.496   0.098 -0.2849  0.3420 -0.0039
10998W        W27845   5.074   6.814  15.098  0.1351  0.0189  0.2287
10999W        W27846  17.197   9.447   2.374 -0.2020  0.2448  0.0541
11000W        W27847   4.719   2.435   0.753 -0.0496  0.0226  0.1591
11001W        W27848  10.336  18.113   1.387  0.3380 -0.2972 -0.2461
11002W        W27849  12.585  11.619  13.221  0.0104  0.5317  0.1800
11003W        W27850   1.864   8.862   1.574 -0.0418 -0.1712 -0.1547
11004W        W27851   4.487   8.863   6.058 -0.0692  0.0620  0.1481
11005W        W27852  10.291  13.113  11.396 -0.0540  0.2966  0.0495
11006W        W27853  14.759   7.241  10.952  0.1626  0.0694  0.1307
11007W        W27854   8.529   0.498  11.165 -0.2344  0.0619  0.0804
11008W        W27855   1.268   9.984  12.208 -0.1402  0.2003 -0.2901
11009W        W27856  10.226  16.152   1.440 -0.1614 -0.2859  0.1580
11010W        W27857  16.700   7.376  12.565  0.0616 -0.1458  0.1260
11011W        W27858   1.708  11.361  14.788 -0.1755 -0.1145  0.0694
11012W        W27859  17.832   2.407   1.940 -0.2095 -0.2664 -0.3836
11013W        W27860  12.275  11.920   0.678  0.0051 -0.1820  0.2213
11014W        W27861  18.152   8.442   5.277 -0.1118 -0.1849  0.0417
11015W        W27862  10.500   5.308  13.168  0.1108  0.0899  0.0101
11016W        W27863   5.150   3.806  14.951  0.2139  0.0218 -0.0828
11017W        W27864   0.762   7.786  13.500  0.0500  0.0878  0.0132
11018W        W27865  12.842   0.627   3.440  0.0053  0.3292  0.0103
11019W        W27866   9.409   7.737  11.692  0.0198  0.0752  0.1641
11020W        W27867   9.098   4.713   0.923 -0.0509  0.0404 -0.0110
11021W        W27868   7.849   7.710   5.384 -0.0366  0.3482  0.1341
11022W        W27869   1.337  15.587  12.088  0.1046 -0.0808  0.0446
11023W        W27870  13.812   4.910   2.991  0.1686  0.0335 -0.2957
11024W        W27871   8.578   8.821   0.961  0.3180 -0.1971 -0.2352
11025W        W27872  18.150   8.582  15.202  0.1229  0.1652 -0.0181
11026W        W27873  11.264  12.426   3.454  0.0884  0.1747  0.1765
11027W        W27874  16.633  17.375  15.517  0.1222  0.0127 -0.1927
11028W        W27875  16.966  18.486  13.447  0.0060 -0.0819  0.3460
11029W        W27876   9.315   3.073  10.884  0.1342  0.0362 -0.0375
11030W        W27877   8.742   8.022   0.499  0.2880  0.1445 -0.0643
11031W        W27878  15.693  16.978  12.159  0.2372 -0.2850  0.0045
11032W        W27879   9.865   6.470  15.108 -0.2961  0.3279 -0.1412
11033W        W27880  15.703   6.853   3.746  0.1516  0.1750 -0.2072
11034W        W27881   1.709   9.226   4.475 -0.1176 -0.2847 -0.3017
11035W        W27882  17.574   3.531  13.750  0.1657 -0.1539  0.0064
11036W        W27883   3.750   0.975  15.849 -0.1061 -0.2319  0.2859
11037W        W27884  12.539  11.965  14.586  0.0028 -0.1705 -0.0028
11038W        W27885   3.850   0.799   5.073 -0.1285  0.1542 -0.2674
11039W        W27886   7.689  14.206   3.316 -0.0544  0.0360  0.0572
11040W        W27887   3.319  16.317   5.211  0.2002  0.2373  0.0435
11041W        W27888   6.704   4.186  14.827 -0.3590 -0.0819  0.0657
11042W        W27889   3.584  10.770  11.954 -0.1475  0.1395 -0.2686
11043W        W27890   1.918  12.252  14.279  0.0295  0.1141 -0.0656
11044W        W27891  12.617   8.534  13.946  0.3246 -0.3060  0.0500
11045W        W27892  18.152   5.599  15.250 -0.2208  0.0773  0.1994
11046W        W27893   3.943   7.210   4.014 -0.1107 -0.1241  0.3084
11047W        W27894   7.934  17.721  12.818 -0.2356 -0.0524 -0.0835
11048W        W27895   4.442   2.123   0.513 -0.2016  0.1369 -0.0214
11049W        W27896  13.439  12.434   2.037 -0.1083 -0.1261  0.1376
11050W        W27897  15.123  10.172   6.024  0.0719  0.1832 -0.1282
11051W        W27898  12.468   6.941  10.415 -0.2340  0.1078 -0.3673
11052W        W27899   7.505   1.313   1.311  0.0217  0.1969  0.0966
11053W        W27900   2.599   8.315  14.735  0.1039 -0.1535  0.2836
11054W        W27901   3.213   9.109   0.526 -0.1380  0.1632 -0.0147
11055W        W27902  17.257   7.731   3.642  0.1089  0.0345 -0.0385
11056W        W27903   8.925  11.484  14.535 -0.0832  0.0389 -0.3611
11057W        W27904  13.627  10.832   4.296 -0.1809 -0.2345 -0.0323
11058W        W27905   0.372   0.902   2.143 -0.3202 -0.1134 -0.1419
11059W        W27906  13.697  11.558   3.147  0.1709  0.0666 -0.2538
11060W        W27907  12.398   1.602  10.709 -0.1412  0.0311  0.2307
11061W        W27908   6.520   4.002  13.938  0.0952 -0.2082  0.2375
11062W        W27909  16.726  16.954   4.403  0.0220 -0.1760 -0.0528
11063W        W27910   7.223  17.278   5.719  0.2474  0.0566  0.0566
11064W        W27911   0.070   3.464   3.180  0.1205  0.0694  0.0419
11065W        W27912  13.295  15.280   3.628  0.0628  0.1127 -0.2537
11066W        W27913  14.401  11.281  15.375  0.1448 -0.2453 -0.1995
11067W        W27914   3.443   0.698  13.865  0.3752 -0.1183 -0.0118
11068W        W27915  16.014  18.268   4.292  0.0937  0.0049 -0.0810
11069W        W27916  18.264   0.112   0.730 -0.2809  0.1989 -0.1016
11070W        W27917  17.384  17.946  15.722  0.1068  0.0616 -0.0548
11071W        W27918  16.904  18.228  13.059 -0.1740  0.0197  0.1999
11072W        W27919   9.371   2.094  14.432 -0.5285 -0.2292 -0.2565
11073W        W27920  12.727   1.836  11.134 -0.1876  0.0601  0.3207
11074W        W27921  10.669  14.243   1.800 -0.0369 -0.1211 -0.0507
11075W        W27922  17.131  15.911  11.881 -0.3604 -0.0334 -0.1698
11076W        W27923   9.685   7.355   4.611  0.1046  0.0596 -0.3532
11077W        W27924  17.916   8.620   2.765  0.1961  0.4259 -0.0478
11078W        W27925   1.132  13.380   3.323  0.1582  0.1881 -0.1345
11079W        W27926  17.685   9.454  13.832  0.1280  0.1062  0.1599
11080W        W27927  13.550  15.981  13.803  0.0271 -0.0705  0.1007
11081W        W27928   3.216  13.659   2.227  0.2586  0.0901  0.0938
11082W        W27929  14.014  18.282  12.364 -0.1055  0.4156 -0.0719
11083W        W27930   6.808   7.518   0.590 -0.0434 -0.2698  0.3622
11084W        W27931   7.348  18.230  14.667  0.0227 -0.3944  0.1016
11085W        W27932   6.659   9.960   0.755 -0.1402  0.0415  0.4110
11086W        W27933   3.227  18.028   3.050 -0.0070 -0.1615  0.1613
11087W        W27934   8.113  14.210   4.289 -0.1654  0.2492  0.2664
11088W        W27935   5.111   0.040  13.685 -0.0180 -0.2379  0.1275
11089W        W27936  12.012  10.125  11.118 -0.0692 -0.4232 -0.0566
11090W        W27937  11.176   3.925  13.922 -0.3329  0.4136  0.0001
11091W        W27938  18.247   5.438   0.358  0.1170 -0.0197  0.4857
11092W        W27939  10.908   7.147  10.084 -0.0631 -0.0837 -0.1641
11093W        W27940   5.514   6.837   3.871  0.1185 -0.0060  0.2409
11094W        W27941  17.395   6.654   1.336  0.0858  0.0005 -0.0071
11095W        W27942   4.535  11.528  13.399  0.1503 -0.2395  0.0017
11096W        W27943   5.899   2.711   0.980 -0.0418 -0.0283  0.2701
11097W        W27944   0.165  17.716   0.885  0.0446  0.0590 -0.0973
11098W        W27945   2.145  17.246   2.572 -0.1610 -0.0120 -0.1359
11099W        W27946  13.089   2.046  15.153 -0.0229  0.2238 -0.0083
11100W        W27947   9.508  14.734   2.846  0.1816  0.0323  0.0365
11101W        W27948   8.976  11.608  13.003  0.0379  0.0757  0.0439
11102W        W27949   8.144   6.119   1.220  0.0151 -0.0471 -0.1253
11103W        W27950   8.764   2.771  14.854  0.2260  0.1614  0.0184
11104W        W27951  18.422   7.276  13.593  0.0796 -0.2879 -0.1928
11105W        W27952   5.090  13.519  15.040  0.2284 -0.2895 -0.2413
11106W        W27953  17.748   1.670   4.217  0.5042 -0.1837  0.3718
11107W        W27954   3.041  14.637  12.514  0.2456  0.0461 -0.0430
11108W        W27955   5.850  12.684  14.800  0.2279 -0.0490  0.0509
11109W        W27956   9.908   9.208   0.378  0.4020 -0.0092 -0.1198
11110W        W27957  16.000  10.659  11.032 -0.1266 -0.1364 -0.1916
11111W        W27958  16.137  10.591  12.876 -0.1746 -0.0162 -0.0520
11112W        W27959  10.600  13.081   3.484  0.2824  0.3126  0.3795
11113W        W27960   7.803   6.487   3.545 -0.3596  0.1642 -0.2239
11114W        W27961  12.494   1.250  10.334  0.0689  0.0080  0.3644
11115W        W27962   5.170  17.538   1.968  0.0824  0.0757 -0.1956
11116W        W27963   7.218   5.892  10.978 -0.0081 -0.1543  0.1029
11117W        W27964  12.193  15.261   2.172  0.3263  0.2307 -0.1067
11118W        W27965   3.982   1.824   4.147 -0.3173  0.0817 -0.1475
11119W        W27966   8.347  18.391  14.465 -0.2873  0.0807  0.2253
11120W        W27967  11.900  13.863  12.204  0.1948  0.0454  0.1336
11121W        W27968  12.791   8.549   1.869  0.1082  0.1780 -0.2658
11122W        W27969  11.833  17.040   0.084 -0.2752 -0.1978  0.0651
11123W        W27970  11.095   5.684  15.252  0.1603  0.0129 -0.0406
11124W        W27971  12.490   2.465  13.928 -0.0718  0.0054 -0.2368
11125W        W27972  12.436  15.989  15.893  0.1410  0.4441 -0.3020
11126W        W27973   5.093  15.326   3.691 -0.0650 -0.2384  0.1827
11127W        W27974   5.402  16.569  12.538  0.2748  0.2018 -0.4610
11128W        W27975  10.481   8.952  11.309  0.1750 -0.2422 -0.2573
11129W        W27976  11.572   9.026   1.001 -0.1542 -0.2525 -0.0081
11130W        W27977  14.613   1.424   5.779 -0.0311  0.2961  0.2368
11131W        W27978  13.389   3.547   2.858  0.1015 -0.1305 -0.2611
11132W        W27979  12.073  13.314  14.376  0.0694 -0.1291  0.4029
11133W        W27980   2.078   5.592   3.107  0.0534 -0.0024  0.0194
11134W        W27981  12.304   3.354  15.562 -0.1452 -0.3897  0.0209
11135W        W27982  17.674  13.973  13.901 -0.0701 -0.0022  0.3242
11136W        W27983  16.657  13.352  12.674 -0.3224 -0.0011  0.1823
11137W        W27984   1.455  11.904   0.095 -0.0056  0.2671 -0.1733
11138W        W27985   2.484   6.153  13.702 -0.1911  0.1669 -0.2535
11139W        W27986   5.822   0.317   1.233  0.3001 -0.0388  0.0640
11140W        W27987   1.323   6.792   3.514 -0.1206  0.2447  0.0835
11141W        W27988   3.903  16.141   5.216 -0.1765  0.0316  0.0740
11142W        W27989   9.906   8.744   3.202 -0.0419  0.2594 -0.2000
11143W        W27990  10.017  18.529   0.614 -0.2501  0.0324 -0.1697
11144W        W27991  12.362   2.540  13.008 -0.1355  0.0033  0.0352
11145W        W27992   4.489  14.443   5.655 -0.1115 -0.0332 -0.0833
11146W        W27993  17.867   5.481   1.353  0.2407 -0.2211  0.0201
11147W        W27994   5.919  11.723  12.221 -0.0500 -0.0994  0.0986
11148W        W27995  11.727  14.288  12.043 -0.3493  0.1580  0.1515
11149W        W27996  16.607   8.687   1.047  0.5173 -0.0567 -0.1212
11150W        W27997   1.143   5.968   2.528 -0.0571  0.0823 -0.0273
11151W        W27998   2.617  13.026  14.974  0.1883 -0.2166 -0.3815
11152W        W27999   6.481   8.369   5.322  0.0788 -0.0217 -0.0470
11153W        W28000   7.596   9.863  13.468  0.4315  0.2035 -0.0937
11154W        W28001   1.867  10.627   3.956  0.0113  0.2490 -0.2914
11155W        W28002   7.121   8.711   2.050 -0.1884 -0.1245 -0.0941
11156W        W28003  13.635  14.394  10.295 -0.0914  0.0248  0.0417
11157W        W28004   4.276   7.063  11.054 -0.1131 -0.0997 -0.3062
11158W        W28005   2.497   0.941  14.880  0.0141  0.0052  0.1026
11159W        W28006   4.732  11.664   2.653 -0.1287 -0.2433  0.1591
11160W        W28007  16.354   6.479  11.544  0.0384  0.1068 -0.0318
11161W        W28008   1.384   1.085  14.656  0.0197  0.2378 -0.5199
11162W        W28009   9.418   4.946  13.436 -0.1626  0.0851 -0.2613
11163W        W28010  17.428  10.954  12.549 -0.0692  0.2041 -0.1328
11164W        W28011   6.441  16.069  13.291 -0.0312 -0.1279  0.0645
11165W        W28012   2.969  14.985  12.933  0.2081 -0.1386 -0.0257
11166W        W28013   2.410  17.015   5.246  0.3455  0.1390  0.0572
11167W        W28014   2.834   2.427   3.882  0.2047 -0.1999  0.1008
11168W        W28015  14.223   9.775  14.510  0.1407  0.2265 -0.2402
11169W        W28016   8.114  18.069   4.412  0.0969  0.1027 -0.2724
11170W        W28017   3.350   6.033  14.191  0.2393  0.2650 -0.2002
11171W        W28018  11.784  12.139  12.889  0.2589 -0.1316  0.0725
11172W        W28019   0.202   4.924   1.273  0.0635  0.2165 -0.0052
11173W        W28020  14.844  13.196  12.204  0.0497 -0.1516  0.0995
11174W        W28021   3.504   5.572  13.324  0.2554  0.2417 -0.2739
11175W        W28022   9.086  16.239  14.502 -0.0845 -0.2296 -0.1309
11176W        W28023   3.643   5.998  13.104  0.2336  0.1941  0.2523
11177W        W28024  13.945   2.407   3.517 -0.0880  0.0134 -0.0456
11178W        W28025   7.001  13.560   1.808 -0.0944 -0.1542 -0.0658
11179W        W28026  10.435  10.917  14.809  0.1569 -0.1742  0.2441
11180W        W28027  17.435   2.939   1.418 -0.1243  0.2918 -0.2301
11181W        W28028   1.585   4.800   5.179 -0.0410  0.2268  0.0909
11182W        W28029  14.814   6.489  12.221 -0.0802 -0.1585  0.0010
11183W        W28030   9.319  18.522   3.271  0.1002 -0.1031  0.1274
11184W        W28031   8.471   8.493   3.549 -0.1075 -0.0271 -0.2428
11185W        W28032  14.249   1.327  14.601 -0.2968 -0.1635 -0.0045
11186W        W28033  14.642   5.761   1.711  0.0135 -0.2522 -0.1117
11187W        W28034  16.245   1.952  14.700  0.4098  0.0542  0.0941
11188W        W28035  11.037   4.418   3.105 -0.0708 -0.1881 -0.0288
11189W        W28036   6.349   9.408  12.158 -0.0473 -0.1790  0.2928
11190W        W28037  14.887  15.910  10.960  0.2417  0.0134  0.0828
11191W        W28038  16.136  14.374   0.463  0.0688  0.3085  0.1271
11192W        W28039   9.875  10.986   3.207 -0.0862  0.2465  0.2203
11193W        W28040  11.537   7.742  12.720  0.1166  0.0493  0.1544
11194W        W28041  17.696  11.206  13.554 -0.0225  0.0993 -0.1469
11195W        W28042   0.601  16.350  11.988 -0.0418  0.2255  0.1142
11196W        W28043   8.537   4.931   1.781  0.2197  0.3698  0.4361
11197W        W28044   6.432  12.018   2.681 -0.1236 -0.2753 -0.2054
11198W        W28045   4.425   8.468   2.223  0.0559 -0.0569  0.0536
11199W        W28046  17.209  13.825  10.934  0.2209  0.0913  0.0326
11200W        W28047  13.089   1.016   4.947  0.0221 -0.0397  0.2025
11201W        W28048  11.631  11.348   1.887  0.1519  0.0201 -0.0886
11202W        W28049   5.853   4.887   4.802  0.0081  0.0011 -0.1482
11203W        W28050  12.635  10.046  13.017 -0.1060  0.2140 -0.1100
11204W        W28051  12.034   2.000   0.236 -0.0728 -0.0630  0.0616
11205W        W28052   7.150  12.219   3.622 -0.0269 -0.1096  0.0130
11206W        W28053   5.609  17.562   1.829  0.0284  0.1777  0.0981
11207W        W28054   6.241  18.386  10.277 -0.1126 -0.0240  0.1277
11208W        W28055  13.815   9.899   2.430  0.1981 -0.0194 -0.1322
11209W        W28056   3.120  17.507  12.969  0.3242  0.2635  0.0223
11210W        W28057   5.875  14.023   3.874 -0.2210 -0.2775 -0.0595
11211W        W28058   5.746   1.960   3.133 -0.0191 -0.0711 -0.3941
11212W        W28059  11.977   7.180  13.973 -0.3625 -0.1341 -0.0022
11213W        W28060  15.985  16.777   3.308 -0.2047  0.2620 -0.0274
11214W        W28061   6.698  16.604   4.654 -0.0440 -0.0745 -0.1763
11215W        W28062   2.059  16.417  11.253  0.1131 -0.1764 -0.1309
11216W        W28063   9.446   4.601  14.612 -0.0815  0.0047  0.3133
11217W        W28064   3.499   7.564  11.117 -0.2304 -0.0552  0.1332
11218W        W28065  17.190   6.400  14.801  0.4388  0.3602  0.0556
11219W        W28066   3.749   2.392  13.075  0.3407 -0.0288 -0.4480
11220W        W28067   1.827   9.352  15.174  0.0682 -0.0619 -0.1998
11221W        W28068   7.186  15.858   3.457 -0.2204  0.0951 -0.0904
11222W        W28069   2.799   6.542   0.785 -0.0684 -0.0598 -0.2180
11223W        W28070  13.143  18.438  12.058 -0.1737 -0.1626 -0.0086
11224W        W28071   4.865   2.618  13.637 -0.2263 -0.0394  0.2698
11225W        W28072  12.053  11.193   1.768 -0.4047 -0.1380 -0.0505
11226W        W28073  12.977   2.880   1.104  0.1822  0.1200 -0.2029
11227W        W28074   9.973  11.383  15.819  0.0418  0.0279  0.0685
11228W        W28075  13.224  15.923   1.871  0.1431 -0.0072  0.0719
11229W        W28076   3.532   2.160   4.228  0.0100 -0.0253  0.2156
11230W        W28077  14.611  10.203  13.856  0.0455  0.0662 -0.3341
11231W        W28078   9.715   6.878  11.314  0.0694  0.0298  0.1951
11232W        W28079   0.396   4.215   1.841 -0.0280  0.3288 -0.0623
11233W        W28080  12.307  17.919  14.952  0.3578 -0.0485 -0.1691
11234W        W28081   2.686   0.087  11.648  0.2321 -0.1985  0.0374
11235W        W28082  17.877   0.521  11.158  0.0841  0.0950 -0.0988
11236W        W28083  13.365  13.953   0.733  0.2436  0.0224 -0.1915
11237W        W28084  13.767   5.371  11.820 -0.2112 -0.0845 -0.0035
11238W        W28085   7.954  12.458  12.426  0.0309  0.1279  0.2034
11239W        W28086   9.161  17.533   5.154 -0.0847  0.0988 -0.0406
11240W        W28087  17.482   9.629  12.055 -0.1918 -0.3224  0.2732
11241W        W28088  15.590  18.046   1.320 -0.1103  0.0488  0.0360
11242W        W28089  16.116   0.137   1.303  0.2038 -0.2528  0.2103
11243W        W28090   0.692  12.430  15.298 -0.2384 -0.0988  0.0301
11244W        W28091  12.633   2.059   4.322 -0.1226  0.0711 -0.0859
11245W        W28092   7.954  10.307   1.630 -0.3894  0.1581 -0.1863
11246W        W28093  16.669   7.067   0.212 -0.3512  0.2064 -0.2100
11247W        W28094   4.388   2.874  13.645  0.1008 -0.0485  0.0038
11248W        W28095   0.820   9.931   1.666 -0.0808  0.1077 -0.0279
11249W        W28096   6.787  10.741   0.245  0.0175 -0.0091 -0.1783
11250W        W28097  12.783   1.481  12.133 -0.2632  0.0914 -0.3236
11251W        W28098   3.252   8.549   3.431 -0.3216 -0.1028 -0.1936
11252W        W28099  10.219   3.092  13.178 -0.1553  0.2903  0.1247
11253W        W28100   9.825   8.158   3.634 -0.0118 -0.0412  0.0133
11254W        W28101  10.352  13.826   5.854 -0.0944 -0.2916  0.3442
11255W        W28102   1.764   3.394   1.222  0.2253 -0.2018 -0.0877
11256W        W28103  18.194  15.382  12.375 -0.0133  0.2278  0.0691
11257W        W28104   8.182  11.983   5.032 -0.3825  0.1342 -0.0409
11258W        W28105  10.045  11.602   3.967 -0.1563  0.0750 -0.2176
11259W        W28106   2.196   0.385   0.590  0.2594 -0.0525  0.0002
11260W        W28107  10.779   7.552  15.379  0.3306 -0.0760  0.1742
11261W        W28108  14.953  16.406  11.605  0.0917  0.0025  0.0587
11262W        W28109  12.850  12.550   1.051  0.0253 -0.2199  0.1723
11263W        W28110   0.588  17.857  13.902  0.0898 -0.1485  0.1749
11264W        W28111   5.441  16.877   1.781  0.2563  0.0814  0.0308
11265W        W28112  17.030   0.208   3.558  0.1158 -0.0598  0.1028
11266W        W28113   0.720   4.119   0.134  0.1689 -0.0119  0.2510
11267W        W28114  14.870   3.280   2.163 -0.2081 -0.1199 -0.1443
11268W        W28115   1.421  15.714  12.589  0.0887 -0.2678 -0.0251
11269W        W28116   2.993   5.243  12.161 -0.2550 -0.2503  0.1418
11270W        W28117  15.045  10.888  12.722  0.2239 -0.2580 -0.0079
11271W        W28118  17.870  10.604  14.268 -0.1984  0.1679  0.2058
11272W        W28119   7.807  16.836  14.394  0.1311  0.1803 -0.3657
11273W        W28120  13.864   9.016   0.005 -0.0662 -0.2893  0.1523
11274W        W28121  14.143  15.872   2.197 -0.2325  0.1682  0.0395
11275W        W28122  12.709  17.664  11.517  0.2948  0.3089 -0.1077
11276W        W28123   2.713  11.192   6.066 -0.1871  0.4948  0.0248
11277W        W28124   3.294  16.431   2.968 -0.1775 -0.0702  0.2079
11278W        W28125  10.986   7.102  11.324  0.1767  0.1193 -0.2309
11279W        W28126  16.426   6.914   0.650  0.2485  0.1224 -0.0701
11280W        W28127  17.676  12.468   0.444  0.0019 -0.0914 -0.0426
11281W        W28128   3.796   7.714   1.624 -0.1421 -0.1096 -0.1799
11282W        W28129   6.443   7.887   1.859 -0.4042 -0.0899  0.1959
11283W        W28130   4.868   2.678   1.820 -0.3342 -0.1358  0.3102
11284W        W28131   9.068  18.143   1.088  0.2339  0.1755 -0.2783
11285W        W28132   3.145   6.274  10.413  0.0309  0.0605  0.4113
11286W        W28133   4.179   1.115   0.754  0.1555  0.1172  0.0644
11287W        W28134   4.384   0.670   2.888  0.0087  0.1851  0.3447
11288W        W28135  16.618   4.080   1.304 -0.1589  0.4419  0.1491
11289W        W28136   3.448   5.339  11.367 -0.3158  0.0068 -0.2239
11290W        W28137   6.316   5.658  13.832 -0.1786 -0.1925  0.1373
11291W        W28138   0.682   0.393  15.939  0.1321 -0.1748  0.1906
11292W        W28139   6.191   6.750  13.638  0.2234 -0.0497  0.1893
11293W        W28140   9.366  12.565   2.182  0.0986 -0.1038  0.1539
11294W        W28141   7.234  10.806   5.486  0.1108 -0.0938  0.3173
11295W        W28142   3.364  14.878   0.689  0.1127  0.3081 -0.3361
11296W        W28143  15.768  14.039  15.493 -0.2831 -0.3919 -0.0338
11297W        W28144  14.586   8.638  14.173 -0.0105 -0.1843  0.0995
11298W        W28145   4.881   6.361  11.424 -0.2432 -0.0131 -0.4572
11299W        W28146   3.008  11.748   2.213  0.2605  0.1120  0.0707
11300W        W28147  17.229  17.797  10.581 -0.2377 -0.0907 -0.0127
11301W        W28148   0.238  13.395  12.034 -0.0508 -0.1921  0.0239
11302W        W28149   4.676   4.146  12.628 -0.0164 -0.1678 -0.2035
11303W        W28150   3.200   7.672   2.412 -0.0486  0.1487  0.1115
11304W        W28151  16.107   4.748  12.965 -0.2320 -0.0464  0.1886
11305W        W28152  10.993   7.076  14.634 -0.0593 -0.2638  0.3796
11306W        W28153  17.909  14.402  15.589  0.1276 -0.0276  0.3405
11307W        W28154  17.501   7.963  14.808  0.1101 -0.3003  0.3271
11308W        W28155  17.015   7.273  11.736  0.0393  0.2510 -0.1939
11309W        W28156  11.445   9.494  14.154  0.1788 -0.4450 -0.1164
11310W        W28157  14.425  12.896   3.072 -0.3197  0.0951  0.0483
11311W        W28158  10.359  17.840   3.161  0.0299 -0.2816  0.1733
11312W        W28159   7.984   9.031  15.553  0.1691  0.0683 -0.0778
11313W        W28160   9.299   8.883  12.715 -0.0698  0.0264 -0.1058
11314W        W28161  12.858  16.596  14.991 -0.0403  0.1186  0.2023
11315W        W28162  18.511  10.345   3.129  0.0499  0.0821 -0.4756
11316W        W28163   3.330  16.926  11.680 -0.0229  0.3164 -0.2135
11317W        W28164   8.950   3.981   3.116  0.2366 -0.1831 -0.4104
11318W        W28165   7.649  10.511   0.296 -0.2095  0.0240  0.2592
11319W        W28166   9.091   0.257   0.437  0.1969  0.0448  0.1706
11320W        W28167   9.845  16.244  15.531 -0.2183 -0.0776  0.3093
11321W        W28168   8.635  13.720   3.525 -0.1080  0.1232 -0.0418
11322W        W28169   0.915  14.588   3.164 -0.0396 -0.0278 -0.3088
11323W        W28170  16.363  13.028  11.370 -0.0256  0.1483  0.3924
11324W        W28171   9.366  16.717   0.751 -0.1822 -0.0596 -0.1388
11325W        W28172  14.889  18.014   1.842 -0.1629  0.1362 -0.0767
11326W        W28173   7.939   7.956   1.402 -0.1613 -0.2422 -0.0565
11327W        W28174  16.683   0.872  11.460  0.2521 -0.0867  0.1028
11328W        W28175  17.281   5.130  14.338 -0.2133  0.1749  0.0165
11329W        W28176   4.084   3.101  13.957 -0.0405 -0.0152  0.0898
11330W        W28177   2.348   4.170   2.456  0.0868  0.1712 -0.1470
11331W        W28178  13.512  12.065   3.987 -0.0823  0.4230 -0.1268
11332W        W28179  17.348  10.043   5.312  0.3224 -0.2658  0.0668
11333W        W28180   4.620  12.835   1.075 -0.2960 -0.2350 -0.2003
11334W        W28181  16.705  10.524   3.687  0.2391 -0.0207 -0.0128
11335W        W28182   9.284  12.032  12.263  0.2514  0.2623  0.0856
11336W        W28183   3.348  13.255  13.287 -0.2970 -0.1625 -0.0436
11337W        W28184  16.518   4.918   4.106  0.2962 -0.3259 -0.2398
11338W        W28185  16.284  10.100  13.116 -0.0538  0.0596  0.0492
11339W        W28186  15.071   4.764   2.946 -0.2070  0.1051  0.0856
11340W        W28187  16.579   0.955  12.615 -0.0681  0.3911 -0.1975
11341W        W28188   5.188   5.674  11.457  0.0454  0.1727 -0.1729
11342W        W28189  13.937  16.221   5.664  0.1457 -0.2465 -0.1378
11343W        W28190   0.023  12.990   4.011 -0.1594  0.1471  0.0594
11344W        W28191   8.426  11.759   4.141  0.1094 -0.0773  0.2298
11345W        W28192   1.692  18.338   4.078  0.1181 -0.0630 -0.2279
11346W        W28193  11.286   9.427   3.447 -0.0390  0.2250 -0.2925
11347W        W28194  16.085   6.436   1.957 -0.3110  0.1496 -0.2373
11348W        W28195   5.445   5.329   2.004  0.0079  0.2898 -0.0886
11349W        W28196   7.002   8.686   0.536 -0.0765  0.3014  0.0634
11350W        W28197  10.358  16.114  15.619 -0.2253 -0.2733  0.0539
11351W        W28198   5.809   9.092   5.091  0.0328  0.2638  0.2139
11352W        W28199  13.317   1.750  14.336 -0.0209  0.1055 -0.0797
11353W        W28200  11.242   2.902   1.295 -0.1043 -0.0223 -0.1811
11354W        W28201  12.364   6.582  12.382 -0.2444  0.1032 -0.0186
11355W        W28202   0.245   8.435  10.922 -0.0193  0.2254  0.1094
11356W        W28203   3.507   8.736  14.216 -0.1040 -0.0647  0.1634
11357W        W28204  12.399   5.266   4.217 -0.2287  0.0970 -0.4840
11358W        W28205  18.291   2.989  12.615  0.1529 -0.0266  0.1176
11359W        W28206  16.733  16.995   5.453  0.0680  0.2606  0.0992
11360W        W28207  11.410  15.337  13.681  0.1005  0.1289 -0.0130
11361W        W28208  14.917  15.977  14.012  0.0350  0.3009 -0.1324
11362W        W28209  13.257   0.516   1.047  0.1024  0.0470 -0.0164
11363W        W28210   9.393   9.565  11.442  0.2782 -0.2941  0.2187
11364W        W28211   4.794   9.430   4.420  0.1463  0.0933  0.1536
11365W        W28212   0.016  10.642   4.855  0.0952  0.1308 -0.1324
11366W        W28213   8.850  11.845   2.328  0.1212 -0.0746  0.2691
11367W        W28214  13.237   1.252   4.147 -0.0359  0.0622  0.0265
11368W        W28215  15.462   0.512  11.599 -0.0782  0.2360  0.0542
11369W        W28216  17.352   8.207   3.613  0.1555 -0.1309  0.3064
11370W        W28217   0.736   2.471  11.127 -0.2229 -0.1183 -0.1489
11371W        W28218  17.863   6.905   2.674  0.1609 -0.0012 -0.0070
11372W        W28219   9.861  13.641  13.732  0.0003 -0.1286 -0.0511
11373W        W28220   8.250   6.221  11.814 -0.1801 -0.0829 -0.1014
11374W        W28221   5.498   3.629   3.793  0.0333 -0.0187 -0.1292
11375W        W28222  13.320   1.223  10.755 -0.2968  0.0913  0.0788
11376W        W28223  10.856  17.873  12.499 -0.3276  0.0687 -0.1398
11377W        W28224   7.157  13.097  15.839 -0.0769 -0.1643 -0.2155
11378W        W28225   3.400   3.929   0.276  0.0270 -0.0580  0.0403
11379W        W28226   9.409   8.941  13.198  0.0028 -0.1092 -0.0711
11380W        W28227  10.551  18.429   1.800  0.0863  0.0616 -0.1249
11381W        W28228   1.214   0.041   0.861  0.0561 -0.0025  0.0594
11382W        W28229  15.574   3.564  12.560  0.1000  0.0705 -0.2523
11383W        W28230   9.609  11.805   1.766 -0.2025  0.0629  0.1213
11384W        W28231   8.329  16.661   1.028 -0.1255  0.1093  0.1479
11385W        W28232  13.910  11.189   1.895  0.0323 -0.1683 -0.1006
11386W        W28233  17.017   0.062  11.778  0.0495  0.0586  0.3154
11387W        W28234  13.675   4.509  11.055 -0.2743 -0.1612  0.0591
11388W        W28235   0.102  11.551  12.837  0.1263  0.1040 -0.1335
11389W        W28236   8.952   8.027  15.467 -0.0881  0.0213 -0.1969
11390W        W28237   7.817   1.242   2.478  0.1241 -0.1237 -0.1025
11391W        W28238   0.107  15.094   0.663  0.0531  0.3213 -0.0707
11392W        W28239   2.928  16.053  15.151 -0.1956  0.3728  0.1335
11393W        W28240  13.811  10.708   1.133  0.4927 -0.1149  0.0727
11394W        W28241   7.932  11.409   0.939 -0.2306 -0.0127 -0.0622
11395W        W28242  13.396  10.171  12.594  0.0002  0.1216  0.1875
11396W        W28243   5.575   3.936  15.641 -0.0871 -0.2785 -0.2622
11397W        W28244   3.465   1.439  11.929 -0.0537 -0.2496  0.1683
11398W        W28245  14.399  14.307   2.814 -0.2138 -0.0957  0.2273
11399W        W28246   6.736   9.413  15.843 -0.1668 -0.0097  0.0354
11400W        W28247  17.711   2.423   0.258 -0.0980 -0.3948 -0.2660
11401W        W28248   1.312   7.419   1.969 -0.0947 -0.1280 -0.2172
11402W        W28249   0.388  12.112   2.128 -0.2033  0.1955  0.3538
11403W        W28250  10.291  12.028   5.216 -0.1530  0.0379  0.4742
11404W        W28251  14.148  13.287   3.275 -0.2384 -0.0631 -0.0704
11405W        W28252  11.203   7.854  14.856 -0.2488  0.0784  0.1304
11406W        W28253   4.752  15.420   0.478 -0.0396  0.1664  0.0013
11407W        W28254   9.001  11.805  14.144 -0.0342  0.0122  0.2846
11408W        W28255  16.535  14.752   1.749 -0.2007  0.2364  0.1879
11409W        W28256  12.166   9.792  13.027  0.3863  0.0761 -0.1235
11410W        W28257  11.372  14.459   1.303 -0.3530  0.2177 -0.1076
11411W        W28258   5.768   6.363  15.420  0.0746  0.1035 -0.1787
11412W        W28259   6.434  16.361  13.762 -0.2307 -0.3306  0.0172
11413W        W28260   1.931  18.026  13.874 -0.2332 -0.2779 -0.0241
11414W        W28261   2.243   2.476   2.451 -0.2226  0.2135  0.0759
11415W        W28262  16.336   2.785  15.329  0.1888  0.2431  0.1096
11416W        W28263  11.317   2.216   2.759 -0.0045 -0.1565 -0.1300
11417W        W28264  17.014   2.746  12.057 -0.1289  0.1414 -0.0957
11418W        W28265   4.449   4.712  14.302  0.0599 -0.0427  0.0223
11419W        W28266   9.276   3.456  15.911 -0.4366  0.3446 -0.0316
11420W        W28267  13.399   2.012   0.117 -0.0781 -0.3147 -0.0722
11421W        W28268   3.363   8.455  13.471  0.1093 -0.3050  0.1760
11422W        W28269  10.997   9.629  13.350  0.0999 -0.3273  0.3814
11423W        W28270  15.878   9.137   4.725  0.0526 -0.2289  0.1032
11424W        W28271   5.754   8.461   0.374  0.0210 -0.1703  0.0357
11425W        W28272  17.291  18.108   2.193  0.0183  0.1189  0.0047
11426W        W28273   9.264  16.848  14.852  0.1386 -0.1467 -0.3998
11427W        W28274   0.539  17.745   3.936 -0.1153  0.4490 -0.1644
11428W        W28275   5.343   3.252  13.018 -0.1822 -0.1034  0.0736
11429W        W28276  16.366  17.156   4.742  0.0915  0.2331  0.4093
11430W        W28277   5.080   1.605  15.722 -0.0624  0.1742  0.1912
11431W        W28278  16.264   5.283  13.157  0.1225  0.3020  0.0527
11432W        W28279   6.866   0.387  12.310  0.3797  0.0773 -0.0143
11433W        W28280  17.305   0.808   4.161 -0.1250  0.2615 -0.0897
11434W        W28281   7.951   1.527  12.639  0.1442  0.0170  0.1963
11435W        W28282  11.638   7.779  12.173  0.1979 -0.2305  0.0898
11436W        W28283  18.449  13.545   4.803  0.0203 -0.1471  0.0943
11437W        W28284  14.499  10.250   0.228  0.0562 -0.1233 -0.3506
11438W        W28285   3.250  14.531  13.945  0.1598  0.1672 -0.0161
11439W        W28286   8.549  13.247  15.568  0.0768  0.2120 -0.4726
11440W        W28287   3.718   1.810   4.605 -0.1505 -0.1787 -0.2117
11441W        W28288  14.514   2.908   3.510  0.0200 -0.0445 -0.0434
11442W        W28289   1.806   8.086   3.430  0.0215  0.1624  0.0362
11443W        W28290  16.658   4.190  13.773  0.2890 -0.2489  0.2195
11444W        W28291   8.884  16.793  15.774 -0.0868  0.3445 -0.2826
11445W        W28292   8.922  17.161   3.517  0.0251 -0.0045  0.1241
11446W        W28293   0.407   1.494  12.455  0.1194  0.2197  0.3618
11447W        W28294   5.696   7.695   3.891 -0.1141 -0.1278  0.2128
11448W        W28295   6.177  17.888   0.067 -0.2083 -0.1023  0.1320
11449W        W28296  15.565   6.833  15.252 -0.1446 -0.0646 -0.0486
11450W        W28297   7.182  15.599  13.921 -0.2497  0.1452  0.1088
11451W        W28298   8.471   3.738   4.986  0.1815  0.4177 -0.0411
11452W        W28299   1.883  16.340  15.272 -0.0941 -0.0208  0.1626
11453W        W28300   6.493  16.343   5.024 -0.1116 -0.2194  0.1048
11454W        W28301   4.914   9.628  15.205  0.0557  0.1357  0.2041
11455W        W28302  12.957   8.076  15.163  0.3116 -0.0200 -0.0919
11456W        W28303  15.788  16.494   4.503  0.0866 -0.0286 -0.0611
11457W        W28304   2.175   2.989  14.978 -0.0795  0.0117 -0.0505
11458W        W28305  11.973   1.499   2.852  0.1808  0.0733 -0.0681
11459W        W28306  18.118  10.677   2.995 -0.0315 -0.0600  0.0182
11460W        W28307  11.216   3.430   1.077 -0.2368  0.0752 -0.1905
11461W        W28308   2.287  13.786   4.106  0.2151  0.0542 -0.1601
11462W        W28309   4.913  18.198  15.375  0.0800 -0.2702  0.4896
11463W        W28310  11.532  11.478   4.748 -0.3202 -0.1342  0.1762
11464W        W28311  18.003  12.204   2.793  0.0177 -0.2037 -0.0376
11465W        W28312   1.939   6.313  11.811 -0.1030 -0.2319  0.1407
11466W        W28313   1.924   1.893  15.500 -0.3080  0.1236  0.2493
11467W        W28314  17.417  15.656  13.444  0.0383 -0.2628 -0.1766
11468W        W28315  11.439  16.950   1.268 -0.2107  0.2046 -0.0180
11469W        W28316   8.942   3.901  12.360 -0.2565 -0.4099 -0.0356
11470W        W28317  11.751   5.698   1.366 -0.2108  0.0761  0.2346
11471W        W28318   6.767  12.894   2.653  0.1598 -0.1791 -0.1137
11472W        W28319   3.921  12.004   2.481  0.2035 -0.2415 -0.1216
11473W        W28320  17.422  13.459   1.174  0.1777  0.0098 -0.0647
11474W        W28321  10.127   2.766  11.532  0.0689 -0.0393  0.3850
11475W        W28322  10.597  15.998   2.861  0.1139  0.1494 -0.0056
11476W        W28323   4.354   6.960   1.633  0.2266 -0.2522 -0.0441
11477W        W28324  11.335   3.793  10.768  0.0241 -0.2912  0.0367
11478W        W28325   1.089  15.820   4.846  0.0182 -0.1061  0.0886
11479W        W28326  14.891   4.180   4.326 -0.1341  0.1351  0.1444
11480W        W28327   9.166   0.540  13.680  0.2265 -0.0793  0.1646
11481W        W28328   1.702   0.954   0.990  0.1423  0.0268  0.0702
11482W        W28329  14.143   2.345   4.752 -0.1714  0.0684 -0.0243
11483W        W28330   3.532   9.125   1.526 -0.6003 -0.1719  0.0067
11484W        W28331   6.687  13.139   4.321 -0.2020  0.0601 -0.0375
11485W        W28332  10.880   8.311   0.951  0.1938  0.0322  0.0354
11486W        W28333   1.585  12.927   2.521 -0.3706  0.0860 -0.1466
11487W        W28334   8.415  16.512  12.532 -0.0945 -0.0089  0.2281
11488W        W28335  15.370   6.656   4.062 -0.3466  0.0240 -0.1420
11489W        W28336  15.141   0.950  11.280  0.1373  0.0468  0.1557
11490W        W28337  14.920  12.586   3.768  0.2198 -0.0289 -0.1741
11491W        W28338  12.759   0.950   2.891 -0.1659 -0.0910  0.2921
11492W        W28339   1.754   9.334   3.525 -0.2661  0.0249  0.0961
11493W        W28340  12.153   6.383   5.488 -0.4207 -0.1962  0.0079
11494W        W28341   1.812   5.979  13.150  0.2056 -0.1288 -0.2560
11495W        W28342  14.379   8.684  15.566 -0.2792 -0.1738 -0.0423
11496W        W28343  15.750   6.438   3.373  0.2286 -0.1304  0.2730
11497W        W28344   1.421  17.887   1.277 -0.2201  0.2342  0.3237
11498W        W28345   4.430   9.036  10.596  0.0690 -0.0956  0.1266
11499W        W28346   9.699  12.729  15.574  0.1746 -0.4800  0.1824
11500W        W28347   6.709  16.052   3.416 -0.0082 -0.0146  0.0631
11501W        W28348   0.624   4.502   0.544  0.1174  0.3613 -0.0539
11502W        W28349   3.061   7.653  14.518 -0.0234 -0.1880  0.2427
11503W        W28350  14.885  17.104   0.790 -0.0873  0.0800  0.0511
11504W        W28351  14.575  12.997  15.108 -0.2916  0.1881  0.0647
11505W        W28352  17.823  11.430   2.771 -0.1980 -0.0043 -0.1751
11506W        W28353  18.233  10.208   0.951  0.1406  0.1031 -0.0423
11507W        W28354  14.592  18.457   5.224  0.1263  0.0275 -0.0133
11508W        W28355  17.708   3.737  13.084  0.0762  0.0630  0.3064
11509W        W28356   2.174   7.162   0.889 -0.4651  0.0387  0.0178
11510W        W28357  15.634  16.671   1.636 -0.5651 -0.0554 -0.1708
11511W        W28358   6.505   1.023   0.376 -0.0542  0.1956 -0.1903
11512W        W28359  10.629   0.122  11.679  0.1428 -0.0903  0.3473
11513W        W28360  17.115  13.831   1.405  0.3266 -0.0167  0.1044
11514W        W28361  11.789  11.561   0.774  0.3137 -0.0199 -0.2526
11515W        W28362  14.999   6.135   4.783 -0.2509 -0.0798  0.0573
11516W        W28363   2.519  17.471  12.054 -0.0886  0.0561  0.1841
11517W        W28364   1.151  16.036  14.626 -0.0546 -0.0395 -0.0709
11518W        W28365   9.644   9.386  15.388  0.3242  0.1725 -0.2202
11519W        W28366  17.780   9.560   4.673  0.1936 -0.2960  0.1074
11520W        W28367   5.530   5.862  15.018 -0.1657  0.0997 -0.0922
11521W        W28368  11.264  17.466   2.758  0.1009  0.1190 -0.1962
11522W        W28369   6.875   8.787  13.769  0.0230 -0.0616  0.0864
11523W        W28370  13.959   7.007  14.642 -0.0230 -0.1330 -0.2286
11524W        W28371  15.413   3.618  14.776  0.0849  0.0987 -0.0815
11525W        W28372  17.146   9.141   2.819 -0.1359 -0.2671  0.2455
11526W        W28373   2.670  14.067   4.978 -0.1073 -0.0427  0.0398
11527W        W28374  11.947   8.555  13.943 -0.0804 -0.1636 -0.1180
11528W        W28375   0.042   2.503   3.041 -0.1421  0.2509 -0.1333
11529W        W28376   7.754   5.781  11.086  0.0508 -0.0579  0.2817
11530W        W28377  16.122   0.502  12.198 -0.4334  0.0912 -0.2361
11531W        W28378  12.067  12.562   4.272 -0.0030 -0.0955 -0.1175
11532W        W28379  11.068   3.995  14.770 -0.3943 -0.0294  0.1667
11533W        W28380   8.949  18.399   4.085  0.2219 -0.1475 -0.0926
11534W        W28381  10.632   1.216  12.297  0.3236 -0.0350  0.0916
11535W        W28382  10.164  15.561   4.641 -0.4679 -0.0860 -0.0200
11536W        W28383  14.066   0.836  11.900 -0.0348 -0.0231  0.0796
11537W        W28384   6.321  15.313  13.636 -0.1599 -0.1130  0.2575
11538W        W28385   4.788  15.647  11.469 -0.0856 -0.0117 -0.0976
11539W        W28386  18.365  15.454   5.432  0.1092  0.2639 -0.1319
11540W        W28387   8.284   7.690   0.680 -0.0489  0.0895  0.0186
11541W        W28388  11.694  16.676   4.360 -0.3783  0.4665 -0.0605
11542W        W28389  11.371   6.364  10.924  0.0590 -0.0568 -0.0016
11543W        W28390   2.331   0.376  15.602 -0.0171 -0.2235  0.2403
11544W        W28391  18.037   1.954   5.123  0.0537 -0.2959 -0.0972
11545W        W28392   7.526   1.989  12.893 -0.1598 -0.0236 -0.0759
11546W        W28393  11.008  17.713   5.183  0.0768  0.0173 -0.0271
11547W        W28394  12.359  12.059   3.757 -0.2037 -0.3884  0.1875
11548W        W28395  11.564   6.160  15.729  0.3645  0.0443  0.1190
11549W        W28396  13.129  15.011   2.010 -0.0917  0.2758  0.2884
11550W        W28397   9.442   4.006  11.553 -0.0278 -0.2072 -0.1091
11551W        W28398   4.593  11.450   4.560  0.0804 -0.1249  0.0566
11552W        W28399   8.506   4.077   1.291  0.1637 -0.1912  0.2713
11553W        W28400   5.652   4.310  12.827 -0.0527  0.2245  0.0224
11554W        W28401  17.682   6.727   0.195 -0.1084  0.0038  0.2445
11555W        W28402   2.899   2.299  13.363  0.0931 -0.2611  0.2177
11556W        W28403   4.828   5.466  14.985 -0.1010 -0.0514 -0.0115
11557W        W28404  13.374  14.539  10.813  0.3083  0.2110  0.0650
11558W        W28405   1.555   2.815   4.137 -0.0018  0.0031 -0.3080
11559W        W28406  10.513  16.434  12.235 -0.0737 -0.2583  0.0041
11560W        W28407   5.241  15.565   0.205  0.0250 -0.2272  0.0432
11561W        W28408   5.133  17.503  14.191  0.1482 -0.2368  0.0978
11562W        W28409   4.979   8.965  12.953  0.0545  0.1672  0.2735
11563W        W28410  16.377  17.109  14.141  0.3023 -0.4915 -0.3832
11564W        W28411   5.457   1.613  15.366  0.0880  0.1514 -0.2150
11565W        W28412  17.615   9.011   3.054 -0.0049  0.3201 -0.1465
11566W        W28413   4.468   7.422   0.226 -0.1087 -0.7292 -0.1571
11567W        W28414   5.596   5.123  15.009 -0.4526 -0.0663  0.1720
11568W        W28415   3.035   0.243   5.338  0.1280  0.0889 -0.0395
11569W        W28416   8.027   7.569   4.829  0.1576 -0.1827 -0.0988
11570W        W28417   8.214   8.251   2.912 -0.3057  0.2672 -0.1738
11571W        W28418   7.357   4.710   0.467  0.2884  0.3308 -0.0638
11572W        W28419   7.769   6.195  14.566 -0.2173 -0.0544 -0.0186
11573W        W28420  17.677  16.332  13.877 -0.1941  0.1706  0.1837
11574W        W28421   5.465   9.720   3.659  0.1748  0.0463  0.0474
11575W        W28422   8.372   3.107  13.572  0.4967  0.0014 -0.1205
11576W        W28423   1.593   0.546  11.791 -0.1125 -0.0269 -0.2404
11577W        W28424  15.422  16.395  11.708 -0.0787 -0.0487  0.3794
11578W        W28425  16.110  15.268   2.260 -0.2453 -0.0107  0.2389
11579W        W28426  12.237   8.809   1.797  0.2279 -0.0781 -0.3022
11580W        W28427  11.074  11.559   3.730 -0.2697  0.2813 -0.0007
11581W        W28428  16.552   4.653   0.765  0.2559 -0.2415  0.2865
11582W        W28429   4.339   2.645  12.705  0.0313 -0.0668 -0.3379
11583W        W28430   2.808   4.625   4.305 -0.1225  0.1760  0.0786
11584W        W28431   3.367  14.712   4.405 -0.1360  0.1354  0.5750
11585W        W28432  13.160  14.003  15.328 -0.1032  0.0219  0.3608
11586W        W28433   6.983   1.749   2.161 -0.0158 -0.2153  0.1020
11587W        W28434   8.046   3.081  15.544 -0.1797  0.1130  0.1180
11588W        W28435  18.257  10.027   5.208 -0.1254 -0.0761 -0.3397
11589W        W28436  12.124   6.578  11.442  0.4604  0.3196 -0.1535
11590W        W28437  10.555   0.414   2.335  0.1338 -0.0297  0.3190
11591W        W28438   1.767   6.698   1.632 -0.0080 -0.0160 -0.1758
11592W        W28439  15.931   0.301   2.169  0.1479  0.1932 -0.2204
11593W        W28440  12.263   3.033   2.921  0.0523  0.0450  0.1712
11594W        W28441  16.826   9.706   0.058  0.1747 -0.0042 -0.2595
11595W        W28442  16.291   3.801  12.266 -0.1414 -0.2439 -0.0789
11596W        W28443   1.116   4.490  14.158 -0.0879  0.1352 -0.0436
11597W        W28444  14.893   6.951   4.308 -0.1005 -0.0575 -0.4023
11598W        W28445  18.517   3.799   2.670  0.0644 -0.0458  0.1398
11599W        W28446  15.289  14.312   4.554 -0.1761  0.0076  0.3079
11600W        W28447   7.742  13.945   5.930  0.0488 -0.2683  0.1212
11601W        W28448   1.657  17.791  13.055  0.0224 -0.2733 -0.0960
11602W        W28449   3.726  16.440   3.308 -0.1940  0.3870 -0.2178
11603W        W28450   0.852   6.628   4.733 -0.0212 -0.3010  0.3841
11604W        W28451   4.333  16.239  12.984  0.0042  0.0627  0.0231
11605W        W28452   8.296   0.980   1.518  0.2063  0.1436  0.1301
11606W        W28453   1.513   2.549   5.560  0.0515 -0.2736  0.0804
11607W        W28454   0.204   6.899   0.200 -0.1975  0.4066 -0.0195
11608W        W28455  12.136  11.854   1.122  0.0273 -0.2381 -0.0499
11609W        W28456  12.157  10.939   3.162 -0.0106 -0.0655  0.0812
11610W        W28457   7.783   3.498  15.340  0.3045 -0.0860  0.1615
11611W        W28458  11.773  17.320   2.654 -0.2325 -0.4155  0.2858
11612W        W28459  15.956  18.064  14.609 -0.0471 -0.1007  0.1398
11613W        W28460  13.032   5.925  11.815 -0.1930  0.2835  0.0308
11614W        W28461   6.851   5.390   5.266 -0.2520 -0.0915 -0.0267
11615W        W28462  10.463   9.793   2.367 -0.0224 -0.1361 -0.0240
11616W        W28463   1.719   3.856   3.028  0.2897 -0.2721 -0.0077
11617W        W28464  15.254  11.336   0.063 -0.1201  0.2533  0.0011
11618W        W28465  16.329   2.233   3.223  0.2139 -0.0037  0.0942
11619W        W28466   8.631   1.882  13.827  0.0457 -0.0892 -0.2219
11620W        W28467   5.152  18.445   3.062  0.3289  0.1151 -0.0054
11621W        W28468  17.671  13.039  15.687  0.2666  0.0064 -0.1994
11622W        W28469  10.003   6.293  10.679  0.1165 -0.0095 -0.0413
11623W        W28470   4.742  10.031   1.939 -0.1366 -0.0040  0.0866
11624W        W28471  14.331  15.528   3.027  0.0516 -0.3075  0.3119
11625W        W28472   7.963   5.924   2.034 -0.2325  0.1314 -0.0208
11626W        W28473  16.012   4.092   5.164 -0.0211 -0.1141 -0.2899
11627W        W28474  12.663   4.753  10.930 -0.1082 -0.1152  0.0620
11628W        W28475  13.039   9.530  11.467  0.0520 -0.1393  0.0144
11629W        W28476   6.099  17.969   2.248  0.0647  0.0734  0.1763
11630W        W28477  14.388  14.059   4.225  0.1562 -0.1532 -0.0924
11631W        W28478   9.953  13.851   2.487  0.2684  0.0032  0.1528
11632W        W28479  18.119   2.641   4.356 -0.0644  0.1718  0.0099
11633W        W28480  13.558  17.151   2.109  0.1884 -0.0578  0.0310
11634W        W28481  10.036  11.165   4.190 -0.0189 -0.1137  0.0059
11635W        W28482   0.131  16.472  10.898 -0.3627  0.0563 -0.2437
11636W        W28483   7.980   3.153  13.155 -0.1919 -0.2524 -0.2544
11637W        W28484  13.285   5.712   5.161 -0.0623  0.2177 -0.1644
11638W        W28485  13.543  11.907   0.913  0.1548 -0.3542 -0.0340
11639W        W28486   3.230   6.544   3.226 -0.1812 -0.2497 -0.0575
11640W        W28487  17.663   4.580  11.543 -0.2238  0.0997 -0.2332
11641W        W28488  18.227   2.784  14.624 -0.0589  0.0534 -0.0790
11642W        W28489  14.231   1.155   2.542 -0.1169  0.0604 -0.0829
11643W        W28490   3.577  13.531   1.862 -0.2128  0.4151  0.1123
11644W        W28491  16.286   9.150   4.272 -0.0627 -0.1224 -0.1838
11645W        W28492   9.876  11.814  13.023  0.0447  0.2030  0.0910
11646W        W28493   3.446   3.836  13.749  0.1905  0.3142  0.0471
11647W        W28494   5.357  14.211  14.278  0.2086 -0.0467  0.1259
11648W        W28495   3.554   0.550  12.154 -0.0610 -0.1247  0.1244
11649W        W28496   6.069   7.116   1.377 -0.1149 -0.0141  0.1997
11650W        W28497   0.390  13.366   4.042 -0.2939  0.0438 -0.0185
11651W        W28498  17.031   3.538  14.397  0.0841 -0.2408  0.0417
11652W        W28499   3.732  15.202  14.255  0.0331  0.1410 -0.0347
11653W        W28500   6.412  14.321   2.263 -0.0939 -0.1176  0.1310
11654W        W28501   0.470   5.666   0.884 -0.1971  0.0845  0.1151
11655W        W28502   4.887   5.621   0.681 -0.0802 -0.2816  0.1757
11656W        W28503  14.412  14.653   1.268  0.0272 -0.0087 -0.0332
11657W        W28504  17.298  15.409   1.521 -0.2101 -0.1311  0.4227
11658W        W28505  13.654  13.925  11.648 -0.3350  0.1426 -0.3407
11659W        W28506   7.984   3.831   2.955  0.0126 -0.1801  0.0770
11660W        W28507  14.982   2.686  14.148  0.0079 -0.1408 -0.2901
11661W        W28508  10.483   1.954  12.753  0.0502 -0.2290 -0.3547
11662W        W28509  17.028  16.523   1.919 -0.1018 -0.1352 -0.3306
11663W        W28510   9.077  10.766   2.535  0.0859 -0.1027  0.0504
11664W        W28511   0.023   4.863   4.094  0.0593 -0.2379 -0.2920
11665W        W28512  10.996  15.123   0.735 -0.0170 -0.3431 -0.1085
11666W        W28513   9.756   0.448   3.103  0.2019 -0.1800  0.1711
11667W        W28514   1.007  11.657  11.999 -0.0361 -0.1153 -0.0071
11668W        W28515   1.379   1.752  11.856 -0.0284 -0.1274  0.4237
11669W        W28516   5.071   9.127  15.412  0.0165  0.3072 -0.1631
11670W        W28517   1.672  14.929  15.448 -0.0739  0.1770 -0.0351
11671W        W28518   9.528   2.904  14.944  0.0528 -0.1234 -0.0103
11672W        W28519  18.203  16.408   0.737  0.2245  0.1280 -0.0157
11673W        W28520   9.064   0.819   2.756  0.1487 -0.0971 -0.1383
11674W        W28521   5.159   7.117  14.699 -0.1732 -0.1277 -0.0402
11675W        W28522  15.311   3.543   2.169  0.1272 -0.1028 -0.3136
11676W        W28523   0.596   5.734   4.327  0.2350 -0.0651  0.1512
11677W        W28524  17.908  15.386   1.239 -0.3602 -0.2428 -0.2098
11678W        W28525   3.979   0.060   0.724 -0.2698  0.0408 -0.0039
11679W        W28526   8.460   3.519  13.906 -0.0629 -0.0598  0.0997
11680W        W28527   6.216   6.127   2.180  0.1796 -0.0944  0.1063
11681W        W28528   5.464   7.710  12.477  0.1112 -0.0139  0.1795
11682W        W28529   4.373   9.725   1.667  0.0036  0.0012 -0.3525
11683W        W28530  13.603   2.707   4.390  0.0164 -0.0440  0.0091
11684W        W28531  14.248  13.548   4.888 -0.2148  0.0340  0.1537
11685W        W28532  17.470   1.099  12.479 -0.0799 -0.1433  0.1426
11686W        W28533  13.291   7.649   0.885 -0.0348 -0.0510 -0.2619
11687W        W28534  10.633  14.443   1.294  0.4064 -0.1757 -0.2908
11688W        W28535   5.878   1.620   5.572 -0.0959  0.3682 -0.2247
11689W        W28536  18.056  16.718  15.932  0.1925 -0.3955  0.1590
11690W        W28537  15.773   7.689  13.552 -0.0973 -0.4587  0.2590
11691W        W28538   3.083   1.118  13.850 -0.4410 -0.1945  0.1686
11692W        W28539  11.524   2.589  11.459  0.4815  0.1282 -0.1123
11693W        W28540   8.807  18.278  11.762 -0.2792 -0.1398 -0.2293
11694W        W28541  12.484   7.138  13.669 -0.1694  0.0167 -0.1148
11695W        W28542   8.528   9.119  14.887 -0.0028  0.1636 -0.1646
11696W        W28543  12.308  10.990  10.119  0.2805  0.1010 -0.0250
11697W        W28544   1.172   1.266   0.238  0.1076 -0.1629 -0.0483
11698W        W28545  16.745  17.429   1.802  0.0368 -0.2059  0.0544
11699W        W28546  12.101   0.197  14.038  0.1720 -0.1358  0.0549
11700W        W28547  14.174   9.865   0.273 -0.0612  0.2870  0.1436
11701W        W28548  13.047  14.695   4.167 -0.0097  0.0125  0.3880
11702W        W28549  16.416  14.547   3.256 -0.1458  0.1088 -0.1616
11703W        W28550  10.510  16.875  15.221  0.1361  0.1123  0.1902
11704W        W28551  16.733  11.956   2.615 -0.1153 -0.0793 -0.1375
11705W        W28552   3.960   0.456   2.721  0.0593  0.0580  0.1002
11706W        W28553   2.935  17.527   0.835  0.4984  0.1106  0.0201
11707W        W28554   6.990   1.315   5.083  0.4834  0.2652  0.3013
11708W        W28555   3.901   7.728   3.884 -0.1881 -0.1463 -0.2650
11709W        W28556   0.656  13.370   2.391 -0.0112 -0.2825 -0.0739
11710W        W28557   8.835   9.341   3.060  0.1194  0.1598  0.0766
11711W        W28558   6.124  10.023   4.943  0.2662 -0.1497  0.0024
11712W        W28559  10.877   2.746   3.002 -0.2610  0.1734  0.0424
11713W        W28560   3.002  17.655  14.650  0.4596 -0.0954 -0.1550
11714W        W28561   1.680   2.556  13.139 -0.1809 -0.1395 -0.1442
11715W        W28562  14.167   9.075  13.588 -0.1025 -0.2344  0.2474
11716W        W28563   1.162   5.452   2.951 -0.0634 -0.1379  0.0158
11717W        W28564  17.150  18.271  14.266  0.0342  0.1444  0.0793
11718W        W28565   8.013  11.429   2.410 -0.0447 -0.0106 -0.0729
11719W        W28566  15.464   3.800  13.391  0.1213  0.2529 -0.0400
11720W        W28567   7.439  13.055   0.332 -0.0085 -0.0169  0.0579
11721W        W28568   2.548   4.403   0.125 -0.2121  0.1581 -0.4840
11722W        W28569  18.347  13.079   4.847 -0.2278 -0.1971 -0.1050
11723W        W28570   2.771   9.379   3.188 -0.0571 -0.0037  0.1940
11724W        W28571  12.724  12.538  15.337 -0.0927  0.1855  0.3323
11725W        W28572  18.341  13.054  11.894 -0.0655 -0.0090  0.0654
11726W        W28573   3.977  13.962   4.517 -0.1185 -0.0682 -0.2326
11727W        W28574  16.650  12.141  15.763  0.2023  0.1751 -0.1792
11728W        W28575   0.667   0.811   1.350  0.1357 -0.3095  0.1787
11729W        W28576  12.148  15.133  12.217  0.1265 -0.1705 -0.0019
11730W        W28577   1.262   5.098   4.921  0.0244  0.0731 -0.0586
11731W        W28578   4.858  14.103  15.134  0.1119  0.3988  0.0295
11732W        W28579  17.183  15.101  12.132 -0.0126  0.1851 -0.2354
11733W        W28580  11.648  11.916   5.356 -0.0439 -0.3385  0.3063
11734W        W28581  16.495   0.418   1.245 -0.1848  0.0544 -0.2417
11735W        W28582   4.601   9.710  14.832  0.1201 -0.2692 -0.4026
11736W        W28583  12.624  16.632   0.839  0.3230  0.0414  0.3175
11737W        W28584  12.383   0.937  15.462  0.2942 -0.0881  0.0625
11738W        W28585   6.188   6.010  11.054  0.3174 -0.1309  0.0479
11739W        W28586  11.041   0.515   3.178 -0.0451 -0.2711  0.2021
11740W        W28587  10.885   0.032   4.664  0.0183  0.3047 -0.1131
11741W        W28588   4.448   5.619  11.425  0.3133  0.2943 -0.1966
11742W        W28589  12.554   5.701   4.081 -0.1917 -0.0409  0.1252
11743W        W28590  17.055  10.486   2.314 -0.0231  0.0061  0.1683
11744W        W28591  15.103  17.558   5.189 -0.1303 -0.2007 -0.1026
11745W        W28592   7.400   5.498  12.371 -0.3575  0.1475  0.0055
11746W        W28593  10.624  13.409   0.711 -0.0297 -0.1495  0.0706
11747W        W28594  16.804   5.093  11.711 -0.2673 -0.0891  0.0505
11748W        W28595   2.320  10.251  15.112 -0.1641 -0.0389 -0.3604
11749W        W28596   6.767  14.535   1.923  0.2880 -0.0581  0.0807
11750W        W28597   1.606   4.002   0.432 -0.0010  0.2041 -0.1058
11751W        W28598  18.132  12.991   5.312  0.2560 -0.0240  0.0684
11752W        W28599  12.433   2.343   0.093 -0.1614  0.1098  0.0995
11753W        W28600  17.587  10.746   0.512 -0.1505  0.2670 -0.0791
11754W        W28601   9.829   1.171  15.471  0.0853  0.1963  0.3179
11755W        W28602   6.736  11.712   1.581 -0.0586 -0.2086 -0.0350
11756W        W28603   0.423  16.549  13.871 -0.1070 -0.4801  0.0925
11757W        W28604  18.253  13.912   5.112  0.1190  0.0504  0.0293
11758W        W28605   9.260   7.461   9.663  0.0741 -0.0716 -0.3260
11759W        W28606   7.475  11.180  12.964  0.1580 -0.2700 -0.2305
11760W        W28607  12.968   3.318   3.107  0.3397  0.2190  0.0897
11761W        W28608   7.222   9.263   0.088  0.3037  0.2431  0.1077
11762W        W28609   3.770   2.098   0.278  0.0488  0.1749 -0.0610
11763W        W28610   9.380  14.689   4.512 -0.0910 -0.4192  0.0338
11764W        W28611   4.444   3.017   4.424 -0.1810  0.0183  0.1554
11765W        W28612  17.858   4.537   0.803 -0.1414 -0.1062  0.4304
11766W        W28613   1.406   7.229  13.522 -0.1785 -0.0725  0.0832
11767W        W28614  15.351  14.486  11.578  0.2977  0.1354  0.2698
11768W        W28615   2.073   9.534   4.393 -0.0666 -0.1906  0.2057
11769W        W28616   5.516   8.212   3.893  0.1658  0.0245  0.0893
11770W        W28617   0.373  13.843   3.343  0.2030  0.0419 -0.2637
11771W        W28618  14.019  18.509   3.614 -0.0337  0.2812  0.0299
11772W        W28619   2.260  18.123   2.080  0.0540 -0.0481  0.1704
11773W        W28620  10.092   3.415   0.397  0.3093 -0.0534  0.2709
11774W        W28621   4.148  11.603  14.442  0.1334 -0.3693  0.0232
11775W        W28622   4.099   4.657  14.674 -0.1998  0.1570  0.0081
11776W        W28623   4.454   5.585  10.899 -0.0541  0.1797  0.3223
11777W        W28624   0.117  10.765   2.303  0.1165  0.0394 -0.0537
11778W        W28625  15.952  13.072   0.844  0.0444  0.0347 -0.1446
11779W        W28626   3.054  14.503  14.405  0.0435  0.1511 -0.0624
11780W        W28627   1.519  11.945   3.799 -0.0429 -0.0778 -0.2633
11781W        W28628  17.132  15.255   5.872 -0.0918  0.0103  0.0288
11782W        W28629  15.222  18.262   2.167  0.0154 -0.0114 -0.0528
11783W        W28630  18.329   2.680  11.170  0.2434 -0.3893  0.1263
11784W        W28631  16.029  13.342  15.182 -0.2026  0.1685 -0.1243
11785W        W28632   3.664   1.842  15.378  0.3404  0.1339 -0.0972
11786W        W28633  18.495   6.980   5.209  0.0957 -0.1253  0.1109
11787W        W28634   2.302  18.270   4.056 -0.1060 -0.0457 -0.0880
11788W        W28635   8.440   9.905  11.227 -0.2743  0.2486  0.0894
11789W        W28636  12.709   5.734  12.247 -0.0094  0.1597  0.2751
11790W        W28637   6.580  15.452   4.648  0.4513 -0.0019 -0.0902
11791W        W28638   2.280  17.237  14.927 -0.0853 -0.4159 -0.0459
11792W        W28639  15.966  18.148  13.067 -0.0341  0.1235 -0.0708
11793W        W28640  12.840   3.380  14.588 -0.3238  0.2012 -0.2253
11794W        W28641  15.010   0.364  14.831 -0.3208  0.0675  0.0554
11795W        W28642  16.358   3.444  10.996 -0.0153  0.1445 -0.1077
11796W        W28643  11.093   6.811   2.120 -0.0169  0.1770 -0.0219
11797W        W28644   0.087   5.392  14.523  0.0701 -0.0111 -0.4835
11798W        W28645  11.635   1.930  15.838 -0.1531 -0.0368 -0.0968
11799W        W28646  17.480  13.629   3.341 -0.0449  0.1345  0.1345
11800W        W28647   1.536   2.576  11.236  0.0685 -0.4369 -0.2057
11801W        W28648   5.753   6.759  14.014  0.1409 -0.1000 -0.0324
11802W        W28649  18.113  15.510  14.594 -0.2594 -0.3348  0.1052
11803W        W28650   8.888   5.111  13.523  0.0406 -0.2368 -0.2196
11804W        W28651  13.348   8.887   2.555  0.1323  0.0107 -0.2801
11805W        W28652   7.182   6.212  13.630 -0.0260  0.0483  0.0519
11806W        W28653   9.925   8.322   2.057  0.2331 -0.2109 -0.1310
11807W        W28654   6.921   0.264   5.240 -0.0402  0.2867 -0.1179
11808W        W28655   9.171   0.487  12.697  0.1500  0.2933  0.0621
11809W        W28656  17.619   5.623  14.709  0.0646  0.1529 -0.0712
11810W        W28657  11.095  12.032   4.114  0.0671  0.2040  0.0350
11811W        W28658  12.843  12.947  10.487 -0.0546 -0.3565  0.1082
11812W        W28659   9.264   5.527  10.416 -0.0772 -0.0720  0.1504
11813W        W28660  15.986   3.318   4.270  0.5353  0.1908  0.0710
11814W        W28661   1.604   0.498   4.531 -0.0055  0.1506 -0.1702
11815W        W28662  18.159   7.507   0.730 -0.2853  0.2233 -0.3040
11816W        W28663   6.435   2.516  13.834 -0.1134 -0.0549 -0.3466
11817W        W28664   5.701   4.478  12.192  0.0310 -0.0323  0.3394
11818W        W28665  14.763   2.658   5.313  0.0293 -0.0955 -0.0942
11819W        W28666   7.127   3.326   2.751  0.1588  0.0693 -0.1043
11820W        W28667  11.537   3.920  14.556 -0.0711  0.1515  0.2904
11821W        W28668  14.185  12.517   2.835  0.2238 -0.0394 -0.0605
11822W        W28669   6.471  14.272   0.295  0.0929 -0.0070  0.0093
11823W        W28670   8.126  12.672  12.934  0.1197 -0.1096 -0.2516
11824W        W28671  10.410  11.328   2.005 -0.1649 -0.3170 -0.0688
11825W        W28672   0.286   3.399   1.947 -0.0534 -0.2779 -0.5486
11826W        W28673  15.253  15.740   0.831 -0.2778  0.1912  0.1957
11827W        W28674   7.539   9.052  13.038  0.1010 -0.3231  0.1280
11828W        W28675   3.223  17.353  11.423  0.0123 -0.0965  0.1071
11829W        W28676   0.931   3.301   5.391  0.2610 -0.0491 -0.1247
11830W        W28677   0.655   3.578  11.518 -0.1410  0.1504 -0.3057
11831W        W28678  13.300  14.832  13.178  0.1864 -0.0895  0.2406
11832W        W28679   1.830   0.771   4.188 -0.0666 -0.1153 -0.0743
11833W        W28680   6.684  12.982  10.859 -0.3263  0.2568  0.0524
11834W        W28681  17.892   7.036   4.128  0.1289 -0.0866  0.3119
11835W        W28682   2.531   3.246  14.522 -0.0706 -0.0199  0.0651
11836W        W28683  10.981   7.369   3.362 -0.0464  0.1166 -0.1703
11837W        W28684   1.218  16.493  15.912 -0.5084 -0.0291  0.1596
11838W        W28685   3.894  17.389   3.273  0.0825 -0.0426  0.2411
11839W        W28686   1.860   7.703  12.415  0.0783  0.4013  0.0584
11840W        W28687   0.889   5.975  12.525 -0.0099  0.0846 -0.3881
11841W        W28688  13.677  10.105   1.235 -0.0287  0.0078  0.3066
11842W        W28689   1.834  12.285   3.516 -0.1322 -0.0994 -0.0511
11843W        W28690   2.587   5.487  14.388 -0.2259  0.0517  0.0789
11844W        W28691  18.221   3.015  15.071 -0.1444  0.0166 -0.0526
11845W        W28692  16.871   8.787   1.966  0.1058 -0.0659 -0.0164
11846W        W28693   6.351  10.224   1.546  0.1717  0.2940 -0.0669
11847W        W28694   9.304   9.012   1.669  0.3266 -0.0343  0.1619
11848W        W28695   0.921   5.477   4.704  0.1686  0.3066 -0.1516
11849W        W28696   1.642  10.079  14.372  0.0708 -0.1279  0.2756
11850W        W28697   9.440  11.991  14.898 -0.0392 -0.0093 -0.0609
11851W        W28698   7.258   0.989   4.765 -0.0704  0.0235  0.0025
11852W        W28699   7.055   1.207  14.605 -0.2691 -0.0639  0.3253
11853W        W28700  17.113   2.225  12.268  0.1145 -0.1886  0.0288
11854W        W28701   8.227  16.053   4.469  0.2480  0.1464 -0.3996
11855W        W28702   6.951  15.112   2.606  0.1554 -0.0348 -0.2260
11856W        W28703  14.526  16.005   5.091  0.0942 -0.0701 -0.0194
11857W        W28704  14.305   0.801   5.340  0.1986  0.0518  0.1900
11858W        W28705   7.643   5.313  13.543  0.1931 -0.0471  0.1317
11859W        W28706   5.856  13.925   0.495  0.2243 -0.3310  0.0368
11860W        W28707   2.236   5.398   2.624  0.2432  0.2810  0.6186
11861W        W28708  18.081   4.012   3.981  0.1656  0.2182  0.0607
11862W        W28709   1.724   9.023  14.730  0.0179 -0.1604  0.1599
11863W        W28710  11.071  17.204  15.161  0.2413 -0.1328 -0.0418
11864W        W28711  17.577   9.417   6.030 -0.0087 -0.0134  0.1438
11865W        W28712   2.425   9.038  11.986 -0.0758 -0.0430 -0.0448
11866W        W28713  18.156  15.682  15.821 -0.1057  0.2086  0.0968
11867W        W28714  11.990   5.553  13.281  0.0089  0.1206 -0.0490
11868W        W28715   0.985   2.224  15.348 -0.2599  0.0109  0.2833
11869W        W28716  10.061  11.875   6.091  0.1381  0.4875  0.0746
11870W        W28717   2.317  17.921  11.166  0.2988 -0.2571  0.1446
11871W        W28718   9.412  13.065   4.168  0.3589  0.1515  0.1248
11872W        W28719  14.465  16.344   0.637  0.2287 -0.0696  0.1126
11873W        W28720   6.940   8.232   3.096  0.0775  0.2321  0.0716
11874W        W28721   2.794   5.056  13.030 -0.0776  0.2140 -0.0644
11875W        W28722   5.244  14.717   4.248 -0.4530  0.1380  0.3593
11876W        W28723   0.430  13.168   5.432 -0.0406  0.0356 -0.0511
11877W        W28724  11.945   3.839   1.326 -0.2613  0.0487  0.0859
11878W        W28725   5.232   7.339  12.800  0.0698  0.3228  0.4104
11879W        W28726   1.152   6.068  15.057  0.3380  0.0089  0.0443
11880W        W28727  13.210   1.552   3.630  0.3025  0.3733  0.1482
11881W        W28728  13.535  18.299  11.197 -0.0323 -0.0769  0.1761
11882W        W28729   3.975  15.869   5.697 -0.0727  0.1144  0.0781
11883W        W28730   9.769   3.548  11.366 -0.1339  0.2326 -0.0775
11884W        W28731  12.969  12.037  11.828  0.2449 -0.3321 -0.0140
11885W        W28732   2.974   0.623   2.570  0.0498 -0.4545 -0.0390
11886W        W28733   0.972  15.859   3.476  0.2087 -0.4130  0.0326
11887W        W28734   8.093  10.909   4.456 -0.1683 -0.2031 -0.1940
11888W        W28735  12.690  18.101   2.097 -0.1109 -0.2813  0.2621
11889W        W28736   0.034  10.674  14.962  0.0593 -0.0998 -0.2660
11890W        W28737   2.382  11.676  13.258 -0.1024 -0.0312 -0.2325
11891W        W28738  13.492   8.075  15.019  0.2166 -0.0668 -0.0751
11892W        W28739  17.956   8.715   4.324  0.1312 -0.1239 -0.0760
11893W        W28740   3.839  10.329  10.620 -0.3275  0.3860  0.0403
11894W        W28741  10.851  10.532  12.909 -0.0478 -0.4511  0.0285
11895W        W28742   5.727  12.582  13.527  0.2208  0.0989  0.2413
11896W        W28743   5.162   2.834   2.312  0.1864  0.2434 -0.0647
11897W        W28744  15.557   8.431   5.595  0.0210 -0.0948 -0.0104
11898W        W28745  13.351  14.150  13.757 -0.1179  0.1838 -0.0566
11899W        W28746   9.409   4.633   1.443 -0.3210 -0.0816  0.0195
11900W        W28747   2.921   6.905  10.044 -0.0277 -0.0399  0.0967
11901W        W28748   1.165  11.075  11.360 -0.1697 -0.0849 -0.3276
11902W        W28749  10.295  11.551   2.508  0.3168  0.1429 -0.0857
11903W        W28750   2.133  15.268   3.432 -0.0698  0.0292  0.1983
11904W        W28751  17.520  17.169   2.254  0.3215 -0.3518 -0.0671
11905W        W28752  18.533   2.092   0.194 -0.0125 -0.0495  0.3124
11906W        W28753   0.618  16.060   5.084  0.0985 -0.2582 -0.2031
11907W        W28754   9.170   6.515   0.181  0.0718  0.0617 -0.0943
11908W        W28755  10.259   7.458  11.982  0.0869  0.1645 -0.3024
11909W        W28756   3.908  10.891  13.520  0.1771  0.1542 -0.0052
11910W        W28757   4.961  12.080  14.399  0.2095 -0.0299 -0.3494
11911W        W28758  16.253   2.487  13.007  0.4246 -0.5875  0.2140
11912W        W28759  13.806   3.426   4.585 -0.2610 -0.1061  0.0363
11913W        W28760   4.279   4.986   1.288  0.2199  0.1045 -0.1581
11914W        W28761  18.034  12.363   1.450  0.0605  0.2484 -0.0526
11915W        W28762   1.284   5.563  14.060 -0.0289  0.2059  0.2564
11916W        W28763   1.769   7.250   4.269  0.0052 -0.0227 -0.3547
11917W        W28764  10.036  17.522   3.408  0.1629  0.0477  0.0827
11918W        W28765   8.912  15.306  15.879 -0.2345 -0.0960 -0.0445
11919W        W28766  15.916   4.450  15.235  0.0250 -0.2136 -0.0401
11920W        W28767  14.074  15.933  14.348 -0.0392 -0.1449  0.1559
11921W        W28768   2.337  11.098   1.336  0.1291 -0.0281  0.2647
11922W        W28769   4.515   0.075   1.873  0.1486  0.3851 -0.1237
11923W        W28770  15.433   7.003   4.956 -0.1033 -0.0735 -0.3885
11924W        W28771  13.827  14.903  13.204  0.0014 -0.1055 -0.0582
11925W        W28772  10.353   2.667  15.392  0.3755 -0.0897  0.2973
11926W        W28773   7.452   4.025   1.049  0.2218 -0.1136  0.0684
11927W        W28774   0.685  10.709  15.725  0.1748 -0.0267  0.2821
11928W        W28775  15.795  17.060  13.812 -0.3390 -0.3102 -0.1038
11929W        W28776   3.416   0.955   2.645  0.0051 -0.1461  0.2554
11930W        W28777   1.056   0.435   3.112 -0.0777 -0.0314 -0.0913
11931W        W28778   2.733   2.381   2.281  0.0198  0.2330 -0.2416
11932W        W28779   2.463  14.414   0.568 -0.0024 -0.0702  0.0885
11933W        W28780   5.003   5.631  14.375  0.0374  0.1903  0.0397
11934W        W28781  14.744   3.527   3.633  0.2099 -0.1144  0.1983
11935W        W28782  17.310  13.775  12.724 -0.1428  0.0322 -0.2512
11936W        W28783   1.275   6.929   4.018 -0.1524 -0.2704  0.0365
11937W        W28784   9.066   5.825   1.324  0.2943  0.1606  0.0395
11938W        W28785   0.427   4.832   2.575 -0.0743 -0.1104 -0.0275
11939W        W28786   6.224   6.482   3.003  0.0513 -0.1356 -0.1543
11940W        W28787   4.153   0.119  11.404  0.1221 -0.0437 -0.2687
11941W        W28788  13.376  16.197  11.151  0.0001  0.1075  0.1384
11942W        W28789  12.605  10.946   5.306  0.0121 -0.2812  0.2103
11943W        W28790  16.354  12.959  12.627 -0.0056  0.3069  0.1573
11944W        W28791   2.626   2.190  14.731 -0.0987 -0.3459  0.0637
11945W        W28792  17.610   5.857   1.779  0.0125 -0.1005  0.1812
11946W        W28793  14.342  17.817   4.004  0.0994 -0.5446 -0.1865
11947W        W28794  12.141   2.093   1.541 -0.0965 -0.1666  0.2298
11948W        W28795   4.470   4.262  15.322 -0.1679  0.1974  0.0126
11949W        W28796  17.852  16.929   2.815 -0.4473 -0.1968 -0.1162
11950W        W28797   0.366  17.735   4.632 -0.0067 -0.2787 -0.2236
11951W        W28798  17.245   8.881   0.502  0.0592 -0.0847  0.1011
11952W        W28799   8.382  13.026   2.483  0.0268 -0.1405  0.0550
11953W        W28800   7.125   9.302  12.727  0.3030 -0.1608 -0.1770
11954W        W28801   5.489  11.319   0.349  0.0842  0.0700  0.2976
11955W        W28802  18.045  10.312  12.694  0.2500  0.1560  0.3107
11956W        W28803   9.528  11.592  12.263 -0.0553 -0.0303 -0.2124
11957W        W28804   2.084  12.956  11.497  0.1320 -0.0206 -0.0517
11958W        W28805   6.204   8.988  13.297  0.1604 -0.1311  0.2154
11959W        W28806   2.379   3.370   1.291  0.1106  0.1605 -0.0772
11960W        W28807   3.567   1.703   3.931 -0.0501 -0.1129  0.0994
11961W        W28808   3.762   8.644  13.221  0.0192 -0.1978 -0.0131
11962W        W28809   1.097   6.705   5.197 -0.2108 -0.1859 -0.0541
11963W        W28810  16.552   3.823  11.285  0.2664 -0.0565  0.1402
11964W        W28811   1.010  17.962  13.590  0.1804  0.3681  0.1220
11965W        W28812   2.922  14.746   0.075 -0.4684 -0.0916 -0.0618
11966W        W28813   8.202   5.354  12.017  0.1764  0.0996  0.0984
11967W        W28814  12.570   0.263  13.171  0.0810 -0.0455 -0.2238
11968W        W28815   2.749   7.997   1.547  0.0422  0.0611  0.1147
11969W        W28816  17.318   7.784  14.389 -0.0939 -0.2319 -0.1451
11970W        W28817   9.519  13.297   2.006 -0.1348 -0.1167 -0.2540
11971W        W28818  15.170  11.969  15.776  0.4492 -0.2278  0.1094
11972W        W28819   1.494  17.300   3.899  0.0471  0.0335 -0.1873
11973W        W28820   4.967  16.039   0.258 -0.1061 -0.2474 -0.0829
11974W        W28821   3.240  18.206   0.081  0.0284  0.1488 -0.0838
11975W        W28822  13.699  11.078  15.683 -0.0479 -0.0923 -0.1976
11976W        W28823   8.801   3.624   1.317  0.0117  0.0010  0.0663
11977W        W28824   3.972   2.902   5.380  0.1700 -0.0050  0.0340
11978W        W28825  13.140  16.357   5.137  0.1982 -0.2060  0.4610
11979W        W28826  15.562  10.468  14.196 -0.0088  0.1288  0.3544
11980W        W28827  13.130   7.390   4.954 -0.0818 -0.2338 -0.3444
11981W        W28828  11.256   3.885  12.360 -0.0752 -0.0093  0.0543
11982W        W28829  10.569   3.561   0.433  0.1387 -0.0463 -0.0032
11983W        W28830  16.207   4.587   2.079 -0.0124 -0.2998  0.1053
11984W        W28831   9.065  11.693  12.521  0.0134  0.0257  0.2324
11985W        W28832   8.777  10.883  12.247 -0.5612  0.0954  0.1426
11986W        W28833  15.688   4.315   2.208 -0.2850  0.0409  0.2116
11987W        W28834  13.824   2.131   0.425  0.2371 -0.1337  0.2462
11988W        W28835  17.203   3.642   5.771 -0.1292  0.0081 -0.4253
11989W        W28836  16.361   2.034   5.058 -0.1019  0.1235  0.1890
11990W        W28837   4.111   6.400  13.031 -0.0263  0.2070 -0.0525
11991W        W28838   7.885   7.699   3.486  0.0400 -0.1083  0.1886
11992W        W28839  17.597  10.535   4.713 -0.0480 -0.0078  0.1542
11993W        W28840  13.368  10.236   3.295  0.0303  0.1134  0.0723
11994W        W28841  10.213  10.591  13.495 -0.0803  0.0564 -0.2060
11995W        W28842  10.331  13.119  14.919 -0.0152 -0.0018 -0.0340
11996W        W28843   0.448   2.926  14.110  0.1000  0.1253  0.1057
11997W        W28844   9.021   7.289   2.632 -0.0566 -0.3006 -0.1632
11998W        W28845   0.646   4.190   2.378 -0.0523 -0.0339 -0.0470
11999W        W28846   7.264  13.899   2.140 -0.0829  0.2967 -0.0633
12000W        W28847   4.239  14.150   1.811  0.2273  0.0153 -0.4254
12001W        W28848   4.612  12.825  15.094  0.1061  0.1414  0.1156
12002W        W28849   0.612  10.588  12.073 -0.2345  0.0137 -0.3400
12003W        W28850   6.480  10.804  13.712 -0.1913 -0.1949  0.1789
12004W        W28851   7.175  14.881  13.250  0.1296  0.1087 -0.1411
12005W        W28852   0.170   2.196   1.110  0.1825  0.1328  0.0590
12006W        W28853  16.399  12.443  15.394 -0.1358  0.3152 -0.1099
12007W        W28854  12.641   0.509  14.679 -0.1205 -0.1709 -0.0026
12008W        W28855   0.762  10.311  12.514 -0.1291  0.1638  0.0918
12009W        W28856   9.945  12.279  12.681 -0.4401  0.1796  0.2563
12010W        W28857  17.730   4.515  12.313 -0.0611  0.2402  0.0843
12011W        W28858   4.191  10.138  11.677  0.0882 -0.2880  0.2270
12012W        W28859   3.200   3.744  14.757  0.1616 -0.0649  0.1486
12013W        W28860   5.178   5.858  13.938  0.1806 -0.2101 -0.1250
12014W        W28861  15.176   2.639   2.332  0.1858 -0.0051 -0.0004
12015W        W28862   4.178  12.620   4.777  0.0073 -0.0729  0.1267
12016W        W28863   1.975  14.215  11.809 -0.0042 -0.0090 -0.0103
12017W        W28864  12.812   6.186   0.496 -0.0757  0.1865 -0.1125
12018W        W28865  13.643  13.538  14.684  0.2823  0.0290 -0.2248
12019W        W28866  11.444  16.068  12.502 -0.1349 -0.0603 -0.0136
12020W        W28867  11.843   3.719   1.818 -0.0470 -0.1741  0.0436
12021W        W28868  14.691   1.889  13.853  0.1008 -0.1864  0.0531
12022W        W28869   2.088   3.520  14.640 -0.3322 -0.2005 -0.0541
12023W        W28870   9.586  13.223   5.853  0.0190 -0.1636  0.2144
12024W        W28871  12.249   7.478   0.067  0.1526 -0.0340 -0.1193
12025W        W28872   6.935   7.612   1.083  0.0995  0.2321  0.1283
12026W        W28873   5.968  12.723   4.301  0.0344  0.2689  0.1561
12027W        W28874   7.776   1.337  14.130 -0.1694  0.2010 -0.4681
12028W        W28875   3.287  16.911   5.294  0.0545  0.2434  0.1925
12029W        W28876   0.425  15.213   1.291  0.1755  0.2418 -0.0711
12030W        W28877   4.797   0.465   5.495 -0.0175 -0.1992  0.0808
12031W        W28878   0.642  12.336  13.546 -0.1255 -0.2708  0.0201
12032W        W28879  14.911  16.749   1.287  0.1026  0.1517 -0.2592
12033W        W28880   7.175  15.543   3.942  0.0565  0.2940 -0.1826
12034W        W28881  17.147  12.988  14.048  0.1466 -0.0165 -0.4914
12035W        W28882  10.650  16.063   5.552  0.1108  0.0623  0.0027
12036W        W28883  18.194  13.132   0.722 -0.1303 -0.2045  0.2148
12037W        W28884   2.953   9.849   4.731  0.3777  0.2087 -0.3542
12038W        W28885   3.582   6.465  12.965 -0.1929 -0.2968  0.0082
12039W        W28886  12.341  12.686   1.470 -0.3805  0.1205 -0.1510
12040W        W28887   9.230  16.246  11.888  0.2167 -0.1518 -0.1733
12041W        W28888  11.147   8.390  10.873  0.0872  0.1383  0.0611
12042W        W28889   3.316   2.153   4.941 -0.1583  0.1244 -0.0395
12043W        W28890   1.946   4.426  13.727  0.0105  0.0159 -0.0978
12044W        W28891   9.493   3.382  14.983  0.0200  0.1160  0.0146
12045W        W28892   4.933   1.465   3.983 -0.0844 -0.1210  0.1132
12046W        W28893   5.106  16.272  13.786  0.0876 -0.0590 -0.2325
12047W        W28894   4.723   2.792   1.356  0.2250  0.1569 -0.1742
12048W        W28895  13.547   2.839  11.553 -0.2221 -0.0656 -0.0077
12049W        W28896   9.919  15.676  14.803  0.0263 -0.0005  0.0019
12050W        W28897   4.473   7.147   4.029  0.3246  0.3065  0.3270
12051W        W28898  16.223   9.052  13.449  0.1298  0.0592  0.2015
12052W        W28899  16.367   4.380   3.348  0.0985  0.1367 -0.2802
12053W        W28900  10.049   3.267   4.150 -0.2928  0.2117 -0.0179
12054W        W28901   5.189  10.304   4.015 -0.0391 -0.0366 -0.0246
12055W        W28902   2.462   9.912   0.778 -0.0893 -0.2581 -0.2341
12056W        W28903  11.277  15.376  11.619 -0.1739  0.1726 -0.0491
12057W        W28904   9.685   7.864   4.566  0.0124 -0.0837 -0.0557
12058W        W28905   4.179   5.921  11.117  0.1927  0.0112 -0.3030
12059W        W28906   9.911  17.950   1.750  0.3490  0.3671  0.0342
12060W        W28907   2.893  12.439   4.124  0.0680 -0.2284 -0.4964
12061W        W28908   7.728   1.804   0.925  0.0695 -0.3916 -0.2118
12062W        W28909   8.401  12.794  11.206 -0.1184  0.3979  0.0882
12063W        W28910   6.254  18.147  13.744  0.1259 -0.1011 -0.4265
12064W        W28911   6.356  16.085   2.467  0.0773  0.2443 -0.2348
12065W        W28912   5.655  12.849  14.218  0.0402 -0.2564 -0.0797
12066W        W28913  17.607   2.508  12.212  0.1037  0.0032  0.0741
12067W        W28914   9.907   2.809   1.338  0.1489 -0.3057  0.1764
12068W        W28915   9.535  17.421   1.182 -0.2441 -0.0538 -0.6272
12069W        W28916   7.759   3.016  15.075  0.1719  0.1822 -0.0927
12070W        W28917  16.452   8.178   5.218  0.1030 -0.0737 -0.0165
12071W        W28918   7.517   3.541   4.012  0.1579 -0.1197 -0.0799
12072W        W28919   0.273  16.048  12.975  0.1703 -0.2973 -0.0827
12073W        W28920   9.580  14.886  12.929  0.1968 -0.0673 -0.1186
12074W        W28921   8.804   4.534  14.329  0.0254 -0.2106 -0.2250
12075W        W28922  17.595  12.284  15.873 -0.2800 -0.0164 -0.0967
12076W        W28923  14.708   7.531  14.173 -0.1839  0.3229 -0.0659
12077W        W28924  16.620   4.825  13.044 -0.1645  0.0151 -0.0320
12078W        W28925   9.245  12.977  15.743 -0.0698 -0.3854  0.0711
12079W        W28926  17.697   3.785   0.978  0.0501  0.0221 -0.1134
12080W        W28927   4.013  16.378   4.717 -0.3698  0.2785  0.4134
12081W        W28928   7.220  12.461   1.573  0.1674  0.3036 -0.4192
12082W        W28929   0.527   3.284  11.917  0.1866  0.1646  0.1210
12083W        W28930  10.600  17.314  13.683 -0.0403 -0.0340 -0.0444
12084W        W28931  15.001  13.490  12.566 -0.1432 -0.1501  0.1216
12085W        W28932   5.102  12.662   0.858 -0.1344  0.1005 -0.0225
12086W        W28933   5.670   7.020   0.415 -0.0518 -0.3470  0.0691
12087W        W28934   7.367  16.929  15.231 -0.4401 -0.2251  0.1448
12088W        W28935  10.470   9.975   0.752  0.2113 -0.1232 -0.1366
12089W        W28936  13.691  16.955  15.090  0.1474  0.1353  0.0462
12090W        W28937  14.570  13.432   3.048 -0.2409 -0.3224  0.1745
12091W        W28938   5.973   3.407  11.817 -0.0025  0.1857 -0.1786
12092W        W28939   2.195  10.385  12.845 -0.1217  0.1201 -0.0770
12093W        W28940   5.017  10.862   0.954 -0.0955  0.0270 -0.2992
12094W        W28941  17.454  13.853   4.523 -0.2217  0.1112  0.0048
12095W        W28942  12.903   2.177   0.210  0.1506  0.0945 -0.3583
12096W        W28943  13.651  17.393   0.319 -0.0446  0.0876  0.1159
12097W        W28944  18.256   7.364  14.690  0.2618  0.2255 -0.1545
12098W        W28945   0.685  17.037  13.428 -0.1275  0.1184  0.1685
12099W        W28946  16.104   9.136   1.581  0.0210 -0.0151 -0.0502
12100W        W28947   3.535   4.871  12.078 -0.0624  0.2123 -0.0561
12101W        W28948   2.319  13.708   5.052  0.1088  0.1423  0.3640
12102W        W28949   9.062  11.008   0.040 -0.0471 -0.1122 -0.2059
12103W        W28950  13.565  16.969   1.101 -0.1130 -0.1141 -0.0492
12104W        W28951   7.237  10.754   0.032  0.3153 -0.0722 -0.0334
12105W        W28952  12.567   9.015   3.971 -0.3075 -0.0919 -0.0193
12106W        W28953   0.993  15.601   4.376  0.1251  0.1393 -0.2667
12107W        W28954  10.039  11.866   2.908  0.2661  0.1377  0.0092
12108W        W28955  16.943   2.166   4.337  0.0362  0.1317  0.3116
12109W        W28956  10.172  16.748  13.576 -0.0188  0.0387  0.3581
12110W        W28957  15.217   1.799   5.113 -0.1264  0.1462  0.1344
12111W        W28958   6.331   5.724  14.314 -0.1567 -0.0755  0.1980
12112W        W28959  17.617   6.705  12.879 -0.0767 -0.0604 -0.0385
12113W        W28960   0.151   6.045   1.021 -0.2830 -0.1073 -0.0456
12114W        W28961  11.870   8.302   4.755  0.2370 -0.1470 -0.1242
12115W        W28962   0.439  13.968  12.198 -0.1249  0.0942 -0.0549
12116W        W28963  16.581  16.460  13.893  0.3759 -0.0584  0.0606
12117W        W28964  13.872  17.240   2.575 -0.1533 -0.0053  0.2623
12118W        W28965   5.242   7.650   4.494 -0.1215  0.3105  0.2468
12119W        W28966   5.633   8.174  12.570  0.1228 -0.1081 -0.1060
12120W        W28967  11.231   7.855   4.984  0.1559 -0.2093  0.3176
12121W        W28968  15.214  10.814  11.235 -0.0753  0.1808  0.1337
12122W        W28969   1.398  13.679   0.394  0.1510 -0.0531 -0.1418
12123W        W28970   5.322  18.301  11.437  0.0219  0.0074 -0.0309
12124W        W28971  12.079   9.344  13.459 -0.3162 -0.3250  0.0255
12125W        W28972   6.000   0.788   1.160 -0.2700 -0.1497  0.0720
12126W        W28973  15.010   4.534   2.452 -0.0443 -0.0030 -0.0254
12127W        W28974   0.942   1.501  15.757 -0.0628 -0.0811  0.1636
12128W        W28975  16.622  10.404  12.923 -0.1339 -0.1657 -0.2191
12129W        W28976   9.601   8.442   0.730  0.0344 -0.0444 -0.0664
12130W        W28977  18.102   0.150   2.656  0.0985  0.1655  0.1398
12131W        W28978   0.107   4.487   2.294  0.1540  0.3347  0.0922
12132W        W28979  12.980   5.215  14.770 -0.0565 -0.1752 -0.0768
12133W        W28980  17.869   2.470  15.573  0.0961 -0.0440 -0.0178
12134W        W28981   9.662  13.749   4.481 -0.1032  0.5367  0.0482
12135W        W28982  12.148   6.772   2.866  0.2289 -0.0038 -0.1627
12136W        W28983   5.107   2.700   0.410 -0.0774 -0.1796 -0.3364
12137W        W28984   2.821  10.175   1.189 -0.0202  0.1662 -0.2472
12138W        W28985   7.408   8.988  13.725 -0.2019  0.3253  0.0013
12139W        W28986   6.593  14.603  14.628  0.2805  0.1005  0.2632
12140W        W28987  14.967  15.924  15.910  0.4920  0.0435  0.1810
12141W        W28988   9.444   7.641  14.572 -0.0635  0.0160  0.0075
12142W        W28989   5.036   3.076  15.001 -0.2711  0.0774  0.0851
12143W        W28990  13.410  13.586   0.405  0.2536  0.0859 -0.3001
12144W        W28991   1.026   0.208  12.262  0.2036  0.0429  0.0520
12145W        W28992   1.564  18.079   4.915  0.1708 -0.1374  0.0066
12146W        W28993  17.565  15.897  12.146  0.0966  0.2234  0.1460
12147W        W28994  14.741   7.453  11.782  0.2434  0.2372  0.0446
12148W        W28995   3.557   0.728   3.043  0.0271 -0.1184  0.3317
12149W        W28996   4.787   4.616  12.375 -0.0757 -0.2113  0.2926
12150W        W28997   8.459   4.010   0.822 -0.2360 -0.0466  0.2778
12151W        W28998   9.173  13.960  14.696 -0.0619 -0.0078 -0.1016
12152W        W28999   5.190   2.926  13.773 -0.1668  0.0703 -0.0456
12153W        W29000   1.709  14.764  12.564 -0.0538 -0.1597 -0.0121
12154W        W29001  13.263   2.580   3.635 -0.3692 -0.3326  0.0107
12155W        W29002   8.843   2.430  14.514 -0.0362 -0.0350 -0.1104
12156W        W29003  17.403  15.510  13.917 -0.2007  0.2372 -0.1094
12157W        W29004   9.089  10.969  11.703 -0.2022 -0.1242 -0.0557
12158W        W29005   1.828  12.838  10.385  0.1370 -0.2075 -0.2139
12159W        W29006  11.433  17.233   4.058 -0.2690  0.0857  0.2245
12160W        W29007   1.274   9.851  11.703  0.0664 -0.1845  0.0568
12161W        W29008   3.227  17.533  10.454  0.0461 -0.0477 -0.2269
12162W        W29009   7.654  18.410   3.520  0.2507 -0.1970 -0.1388
12163W        W29010   8.754  12.625   4.378 -0.0243  0.0869  0.0854
12164W        W29011   1.781  14.085   1.114 -0.1330 -0.1693  0.1727
12165W        W29012  15.132  16.981   2.145  0.1563  0.2318  0.0569
12166W        W29013  10.879  10.067  14.185  0.0046  0.0248  0.2034
12167W        W29014  14.145  11.807   1.954 -0.0055 -0.2104 -0.0275
12168W        W29015   0.801   6.534  12.023  0.1393 -0.1718 -0.4062
12169W        W29016  15.916  14.856   0.594 -0.0108 -0.1547  0.1961
12170W        W29017  11.193   7.393  11.754 -0.0654 -0.1539 -0.0835
12171W        W29018   0.228  13.317   1.580  0.2914  0.0007 -0.1022
12172W        W29019  18.119   0.883   3.068  0.2094  0.0712  0.0431
12173W        W29020   5.448   5.308   4.915  0.1501 -0.2089 -0.0991
12174W        W29021  13.553  17.315  15.739  0.0816  0.0679  0.1189
12175W        W29022  17.840   0.602   2.710  0.2593 -0.1275 -0.1035
12176W        W29023  14.378   0.438  12.614 -0.0294 -0.0229  0.1249
12177W        W29024   0.218  15.976   4.772  0.1125  0.0791 -0.2045
12178W        W29025   6.238   9.599  11.640  0.0885 -0.0633 -0.1797
12179W        W29026   5.855   5.801   3.044 -0.2164 -0.0601  0.3766
12180W        W29027  12.838  11.141  11.228 -0.0348  0.1167 -0.0367
12181W        W29028  13.140   7.368   9.820  0.0132  0.5251  0.3563
12182W        W29029   8.360   3.982  14.847 -0.4561 -0.1126  0.1134
12183W        W29030   8.436   8.672   2.647  0.2755  0.2333  0.0610
12184W        W29031  17.081   1.660   5.435 -0.2648 -0.2124  0.1398
12185W        W29032  16.550   6.765   2.276  0.0512  0.0057  0.0394
12186W        W29033   8.856   1.393  11.313  0.0731  0.0235  0.3529
12187W        W29034   9.332   4.948   3.194  0.1052  0.0986  0.1259
12188W        W29035  18.532  11.212  13.189  0.0325  0.0274  0.0651
12189W        W29036  14.771   7.440   4.034  0.0318 -0.2823  0.3182
12190W        W29037   9.089  10.205  13.352  0.0290 -0.1534 -0.0114
12191W        W29038  16.813  12.145  15.295  0.0270  0.0388 -0.0817
12192W        W29039  12.334   5.585  13.688  0.0605  0.1527 -0.0943
12193W        W29040  18.121  10.081   2.384  0.1918 -0.1546  0.4472
12194W        W29041  16.214  10.361   0.616 -0.1502 -0.1292 -0.2253
12195W        W29042   4.731   3.678  13.562 -0.1292  0.4538 -0.2165
12196W        W29043  17.123  12.880   1.705  0.1392 -0.0369 -0.1575
12197W        W29044   2.536   5.087  11.813  0.0190 -0.3565 -0.3172
12198W        W29045  13.794   2.543  10.653  0.2584 -0.1003 -0.0295
12199W        W29046  12.888   9.573  14.812 -0.2724  0.4150 -0.0790
12200W        W29047  15.591  14.501  14.311  0.4462 -0.3862 -0.1143
12201W        W29048  17.865   6.671  15.581  0.2507  0.1157 -0.3554
12202W        W29049   1.971   7.860   5.898 -0.0457 -0.0183 -0.3798
12203W        W29050  14.438   7.746  12.444  0.0532  0.0272 -0.4218
12204W        W29051  10.163   8.175   1.516  0.0680 -0.0357  0.1364
12205W        W29052  12.361  17.001   3.917  0.2492 -0.0883  0.2216
12206W        W29053  13.048  11.268   3.614  0.0584 -0.0175  0.2779
12207W        W29054   3.656  18.121   3.751 -0.0743 -0.3899  0.1528
12208W        W29055  12.703  11.324  14.759 -0.0150  0.0218 -0.0623
12209W        W29056  12.445   7.511  13.220  0.0020  0.0754  0.0231
12210W        W29057   7.799  12.759  15.410 -0.1926  0.0740 -0.0461
12211W        W29058   6.453   2.074  12.231  0.0049 -0.1287 -0.0737
12212W        W29059  14.996  16.006   3.285  0.0351 -0.0718 -0.0531
12213W        W29060  11.068   0.369  14.337 -0.3762  0.0493 -0.0837
12214W        W29061   8.416  13.526  11.574 -0.1545 -0.3031  0.1069
12215W        W29062  14.875   4.176   0.039  0.2479 -0.0405 -0.0610
12216W        W29063   9.779   0.202   4.803 -0.0430 -0.1912  0.1167
12217W        W29064   2.078   8.221   4.355 -0.0561 -0.0607 -0.0907
12218W        W29065  14.196   9.487  14.986 -0.1601 -0.5033  0.0229
12219W        W29066  16.300  12.734   0.502 -0.2621  0.0224 -0.0495
12220W        W29067  18.113  11.226   1.657 -0.0482  0.2900 -0.0525
12221W        W29068   4.367   9.574   1.126 -0.0301  0.2854  0.2955
12222W        W29069   5.000  15.870  15.754 -0.3683  0.1788 -0.0221
12223W        W29070  14.562   2.463  12.431  0.0470 -0.0672  0.1039
12224W        W29071  12.902  10.810   4.862  0.1360 -0.0954 -0.0270
12225W        W29072  15.916   1.752   2.648  0.1420  0.1863  0.3974
12226W        W29073   6.875   2.947   5.514  0.1068  0.3129 -0.3271
12227W        W29074   0.283   7.715   5.215 -0.1359  0.2802  0.0072
12228W        W29075  17.703   1.034  14.560  0.0242  0.1861  0.0587
12229W        W29076  16.550   3.320   2.433  0.3029  0.2770 -0.4091
12230W        W29077   7.206   1.765   3.093 -0.2073  0.2581  0.0996
12231W        W29078  11.610   7.998   1.608  0.2945 -0.0582 -0.1894
12232W        W29079   0.804  10.572   0.765 -0.0019 -0.0898 -0.2196
12233W        W29080   2.904   0.186  10.727 -0.0389 -0.3580 -0.0447
12234W        W29081   8.641   2.435   3.580 -0.0077 -0.2203 -0.0235
12235W        W29082   1.937   8.195   2.835  0.0786 -0.1372  0.0983
12236W        W29083  16.630  11.242  14.793 -0.1593  0.3421 -0.3558
12237W        W29084  14.672   6.966  14.070  0.0690  0.1461  0.2254
12238W        W29085  11.598  14.975  13.327  0.2276 -0.1196  0.0696
12239W        W29086   6.309  16.794  12.090 -0.2500 -0.0053 -0.0072
12240W        W29087   3.833   2.154   3.724 -0.0796 -0.3316  0.3271
12241W        W29088   0.939  13.644  15.542  0.0259 -0.4696 -0.0453
12242W        W29089   5.552   9.799   5.564 -0.2554 -0.0049 -0.0708
12243W        W29090  15.338  12.826   4.497 -0.0890 -0.2768  0.1916
12244W        W29091   7.676   9.522  14.662  0.0962 -0.0643  0.0844
12245W        W29092   8.468  12.911   4.083 -0.0318 -0.0126  0.0954
12246W        W29093  18.084  12.307  11.624  0.0021  0.0152  0.2593
12247W        W29094  11.293   8.822  15.244  0.0188 -0.1219 -0.0256
12248W        W29095  13.972  14.430   2.114  0.1175 -0.0644 -0.3680
12249W        W29096   1.573  13.070  14.536  0.4232  0.0663 -0.3215
12250W        W29097   4.082   1.189  14.519 -0.0980  0.1564  0.1950
12251W        W29098   5.840  17.732   3.082  0.0170  0.0996  0.0596
12252W        W29099  14.046  13.945   6.145 -0.1346  0.1566 -0.1195
12253W        W29100   8.631  12.625   4.888 -0.0155 -0.0180 -0.1062
12254W        W29101   6.923   5.129  11.176 -0.1674  0.0153  0.0162
12255W        W29102   2.478   8.524   1.103  0.0571 -0.0607 -0.0639
12256W        W29103  16.119   1.624  13.024 -0.1067  0.0408 -0.2366
12257W        W29104   8.942   7.934   1.438 -0.5592  0.1841  0.1565
12258W        W29105  10.508  11.926   0.296 -0.3670 -0.2501  0.1438
12259W        W29106  12.795  15.135   4.420 -0.0238 -0.2855 -0.3994
12260W        W29107   5.033  16.557   3.036  0.1598 -0.0219 -0.1947
12261W        W29108   9.395   6.334  13.755  0.1308 -0.2771  0.3396
12262W        W29109   7.833   7.133   5.113  0.1234 -0.0598  0.0390
12263W        W29110   2.451   7.447   0.123  0.1538 -0.0461  0.2655
12264W        W29111   5.491  17.700   2.756  0.1217  0.1489  0.1235
12265W        W29112   9.773   9.897  14.692  0.0640  0.2846  0.0649
12266W        W29113  16.726  11.401   3.945 -0.0041  0.1968  0.0522
12267W        W29114  12.982   9.241  13.036  0.2104 -0.0903  0.1170
12268W        W29115   8.918   4.583  15.341 -0.0674  0.2267 -0.1224
12269W        W29116   8.155  10.942   0.131  0.2946 -0.0893 -0.0231
12270W        W29117  12.012   9.085   2.160  0.0884 -0.2751 -0.0740
12271W        W29118  15.972   9.473   0.561  0.1761  0.2696 -0.1656
12272W        W29119   7.978   4.956   4.205 -0.0050  0.1271 -0.4031
12273W        W29120   6.075  13.256   4.164  0.0465  0.4103  0.1072
12274W        W29121  16.724   9.953   4.432  0.0798 -0.0470 -0.2038
12275W        W29122   9.959   0.322   3.960 -0.0426  0.0333  0.0155
12276W        W29123  14.172  10.450  15.327  0.1026 -0.0263  0.0996
12277W        W29124   5.534  17.599  13.544 -0.1024  0.1084  0.1091
12278W        W29125  16.700   1.264   0.258  0.1306 -0.1810  0.2065
12279W        W29126   1.188   2.807  12.237 -0.0751  0.3156  0.1576
12280W        W29127   8.363  15.503   3.585 -0.0358 -0.0340  0.1776
12281W        W29128   2.816   7.057   1.671 -0.0237 -0.1043 -0.0465
12282W        W29129  17.137   1.139  11.227  0.1035 -0.0458  0.1439
12283W        W29130  12.549   3.861  13.812 -0.0652 -0.0629 -0.1151
12284W        W29131   6.202   2.846   1.411  0.3368  0.0374  0.0779
12285W        W29132   7.224  10.606   0.515  0.1271  0.2665 -0.2871
12286W        W29133  13.744   6.189   3.351 -0.1834 -0.2371  0.1911
12287W        W29134  16.348  10.388  15.671  0.0106  0.0323  0.4064
12288W        W29135  10.316  17.432   4.566  0.0502  0.1028  0.0495
12289W        W29136   1.946  15.007   1.121 -0.0046 -0.0845  0.2240
12290W        W29137  15.521   4.873  15.793 -0.1826 -0.3351 -0.2549
12291W        W29138   3.733  16.131  13.231  0.0067  0.1866  0.0542
12292W        W29139  10.124  14.082  13.783  0.0740 -0.0025 -0.1719
12293W        W29140   9.150  17.826  10.950  0.0761  0.3208  0.1958
12294W        W29141   3.908   8.496   0.563 -0.5398 -0.0057 -0.0612
12295W        W29142  14.749  12.940  10.338 -0.1127  0.0022  0.1389
12296W        W29143  12.717   8.268  13.003  0.1066 -0.0380 -0.0230
12297W        W29144   8.778  13.615   0.932  0.0530 -0.2633  0.1477
12298W        W29145   8.460   4.852  15.213 -0.0355  0.2334 -0.1043
12299W        W29146   0.771   0.396  13.747  0.2194  0.0875 -0.0040
12300W        W29147   8.520   8.956  15.417  0.0219 -0.1211  0.1360
12301W        W29148  16.465   1.842  11.239 -0.4015  0.0659  0.2381
12302W        W29149  16.943   2.920   2.734  0.3718 -0.0966 -0.0277
12303W        W29150   8.789  16.368   2.360 -0.1712 -0.0206  0.0893
12304W        W29151  13.059   1.982   1.351 -0.0064  0.0264 -0.2566
12305W        W29152  17.084   8.240  15.045 -0.1723 -0.4526  0.0754
12306W        W29153   8.655  17.173  13.965 -0.0678  0.0099 -0.3606
12307W        W29154  10.784  15.212  14.993 -0.1540 -0.1391  0.2504
12308W        W29155   7.718   5.665  13.145 -0.1166 -0.0006  0.0910
12309W        W29156  15.395  13.114   5.783  0.2048 -0.3497  0.0403
12310W        W29157   4.458  15.723  14.613  0.1109  0.1343  0.1908
12311W        W29158   2.995  15.704   0.202 -0.2319 -0.3268 -0.0827
12312W        W29159   9.897  11.527   4.512  0.0731 -0.1294 -0.0090
12313W        W29160   7.342   7.191  14.458 -0.0013 -0.0330  0.0304
12314W        W29161  10.556  15.306   0.738  0.2432  0.0477  0.2416
12315W        W29162  15.314  12.432  15.039 -0.0959  0.0502  0.1838
12316W        W29163   9.404  13.962   2.305  0.1031 -0.2361  0.0405
12317W        W29164   7.115  15.534  11.840 -0.1521  0.1826  0.2727
12318W        W29165   7.135  10.737   4.443  0.1119  0.1408 -0.0055
12319W        W29166  13.927  17.899  15.265 -0.2246 -0.1583 -0.0879
12320W        W29167   4.033   9.242  12.737 -0.3149  0.0335 -0.5713
12321W        W29168  11.685   0.706  13.724 -0.1002 -0.0205  0.1447
12322W        W29169  18.220   8.278   4.655  0.0262  0.0716 -0.0501
12323W        W29170   7.748   2.803   0.463 -0.1208  0.1399 -0.0377
12324W        W29171   2.729  14.780  15.218  0.1633 -0.1739 -0.2123
12325W        W29172   2.962   0.681  14.694  0.3445  0.3390 -0.1749
12326W        W29173  13.348  14.431  11.316  0.0694 -0.0173  0.2135
12327W        W29174   8.936  17.267  15.903 -0.0514 -0.2510  0.0678
12328W        W29175   8.681   0.668  13.530 -0.0327 -0.0624 -0.0857
12329W        W29176  17.055   1.781  12.950 -0.2141  0.2673 -0.0046
12330W        W29177   7.222   9.610  13.133 -0.0527  0.1146 -0.2787
12331W        W29178   4.987   5.895  15.188  0.0720  0.0779 -0.2406
12332W        W29179  17.120  10.101  15.336 -0.1545 -0.0297 -0.2576
12333W        W29180   3.363  10.414  15.111  0.0666 -0.0314 -0.1179
12334W        W29181   7.748   3.542  13.970  0.0025  0.1913 -0.1961
12335W        W29182  12.587  17.615   0.671 -0.1977  0.0342 -0.2190
12336W        W29183   6.812  14.615  14.131  0.0079  0.1689 -0.1278
12337W        W29184  15.082  11.852  12.158 -0.0157 -0.0529 -0.2570
12338W        W29185  17.151  12.394  11.563  0.1051  0.2017  0.1655
12339W        W29186  10.661   4.564  15.936 -0.1219 -0.2997 -0.0942
12340W        W29187  11.104   4.400  12.225  0.0251  0.2819 -0.1582
12341W        W29188   6.360   0.741   1.775  0.1002 -0.2509  0.1612
12342W        W29189   2.611   2.671   4.326  0.1095  0.0934  0.0705
12343W        W29190   1.692  17.247  13.611  0.0176 -0.1611 -0.2931
12344W        W29191   1.620  11.847   2.776  0.1146 -0.0963  0.4710
12345W        W29192   8.472   1.563   1.947  0.0318 -0.2064 -0.1645
12346W        W29193  11.875   6.268  15.377 -0.1900  0.1256  0.3828
12347W        W29194  14.133   6.582   2.388  0.2543  0.1332 -0.1377
12348W        W29195  13.609  15.936   2.227  0.3476 -0.0709  0.0794
12349W        W29196   4.069  13.711   1.691  0.1733  0.1284 -0.0515
12350W        W29197  16.178  17.435  13.783  0.0565  0.2584  0.0202
12351W        W29198   2.915  14.509  15.572  0.4396 -0.1163 -0.3284
12352W        W29199  11.173  15.755  15.926  0.0323  0.0389 -0.0643
12353W        W29200   2.625  11.679  14.727 -0.0374  0.0074 -0.2800
12354W        W29201  14.326   2.094   3.525 -0.1955  0.1341  0.1335
12355W        W29202   8.829  17.579  13.804 -0.0499  0.0629  0.0768
12356W        W29203   3.156  18.231   3.983  0.2973  0.0589 -0.0649
12357W        W29204   5.440  11.365  12.508  0.0689 -0.1566 -0.1038
12358W        W29205   3.462  17.707   4.690  0.2652  0.0525  0.2493
12359W        W29206  15.358   3.922  11.469 -0.2218 -0.1531  0.2468
12360W        W29207   9.821  11.899   0.839 -0.0342 -0.2657  0.2340
12361W        W29208   6.696  16.226  12.735  0.1663  0.2989  0.3582
12362W        W29209   1.036   1.470  14.736 -0.1028  0.0561  0.0414
12363W        W29210   3.017  15.251   0.799  0.0691 -0.2811 -0.2061
12364W        W29211  15.534   8.216   2.806 -0.2577 -0.1229 -0.1933
12365W        W29212  10.384   9.847   3.963 -0.0142 -0.3248 -0.0598
12366W        W29213  10.972  14.501  11.854 -0.1515 -0.1143  0.2158
12367W        W29214  10.030  10.809   0.781 -0.1336  0.3009 -0.2380
12368W        W29215   2.885  17.676  13.536 -0.1278 -0.2646 -0.4079
12369W        W29216  14.757   9.702   1.491  0.0386  0.2444  0.1493
12370W        W29217   3.845   0.015   3.554 -0.3715  0.1403 -0.0110
12371W        W29218   9.642   8.896   4.323  0.3408 -0.1913 -0.1218
12372W        W29219   6.969  17.893  12.541  0.0644 -0.2584 -0.1323
12373W        W29220   7.810  16.638   2.491 -0.1226  0.1740 -0.2097
12374W        W29221   6.086   4.678  11.370 -0.0502 -0.1631  0.5773
12375W        W29222  17.348  14.826  15.868 -0.0430 -0.2462 -0.1453
12376W        W29223   5.615   6.914  13.069 -0.0050  0.0828 -0.3008
12377W        W29224  10.789  17.346  11.784  0.1480 -0.0206 -0.1070
12378W        W29225   1.030  16.278   0.446  0.1746  0.2430  0.0415
12379W        W29226   1.826   0.433   3.605 -0.1431  0.2194 -0.0011
12380W        W29227  18.441   3.177   0.916  0.0590 -0.0833 -0.0081
12381W        W29228  12.431   5.846   3.636  0.0573  0.2041  0.1257
12382W        W29229   3.567   8.612  14.791  0.3911  0.1024  0.1916
12383W        W29230  15.629  13.779   3.838  0.2221  0.0160 -0.4581
12384W        W29231  11.505   4.426  15.503 -0.2414 -0.1192 -0.1566
12385W        W29232   9.638   0.849   0.623 -0.0572  0.1307 -0.3795
12386W        W29233   3.365   5.123   2.050  0.1899  0.0019  0.2021
12387W        W29234   8.162  18.081  11.756  0.0814  0.3009  0.0506
12388W        W29235   1.755   3.226   3.856 -0.1498 -0.2648  0.1002
12389W        W29236   8.760  11.779   1.147  0.0802 -0.0346 -0.0879
12390W        W29237   2.646   1.384  12.176 -0.0086  0.4052  0.1658
12391W        W29238   4.814   9.443  11.272  0.3276 -0.1237  0.2606
12392W        W29239   6.455  13.293  15.237  0.1481  0.0922  0.0695
12393W        W29240   7.961  18.259  12.834  0.2025 -0.2029  0.3579
12394W        W29241  16.240  15.135  13.372  0.1274 -0.2735  0.0551
12395W        W29242  10.385  13.506   1.722 -0.0973 -0.0153  0.0947
12396W        W29243  13.206   3.961   1.767 -0.0317  0.1030  0.2487
12397W        W29244  10.893   4.976   4.478  0.0945  0.1740 -0.2356
12398W        W29245   2.982   5.901   5.081 -0.1357  0.1268 -0.2940
12399W        W29246  13.647   7.482   4.736  0.2552  0.1706  0.1436
12400W        W29247  11.212   5.221  14.481 -0.3770 -0.2842 -0.2936
12401W        W29248   6.995   1.908   4.634  0.1252 -0.1095 -0.0302
12402W        W29249   1.777   7.301   1.750  0.0394  0.1481  0.2491
12403W        W29250  14.111  12.704   5.059 -0.0405  0.1945 -0.2773
12404W        W29251   4.217  14.007   4.055 -0.1044 -0.1353  0.1295
12405W        W29252  10.065   6.767   5.739 -0.1649 -0.1041  0.2816
12406W        W29253  12.941   2.003  12.738  0.0171 -0.2842  0.3041
12407W        W29254  14.794  14.712  12.202 -0.5063 -0.0940  0.4058
12408W        W29255   9.338   9.465   4.765 -0.0548  0.0031  0.2283
12409W        W29256   2.425   0.144  10.860  0.1913 -0.0866  0.2739
12410W        W29257   1.918  18.371  12.584 -0.2446 -0.0919  0.0377
12411W        W29258  12.189   1.792  11.102  0.2984  0.1781  0.1085
12412W        W29259   0.405  11.348   4.600  0.0698 -0.0786 -0.1011
12413W        W29260  14.639   8.552  15.186  0.2011  0.0162 -0.2651
12414W        W29261   6.035   8.474   3.190 -0.1411 -0.1798  0.0964
12415W        W29262   5.910  10.966   0.527 -0.0050  0.1214 -0.3188
12416W        W29263   4.536  10.917  15.112 -0.0456 -0.0209 -0.0582
12417W        W29264   3.479   0.075   3.879  0.3725  0.2102  0.2720
12418W        W29265   3.736   2.834  13.656  0.2094  0.0874  0.0628
12419W        W29266   3.503  18.212  11.254 -0.0075 -0.0315  0.1918
12420W        W29267   4.371   0.128  13.286 -0.0124  0.1950  0.0213
12421W        W29268  12.443  14.592  15.139 -0.0624 -0.0168 -0.1237
12422W        W29269  16.984   8.046  14.139 -0.1086  0.1675  0.1612
12423W        W29270   8.312   2.644  15.848  0.0016  0.1235  0.1702
12424W        W29271   9.291  13.711   0.837  0.1600  0.1899 -0.2408
12425W        W29272   2.235  16.581   3.822  0.0483 -0.1730 -0.2662
12426W        W29273  14.523  12.147   1.123  0.0687  0.4120  0.1310
12427W        W29274   2.609   3.496   4.556 -0.0924 -0.1603  0.1132
12428W        W29275  11.728   2.158   2.329 -0.1671  0.0934  0.5146
12429W        W29276  11.801  15.461   3.473  0.0042 -0.2191 -0.3648
12430W        W29277  17.761  18.210  12.188 -0.5140 -0.1937  0.0148
12431W        W29278   6.812   1.074   1.867 -0.0057  0.0449 -0.2722
12432W        W29279   9.785   8.203  11.597  0.0493 -0.3049 -0.1632
12433W        W29280  12.759   0.133   3.861  0.1363 -0.1902 -0.0159
12434W        W29281   7.878   3.726   1.402  0.0934 -0.1441 -0.0547
12435W        W29282   3.852   3.471   0.008 -0.2352 -0.1539 -0.0709
12436W        W29283   7.670  16.281   1.697  0.3043  0.1696  0.4761
12437W        W29284   1.488   2.337  13.980  0.0781  0.0442  0.1364
12438W        W29285   0.907   4.405  14.653  0.1664 -0.2562 -0.1164
12439W        W29286  15.795   4.402   5.925 -0.2219 -0.2606  0.1861
12440W        W29287  18.213  18.007  13.957 -0.1415 -0.0837  0.0378
12441W        W29288  15.291  10.800  12.302  0.2060  0.0333  0.0480
12442W        W29289  11.830   9.896   3.899  0.1217 -0.1330  0.0345
12443W        W29290   3.513  15.985   5.508  0.1038  0.1231  0.2834
12444W        W29291  14.609   1.401  15.525  0.2978  0.1017  0.0250
12445W        W29292  13.445  10.124  13.633  0.0169 -0.1664  0.2697
12446W        W29293   2.590  17.284  13.775  0.3483 -0.0382 -0.0010
12447W        W29294  11.912   0.383  12.017  0.1875  0.0493 -0.3897
12448W        W29295  10.373  16.140   3.288  0.0892  0.2191  0.0289
12449W        W29296   1.164  10.978  13.722 -0.0636 -0.3781 -0.1838
12450W        W29297   7.132  10.636  14.570  0.2352 -0.0556  0.2314
12451W        W29298   0.159  18.047  15.467  0.0240  0.2463  0.0076
12452W        W29299   8.060   3.881  12.465 -0.2579  0.1878 -0.0089
12453W        W29300  12.461   4.218  14.508  0.1903  0.0002  0.0919
12454W        W29301   9.927   5.368  14.373 -0.1876  0.4173 -0.0740
12455W        W29302   2.151   6.237  14.707 -0.0529  0.1681  0.0445
12456W        W29303   6.417  15.008  15.073 -0.0535  0.0664  0.0613
12457W        W29304  10.762  15.803   0.337  0.0009  0.0821 -0.1618
12458W        W29305   4.548   8.278   1.141  0.2007  0.2747 -0.3822
12459W        W29306   9.152   3.531  10.655  0.1180 -0.0416  0.0316
12460W        W29307  16.105  14.014   5.643 -0.1056 -0.3224 -0.1087
12461W        W29308   8.696   9.380  11.041  0.0967 -0.0437  0.1663
12462W        W29309   6.827  15.457   1.036 -0.0255  0.0793  0.0337
12463W        W29310   8.163  14.497   0.087 -0.0013 -0.0394 -0.3778
12464W        W29311   8.521   5.349  15.138 -0.0896  0.0118 -0.2057
12465W        W29312  17.555  17.732   4.690 -0.0214  0.1895  0.0801
12466W        W29313  10.140   3.368   1.945  0.1249 -0.1258 -0.4126
12467W        W29314   4.090  11.726   0.001 -0.5212  0.2264  0.0149
12468W        W29315  16.925   4.661  15.157  0.1058 -0.2479  0.1329
12469W        W29316  17.810  15.730   4.569 -0.4061 -0.1836 -0.1797
12470W        W29317   0.062  12.200   0.658 -0.1759 -0.0391  0.0071
12471W        W29318  16.625  10.379  11.417  0.5429 -0.0879 -0.1411
12472W        W29319   2.311  16.425  12.504  0.2175  0.0481 -0.3002
12473W        W29320   0.911  17.675  11.557 -0.0476  0.0384  0.0798
12474W        W29321   7.804  16.205  13.839  0.0255 -0.0238 -0.0967
12475W        W29322  12.800  11.409  12.657  0.1213 -0.0206  0.1494
12476W        W29323  13.667   0.351   3.526  0.0409 -0.0580  0.1916
12477W        W29324  18.394   6.788   0.564 -0.0505  0.0065  0.0304
12478W        W29325   0.616   0.333  11.404  0.1877  0.1119 -0.0429
12479W        W29326   8.176  15.928   2.240  0.2868  0.1959 -0.1205
12480W        W29327   9.766  17.799  12.733  0.1237  0.0835 -0.0001
12481W        W29328  10.917   5.034  12.968  0.3129 -0.0913  0.0947
12482W        W29329   9.819  16.034   1.716 -0.0946 -0.0369  0.1182
12483W        W29330   5.394   4.718  11.455  0.2420 -0.3527  0.2619
12484W        W29331   7.942  10.944   2.254  0.2398  0.2800 -0.2327
12485W        W29332   3.553  17.909   1.962 -0.3770  0.3372  0.2150
12486W        W29333  10.464   1.925  14.563 -0.0743 -0.0885 -0.1401
12487W        W29334   4.337   5.989  12.041  0.1827 -0.1694  0.1140
12488W        W29335  16.800  13.426  13.550  0.0207 -0.0145  0.0860
12489W        W29336  16.514  10.169   5.746 -0.0389 -0.0922  0.2570
12490W        W29337   2.168   8.795   5.474 -0.0720  0.1912 -0.2149
12491W        W29338  16.440  17.564  15.927 -0.1527  0.2941  0.2048
12492W        W29339  14.909   7.507  11.331  0.1706 -0.0434 -0.1432
12493W        W29340   8.120  12.224  15.292 -0.2892  0.1125 -0.2959
12494W        W29341  15.834   0.130  13.790 -0.0398  0.0707 -0.3057
12495W        W29342  15.087  13.445   0.391 -0.0026  0.0038 -0.0796
12496W        W29343   0.572   0.549  12.411  0.2327  0.0194  0.0819
12497W        W29344   3.454   7.179  11.847  0.3389 -0.1028  0.0023
12498W        W29345   2.121  14.276   3.561  0.0859 -0.1759  0.3431
12499W        W29346   2.662   6.330   1.256 -0.0272  0.0970 -0.0970
12500W        W29347   2.843  12.905   0.081  0.2828  0.0795 -0.0043
12501W        W29348   1.404  15.104  10.912 -0.4112  0.1155 -0.1093
12502W        W29349  17.610  17.581   5.585 -0.3660 -0.0297 -0.1885
12503W        W29350  10.982  12.233  12.242 -0.3225 -0.1671  0.0271
12504W        W29351  14.167  14.641  13.491 -0.2029  0.4241 -0.1911
12505W        W29352  15.438   3.247   4.407  0.0129  0.1756 -0.2685
12506W        W29353  15.817  13.051   4.842  0.1480  0.1489 -0.1227
12507W        W29354  12.288  14.275  12.073 -0.0922 -0.1285 -0.0230
12508W        W29355  13.905  13.474   0.370 -0.1385 -0.1123 -0.0148
12509W        W29356  16.547   2.215  15.541  0.0299 -0.1562  0.2122
12510W        W29357  15.929   0.190   4.091 -0.1201  0.2213 -0.2508
12511W        W29358   4.258   8.585   1.765  0.1872 -0.1969  0.1391
12512W        W29359  17.706   0.855   4.512  0.0440  0.3185 -0.0553
12513W        W29360  11.282   7.629   4.503 -0.0143  0.0512 -0.0861
12514W        W29361  13.010   9.326   0.549 -0.0574  0.0786 -0.2401
12515W        W29362   5.485  16.942  15.371 -0.2894  0.1026  0.2058
12516W        W29363  15.758   5.188  13.154 -0.0158 -0.1140  0.1776
12517W        W29364  15.883  15.335   1.448  0.1476 -0.0118 -0.0827
12518W        W29365   7.359  16.869   0.233  0.2153  0.0023  0.0965
12519W        W29366   0.814   5.131   4.366  0.2482  0.0534 -0.1485
12520W        W29367  15.895   3.662  14.653 -0.2533 -0.0822 -0.2505
12521W        W29368  16.312  10.781  11.485  0.1131  0.0226 -0.1499
12522W        W29369   1.183  14.804  15.577 -0.1384 -0.0853  0.0567
12523W        W29370  17.563  15.420   4.897 -0.1499  0.2087  0.1822
12524W        W29371  15.530  18.042  14.829 -0.2668 -0.2102  0.2724
12525W        W29372  17.060  15.954   3.413  0.3209 -0.1317 -0.4243
12526W        W29373  17.010   3.198  13.263 -0.0081 -0.0116  0.1912
12527W        W29374   5.783  16.017   3.537  0.3654  0.2633  0.3331
12528W        W29375  17.526   0.130  11.447 -0.2263  0.2565  0.0749
12529W        W29376   9.348  17.818   3.343 -0.4308 -0.0135 -0.1449
12530W        W29377  12.572  17.177  10.268 -0.0133  0.1399 -0.2139
12531W        W29378  13.938  14.524   3.630  0.1628 -0.0118  0.0657
12532W        W29379   7.328  10.629  13.154 -0.0511 -0.0695  0.2244
12533W        W29380   4.588  12.056  12.221 -0.0852  0.0020  0.1253
12534W        W29381   8.090   3.021  11.843 -0.1530  0.0502  0.2829
12535W        W29382   1.340   1.771   0.375 -0.1144 -0.0874  0.0666
12536W        W29383  11.708   7.265  10.785 -0.1334  0.0635 -0.2282
12537W        W29384   2.552  11.236  13.057 -0.4112 -0.0923 -0.0708
12538W        W29385  18.419  14.334  15.587 -0.1868  0.1401  0.0686
12539W        W29386   0.235  16.148  12.315  0.0061 -0.0623  0.1265
12540W        W29387  10.833   4.824  15.247 -0.3954  0.2005 -0.0726
12541W        W29388  15.753   0.837   5.071 -0.1068 -0.2019  0.0620
12542W        W29389  17.716   2.060   1.472 -0.0675  0.1829 -0.2138
12543W        W29390  17.008  11.122  14.389 -0.2884  0.0215  0.2673
12544W        W29391  13.844  12.874   1.203  0.1730  0.2488 -0.1130
12545W        W29392  18.120   2.599  13.466 -0.2326  0.1809  0.2241
12546W        W29393   9.168  10.042   3.301 -0.1319  0.1337  0.0363
12547W        W29394  14.759   3.982   1.688 -0.1627  0.1781 -0.1032
12548W        W29395   5.747  12.788   4.827  0.0612 -0.2267 -0.1801
12549W        W29396   0.099  11.419   5.074 -0.1390  0.2517  0.1331
12550W        W29397  12.816   7.467   2.911  0.1693 -0.1251  0.0175
12551W        W29398  10.979  14.824   2.056  0.4459 -0.2297  0.1356
12552W        W29399  15.598  18.414  12.830  0.0066  0.2294 -0.2464
12553W        W29400   9.017  14.612   1.159  0.2127 -0.0589 -0.0878
12554W        W29401  13.412   3.907   0.222  0.0797 -0.1124 -0.0966
12555W        W29402   9.488   1.194  14.714  0.1001  0.0000  0.0586
12556W        W29403   0.242   4.929  12.705 -0.0092 -0.1490  0.1340
12557W        W29404  14.309  14.775   0.384  0.0065  0.0070 -0.2271
12558W        W29405  15.278   6.223   1.246  0.1891 -0.0754  0.1120
12559W        W29406  13.978  12.256   4.030  0.0696 -0.2328  0.0568
12560W        W29407   3.407  16.620   1.116 -0.0264 -0.1093  0.1115
12561W        W29408  16.522  13.747  13.915  0.0400  0.2923  0.2937
12562W        W29409  15.518  14.507   5.444 -0.1911  0.1290  0.2761
12563W        W29410  15.816   1.429   4.336 -0.0288 -0.0011 -0.0305
12564W        W29411   8.048   3.342   4.200 -0.0633 -0.0415 -0.1460
12565W        W29412   9.926   7.054   0.818  0.2006  0.0554 -0.1443
12566W        W29413   6.410   5.445   5.146 -0.1661 -0.0600  0.0418
12567W        W29414   6.614  13.544   1.505  0.0112  0.1949  0.2008
12568W        W29415   8.037  17.775  13.469  0.0464 -0.1357  0.0126
12569W        W29416  16.311   5.349  11.812 -0.1558 -0.2480  0.1935
12570W        W29417   5.427   4.844  15.389 -0.1302  0.2101  0.1994
12571W        W29418   7.459   9.792   5.247  0.1428 -0.0670 -0.0554
12572W        W29419   4.136   8.936  15.348 -0.1791  0.1627 -0.1123
12573W        W29420   8.420   5.186  13.613 -0.2038  0.1358  0.0787
12574W        W29421   5.100   4.338  11.418 -0.0197 -0.3158 -0.2323
12575W        W29422   0.997   4.102   2.742  0.4074  0.2004 -0.1079
12576W        W29423   7.280   1.371  11.448 -0.0698 -0.1333 -0.1173
12577W        W29424   1.047   4.912   1.835 -0.0343  0.1613  0.0796
12578W        W29425   1.482  12.423  12.957 -0.2651  0.2762  0.0755
12579W        W29426   5.860   1.985   2.283  0.0682  0.1551  0.0879
12580W        W29427   6.235  18.257   5.333 -0.1354 -0.0219 -0.0439
12581W        W29428   1.257  12.553   2.594 -0.0506  0.1264  0.1303
12582W        W29429  17.530  14.291  12.427 -0.0560 -0.1279  0.0434
12583W        W29430   8.719   4.958   2.302  0.1012 -0.0174 -0.1964
12584W        W29431  16.968   7.548  13.740  0.1858  0.1353  0.1477
12585W        W29432   0.575  16.010   2.766 -0.2622 -0.0066 -0.1726
12586W        W29433  12.479   4.963   4.667 -0.3960 -0.3072  0.1122
12587W        W29434   1.075   4.961  13.995  0.0936  0.4881 -0.1214
12588W        W29435  14.739  15.936   0.574  0.0166  0.0637 -0.2209
12589W        W29436   1.343   5.701  12.040  0.1160  0.1792 -0.1005
12590W        W29437   3.511   4.483  15.268 -0.0800 -0.1584  0.0290
12591W        W29438  11.103   8.396   4.895  0.0728  0.2699 -0.0619
12592W        W29439  13.986   1.897  11.871 -0.3865 -0.1739  0.0103
12593W        W29440   3.716   0.053   2.568 -0.0931  0.0732  0.0027
12594W        W29441   6.174  11.552   2.782 -0.1034 -0.1095 -0.0552
12595W        W29442   2.410   5.742   0.527  0.1158  0.3712  0.1879
12596W        W29443   3.107   5.526  11.738 -0.0892 -0.0365  0.0906
12597W        W29444   8.762   2.080  12.406  0.3682 -0.1104 -0.2959
12598W        W29445  15.462  11.610  12.368 -0.2387 -0.0065  0.0353
12599W        W29446  15.450   3.760   0.774  0.1739  0.0635  0.0865
12600W        W29447  18.539   7.166   3.483  0.1137  0.3176  0.2649
12601W        W29448   6.672   8.902   2.099  0.1374  0.1255  0.3457
12602W        W29449  11.856  11.366  12.541  0.1599  0.2511  0.3098
12603W        W29450   5.568  11.146   1.686 -0.0078 -0.3088 -0.0303
12604W        W29451  11.468  13.322   5.408 -0.1919  0.0947 -0.1838
12605W        W29452  13.883   9.014   0.576 -0.2030  0.0985  0.0301
12606W        W29453  16.053   2.642  12.021  0.0050  0.2145 -0.1696
12607W        W29454  12.345  16.976   0.107 -0.1262  0.1119  0.0912
12608W        W29455   7.965  14.384   4.864  0.2149 -0.0454  0.1907
12609W        W29456   2.217   2.597   0.770  0.1571  0.2238  0.1555
12610W        W29457   8.830   5.681  11.452 -0.0924 -0.5007 -0.1434
12611W        W29458   3.086  11.949   1.683  0.2098 -0.0473  0.1214
12612W        W29459   5.432   2.538   5.338  0.0461 -0.0432  0.0325
12613W        W29460   7.300  16.133  14.043  0.0309  0.2083 -0.1878
12614W        W29461  10.874   3.747   0.920  0.2826 -0.0429  0.3438
12615W        W29462   8.364  13.450  12.601  0.1439  0.3889  0.1759
12616W        W29463   6.964   3.761   3.477 -0.3233 -0.1223 -0.1409
12617W        W29464   7.361   2.963   5.719 -0.3171 -0.6213 -0.0152
12618W        W29465  14.440  10.041   1.604 -0.1655 -0.1806  0.2144
12619W        W29466  16.163  18.119  15.156 -0.1312 -0.1620  0.2053
12620W        W29467  15.328   6.153  13.148  0.1836  0.0611 -0.0355
12621W        W29468   9.788  15.650  14.311 -0.2788  0.2414  0.3275
12622W        W29469  16.654  15.082  11.473 -0.0026 -0.0338 -0.4550
12623W        W29470   0.169  17.959   3.097  0.2130  0.0633  0.2555
12624W        W29471  17.877   2.619   2.411  0.1602 -0.3291 -0.2360
12625W        W29472   1.064   3.426   3.399  0.0223 -0.0979  0.0426
12626W        W29473  17.770  18.109   3.881 -0.0074 -0.0540  0.2047
12627W        W29474  14.067   5.992   5.692 -0.1810  0.2975  0.1532
12628W        W29475   6.808  14.943   3.452 -0.0646  0.0847  0.1501
12629W        W29476  18.484  12.139   3.133 -0.0653 -0.0072 -0.0949
12630W        W29477   3.734  16.274  12.284 -0.0741 -0.0864  0.2210
12631W        W29478   4.307  17.447   3.560 -0.1560  0.0392  0.2106
12632W        W29479  17.785  15.523  12.643 -0.0667 -0.0297 -0.1377
12633W        W29480   9.823   9.082   1.304 -0.0668  0.0996  0.0563
12634W        W29481   8.412   8.743   1.602 -0.0641  0.1315 -0.0358
12635W        W29482   0.873  12.882  15.044  0.1147  0.0545 -0.2656
12636W        W29483  15.645   9.355   2.500 -0.2398 -0.0653  0.2017
12637W        W29484   2.046   9.363   3.907 -0.0819  0.0902  0.0942
12638W        W29485   7.220  18.327  15.378 -0.0565 -0.0093 -0.0720
12639W        W29486   8.073  11.388   4.152 -0.3026  0.2671  0.3422
12640W        W29487   3.120   3.442  13.928 -0.1626 -0.1442 -0.0760
12641W        W29488   7.632   8.055  15.853  0.0125 -0.0500 -0.1400
12642W        W29489  12.326   4.633  14.333  0.2399 -0.2023  0.2772
12643W        W29490   7.950  15.358   5.636  0.0083 -0.1395  0.1021
12644W        W29491  16.129   6.698   0.966  0.0855  0.0790 -0.2528
12645W        W29492   9.036  14.503  13.021 -0.3318  0.0813 -0.0460
12646W        W29493  14.078  14.424   4.108  0.1526 -0.0387 -0.2863
12647W        W29494   3.636   3.992  12.628 -0.0352  0.0503  0.2914
12648W        W29495   4.398   8.880  14.911 -0.4149  0.6537 -0.1612
12649W        W29496  11.614  17.212  12.743  0.3106 -0.0531 -0.0128
12650W        W29497  15.934   6.032   5.239 -0.0814 -0.1100 -0.0580
12651W        W29498  17.067  17.765   3.161  0.0259 -0.2332 -0.0678
12652W        W29499  15.608   7.743  14.724 -0.1223  0.1969 -0.2934
12653W        W29500  15.512   7.253   0.873 -0.3165 -0.1311 -0.0953
12654W        W29501  13.160  14.627  13.833  0.1203 -0.1371  0.3014
12655W        W29502   3.055   2.176   0.861 -0.0696  0.2710 -0.0624
12656W        W29503  15.180   2.316  14.499  0.0379  0.0476 -0.1161
12657W        W29504   0.970   9.325   4.311  0.0491 -0.4475 -0.0322
12658W        W29505   2.967   3.395  12.543 -0.3394  0.2017 -0.0344
12659W        W29506  15.354   2.901   4.010  0.2823 -0.4937 -0.0299
12660W        W29507   0.479   5.759  12.303 -0.2637  0.2813  0.1480
12661W        W29508  18.325   1.934   3.012  0.1600  0.1152  0.2698
12662W        W29509  10.902   3.835  13.480  0.2267  0.0877  0.0586
12663W        W29510   1.836  15.297   0.320  0.1430 -0.3336  0.0259
12664W        W29511   6.927  17.593  12.983  0.2980  0.0994  0.1995
12665W        W29512  14.154   6.169  15.570  0.0960  0.0706  0.4446
12666W        W29513  14.135  12.853   2.507 -0.1353  0.0980 -0.2354
12667W        W29514  18.351   7.482   3.925  0.0169 -0.2498  0.2786
12668W        W29515  10.245  12.461  13.472 -0.1369  0.1093  0.1284
12669W        W29516   6.992   6.127  12.766 -0.0494  0.2158  0.3467
12670W        W29517  11.351  15.622   1.724 -0.1498  0.0740  0.0803
12671W        W29518  12.893   0.791   1.543 -0.0617  0.0560  0.2034
12672W        W29519  17.681   2.536   3.314  0.0288 -0.0231  0.2947
12673W        W29520  13.962   6.115  14.516  0.1162  0.3066  0.3592
12674W        W29521   4.428   9.220   4.095  0.0608 -0.0866  0.1397
12675W        W29522  16.873   7.153   3.633 -0.0635 -0.2101 -0.2397
12676W        W29523  13.269  12.396   2.524  0.0063 -0.0368 -0.1010
12677W        W29524  10.407  15.319  12.698  0.0023 -0.1485 -0.0327
12678W        W29525  12.935   3.654  11.266 -0.0291  0.2410 -0.0028
12679W        W29526  11.864   6.854   5.226  0.3319 -0.1164  0.0887
12680W        W29527   3.326  10.807  12.905 -0.3899 -0.0420 -0.0090
12681W        W29528   3.570  15.541   0.005 -0.3247 -0.3544 -0.0591
12682W        W29529  14.092   2.497  13.193  0.2943 -0.2559 -0.1217
12683W        W29530  17.864   4.570   3.142 -0.3350  0.0863  0.1924
12684W        W29531  11.480   7.361   3.255  0.0402 -0.1032 -0.1006
12685W        W29532   9.265   1.297   4.590  0.0813  0.0699  0.2018
12686W        W29533   3.229  12.857  13.638  0.0939  0.3085 -0.1000
12687W        W29534  17.159   8.685  13.456 -0.0907 -0.0853  0.0867
12688W        W29535   5.460  18.363   1.646 -0.0608 -0.1264 -0.0031
12689W        W29536   1.083   6.385  14.561 -0.0400 -0.0815  0.0834
12690W        W29537   5.969  17.580  13.212 -0.1083 -0.2442  0.2620
12691W        W29538   6.058  14.179  13.282 -0.1300  0.5093  0.2808
12692W        W29539   1.811  10.103  14.865  0.0101  0.1669  0.0385
12693W        W29540   3.069   3.944   5.036  0.0797 -0.0193 -0.0826
12694W        W29541   7.576   0.319   2.834 -0.0651  0.0666  0.0696
12695W        W29542   0.363   5.255   4.021  0.3310 -0.0199 -0.0452
12696W        W29543  17.764   4.416  15.180 -0.0708  0.0941 -0.2519
12697W        W29544   4.893  10.090   4.355 -0.1025 -0.1705 -0.0455
12698W        W29545   4.115   2.082  13.202  0.0173 -0.2230 -0.2813
12699W        W29546   7.044  11.172   2.352 -0.0218  0.1218  0.0376
12700W        W29547  14.437   3.704  11.375  0.1962  0.0639 -0.4053
12701W        W29548  12.508  13.715   3.588  0.0585 -0.2460  0.1963
12702W        W29549   1.858   2.338  15.234 -0.0942  0.0276 -0.0011
12703W        W29550  12.478  11.447  11.564 -0.1072 -0.0207  0.0688
12704W        W29551   1.417  15.382  15.032  0.2199 -0.3471 -0.3475
12705W        W29552   2.810  11.822   2.709 -0.2510  0.2333 -0.1136
12706W        W29553   8.317  10.156  15.709  0.1320 -0.3179 -0.1316
12707W        W29554   1.394   9.547   6.037 -0.1012  0.0603 -0.0663
12708W        W29555  10.319   2.827   2.786 -0.0417  0.0104 -0.1607
12709W        W29556   5.809   4.143   4.511  0.2538 -0.3598 -0.1733
12710W        W29557   5.485   5.517   2.447 -0.0691 -0.0059 -0.0079
12711W        W29558   1.389  12.000  11.848 -0.0615 -0.0475 -0.2858
12712W        W29559   5.030  12.118  15.893 -0.0628  0.0547 -0.2421
12713W        W29560   5.374  13.991   0.078 -0.3256 -0.2067 -0.0775
12714W        W29561   8.434   0.788   2.558  0.2697  0.0898  0.3888
12715W        W29562   9.658  11.458  14.828  0.3423  0.0289  0.0456
12716W        W29563   7.604  15.798  12.655 -0.2095 -0.1989 -0.1634
12717W        W29564  15.321   2.211   1.574  0.1344  0.0991 -0.2697
12718W        W29565  18.438   3.603  14.358 -0.0692  0.1338 -0.1563
12719W        W29566   7.840   1.583  14.603 -0.3768 -0.2813 -0.0769
12720W        W29567  14.337  13.612   3.781 -0.1038 -0.0865 -0.0251
12721W        W29568  15.675  15.480   5.240  0.0355 -0.0675  0.0647
12722W        W29569   0.172   2.299  11.857 -0.1445  0.2244  0.3715
12723W        W29570   2.948   4.851   5.634 -0.0546  0.1806 -0.0555
12724W        W29571  12.549   8.278   0.713  0.3970 -0.1810  0.2331
12725W        W29572   1.574  11.069  12.864  0.0953 -0.0060 -0.0431
12726W        W29573   1.485  16.108  13.774  0.0796 -0.0573  0.0176
12727W        W29574  13.672   8.970  14.256  0.1896  0.3206 -0.0116
12728W        W29575   3.989  13.768  15.856 -0.1280  0.0802  0.0382
12729W        W29576  12.040   2.520  11.476  0.2199 -0.0148  0.0390
12730W        W29577  13.473  17.855   0.128  0.2404  0.1453  0.1016
12731W        W29578  11.054   5.241   2.159  0.1026 -0.2197 -0.1593
12732W        W29579  11.582   8.572   1.161 -0.0713  0.0557  0.0345
12733W        W29580  16.862   8.107   3.745  0.2564  0.1437  0.0084
12734W        W29581  14.060  18.053  11.338 -0.0640  0.1252 -0.0371
12735W        W29582   2.804  15.807  13.058 -0.2481  0.3731  0.0200
12736W        W29583  10.071   6.248  11.202  0.0212  0.2004  0.2093
12737W        W29584  18.004  15.908  12.372 -0.0573  0.1472  0.0098
12738W        W29585  14.157  17.577   3.254  0.0532 -0.3057  0.2333
12739W        W29586  10.503  14.346   6.036  0.2456  0.1095 -0.1282
12740W        W29587  16.965  15.276  13.066 -0.2451  0.3174  0.2308
12741W        W29588   9.539  17.664  15.255  0.0397 -0.0109  0.0864
12742W        W29589   4.982  11.649  15.539 -0.1985 -0.1068  0.0590
12743W        W29590   8.216  10.985  14.580  0.2160  0.0162 -0.2566
12744W        W29591  11.407   5.586  12.518 -0.0729 -0.1819 -0.1685
12745W        W29592   6.439   8.932  11.880  0.0987 -0.0048 -0.3617
12746W        W29593  10.164  13.171  12.784  0.1072 -0.2389 -0.0312
12747W        W29594  17.941  16.125  11.924 -0.1852  0.4514  0.1349
12748W        W29595   4.736  15.359  14.392  0.0338  0.0835 -0.0795
12749W        W29596   3.528  12.851   1.275 -0.3510 -0.0749 -0.0279
12750W        W29597  16.659   6.063   3.588 -0.2073 -0.3576 -0.1884
12751W        W29598   2.023   2.402  11.231  0.1011 -0.0559 -0.0253
12752W        W29599   9.333   0.792  12.305 -0.4574 -0.1497 -0.0909
12753W        W29600   7.494   6.705   2.675  0.0102  0.2729  0.1957
12754W        W29601  12.771   9.824  13.881 -0.0120  0.0960 -0.0987
12755W        W29602   2.952   4.282  11.296 -0.2271 -0.0205 -0.0596
12756W        W29603   9.401  17.372  14.841 -0.1835 -0.0836  0.4118
12757W        W29604  14.430  11.334   0.385 -0.2824 -0.0199 -0.2336
12758W        W29605   6.325  18.006  13.180 -0.1878  0.4266  0.0691
12759W        W29606  11.703  13.304  10.323  0.1656 -0.0756 -0.2472
12760W        W29607   8.729  16.028   9.931  0.0493  0.1162 -0.0639
12761W        W29608  15.978  15.844  11.241 -0.1756  0.2322 -0.0629
12762W        W29609  14.996   2.526  12.679  0.1083 -0.0045  0.0693
12763W        W29610   4.028   1.963   3.041  0.2617  0.2904 -0.0258
12764W        W29611  15.193  11.167  14.612 -0.0873 -0.1077 -0.3107
12765W        W29612  11.120   9.189   2.986 -0.2473  0.0790 -0.0173
12766W        W29613   3.379   5.042  13.089  0.0809 -0.0119 -0.0256
12767W        W29614   3.971  18.046  14.890 -0.0674  0.1909 -0.0986
12768W        W29615  13.649  17.355   4.454  0.2388 -0.0282 -0.0779
12769W        W29616   1.754   1.946  12.127  0.0032 -0.0752 -0.3496
12770W        W29617   9.322   9.590  12.056 -0.0566 -0.1160  0.0263
12771W        W29618  15.762   3.843   4.607 -0.1077 -0.4652 -0.1166
12772W        W29619   0.017  15.343  15.169  0.1892  0.0543  0.1405
12773W        W29620  16.019   4.549  12.513  0.0163 -0.0957 -0.0910
12774W        W29621   9.841  10.714   4.368  0.1306  0.2123  0.0208
12775W        W29622  15.546   2.251  15.642  0.1529  0.0219 -0.0461
12776W        W29623   7.272   5.101  11.627 -0.2600  0.1257  0.2366
12777W        W29624   0.422   1.163  11.518  0.2098 -0.1565  0.0732
12778W        W29625   6.561   9.866   2.438 -0.0085 -0.2234 -0.1950
12779W        W29626   1.066   9.287  12.926  0.0086  0.3712 -0.0931
12780W        W29627   4.517   1.573  11.297 -0.0496 -0.2386  0.2129
12781W        W29628  16.960   2.201  15.875  0.1344  0.1703  0.0252
12782W        W29629   1.998   0.380  12.607 -0.1847  0.0523 -0.3097
12783W        W29630  12.421  18.537   5.385  0.2749  0.1377 -0.0701
12784W        W29631   3.365   9.907   1.800 -0.2578  0.3147  0.0866
12785W        W29632   2.525   1.685   0.344 -0.1418  0.1113  0.0625
12786W        W29633   1.806   8.925   5.099  0.1522 -0.2828 -0.2836
12787W        W29634   2.291   2.404  14.349  0.0860 -0.3531  0.1654
12788W        W29635  10.902  12.176   0.619 -0.1818 -0.1391  0.2074
12789W        W29636   6.018   8.187  13.596 -0.0363 -0.1687 -0.1931
12790W        W29637  11.402   5.122  12.795 -0.1594 -0.1150 -0.1221
12791W        W29638  13.503  11.129   3.396 -0.3483 -0.1060 -0.1871
12792W        W29639   2.111  14.845  11.087  0.0268  0.2988 -0.1337
12793W        W29640   4.746   7.540   5.295  0.2504 -0.0500 -0.0355
12794W        W29641  13.419   3.325   3.392  0.1755  0.3957 -0.3886
12795W        W29642   1.544  17.019  11.757  0.1668  0.1358  0.0844
12796W        W29643  14.630  12.585   0.923 -0.0739 -0.0458  0.0105
12797W        W29644   6.138   5.998  13.117  0.0087 -0.0995 -0.0244
12798W        W29645  10.975  13.323   3.763  0.0278 -0.1265  0.4013
12799W        W29646  10.226  16.808  11.450  0.0775  0.4471  0.2498
12800W        W29647  17.301   2.831  15.490  0.0455 -0.0976 -0.0507
12801W        W29648  10.835   7.291   1.064  0.0223  0.4095  0.0316
12802W        W29649   3.138  15.362   1.270  0.0961  0.1867 -0.0660
12803W        W29650  14.087  14.953  11.765 -0.1149  0.1370 -0.0362
12804W        W29651   5.650  10.376   4.171 -0.2016  0.1201 -0.0747
12805W        W29652  13.168   2.148  10.594  0.0505  0.2786  0.1604
12806W        W29653  12.796   0.532  15.155 -0.1632  0.2703 -0.2232
12807W        W29654   8.598   7.870  13.112  0.2310  0.2042 -0.0118
12808W        W29655   3.717   8.126  11.909 -0.1240  0.0410  0.0874
12809W        W29656  17.027   8.221   2.663 -0.1686 -0.1464  0.1724
12810W        W29657  13.626   2.170  10.922 -0.0430  0.0664 -0.0134
12811W        W29658  17.906  11.848  11.668  0.1821 -0.1019  0.0429
12812W        W29659   6.468   7.911  13.577 -0.1376  0.2614 -0.1500
12813W        W29660   2.909  17.888  15.814  0.1586 -0.0599 -0.0794
12814W        W29661   6.500   2.754   2.419  0.0079  0.1342 -0.2520
12815W        W29662   1.885   4.456  15.318 -0.0284  0.1257  0.0442
12816W        W29663  17.439   0.176  15.436 -0.0389  0.0176 -0.1129
12817W        W29664   0.872  10.359  13.006  0.1865 -0.0205 -0.2568
12818W        W29665  13.124   4.677   3.441  0.1237  0.0015 -0.2653
12819W        W29666  14.765  17.521   2.861 -0.3204  0.0240 -0.0181
12820W        W29667  17.334   7.318   3.868 -0.0396  0.1142 -0.0504
12821W        W29668  15.078  10.391  11.500  0.0034 -0.0792 -0.3268
12822W        W29669  11.345   6.871   4.571 -0.0285 -0.1529 -0.0393
12823W        W29670   9.754  12.774   3.349 -0.1343 -0.1472  0.0856
12824W        W29671  13.382   4.601  13.970  0.0615  0.0339 -0.1565
12825W        W29672   5.604  15.256   1.644  0.0869 -0.1894 -0.1221
12826W        W29673  17.674  13.779  13.049  0.1567 -0.3016  0.1264
12827W        W29674   6.456   6.387  12.986 -0.4068 -0.2085 -0.3879
12828W        W29675  12.612   1.339  15.678 -0.0471  0.0566 -0.0229
12829W        W29676   2.982   6.885   0.315  0.0831 -0.1442  0.1513
12830W        W29677   8.876   9.169  10.191  0.0915  0.0616 -0.0504
12831W        W29678   8.546  14.555  15.644 -0.1811  0.4307 -0.1582
12832W        W29679   6.980   9.132   0.808  0.1771 -0.2786 -0.0396
12833W        W29680  17.494  11.437  14.909 -0.2469  0.2562 -0.1167
12834W        W29681  12.945  11.388   4.108 -0.0894  0.1415  0.0578
12835W        W29682  13.495   8.103  13.750 -0.3565  0.0213 -0.0629
12836W        W29683   7.113   1.791   0.277 -0.2019 -0.0555  0.0121
12837W        W29684   9.011   9.289  11.735  0.0212  0.0755 -0.1759
12838W        W29685  13.734   4.723  13.330 -0.0481 -0.2144  0.2806
12839W        W29686   8.232   6.271  15.446  0.3142 -0.2487  0.0802
12840W        W29687   6.463  12.630  14.797 -0.1673 -0.0454 -0.2083
12841W        W29688   5.499  18.485  13.291  0.1395 -0.2546 -0.2039
12842W        W29689   6.873   7.961  14.857 -0.0955  0.1399 -0.0804
12843W        W29690  16.425   5.134  14.271 -0.0857  0.0900 -0.0220
12844W        W29691  18.059  16.268   0.219  0.1040  0.1755  0.0112
12845W        W29692  10.948   6.411   0.418 -0.0198  0.2215  0.0604
12846W        W29693   9.206   9.465  11.022  0.1622 -0.2222  0.0291
12847W        W29694   4.795  15.815   1.186  0.1895  0.1087  0.0228
12848W        W29695  15.916   5.958   1.977 -0.0772 -0.3704  0.2424
12849W        W29696  13.085  18.003  15.280  0.0047 -0.0322  0.2099
12850W        W29697   2.438  18.116   1.308  0.3727 -0.0463  0.3976
12851W        W29698   0.290  14.151   5.519 -0.1999 -0.0103 -0.0033
12852W        W29699   7.254  11.047   1.889  0.1277 -0.1226 -0.1922
12853W        W29700   1.397  16.111   5.267  0.3677 -0.3319  0.1318
12854W        W29701   7.162  13.850  14.578  0.3933 -0.3180  0.1397
12855W        W29702  11.482  16.263   0.066 -0.0006  0.2358 -0.0151
12856W        W29703   3.437   8.089  11.495 -0.2335  0.1419  0.1536
12857W        W29704  14.980  13.809   2.985 -0.3250 -0.0906  0.0104
12858W        W29705  14.174   6.835   1.544  0.2820  0.0705  0.1355
12859W        W29706  11.140   4.558   0.901  0.1359  0.1188 -0.2103
12860W        W29707  15.153   4.089  14.694  0.0081 -0.1477 -0.1272
12861W        W29708   8.900  14.554   0.644 -0.1182 -0.1238  0.0021
12862W        W29709   8.623   8.964  11.599 -0.0931  0.1315 -0.2318
12863W        W29710   4.707   2.137  14.419  0.3734  0.0019  0.0734
12864W        W29711   6.468  12.303  15.270  0.1135  0.1492  0.0383
12865W        W29712   4.934  14.335  12.022 -0.0700 -0.0354 -0.2146
12866W        W29713   9.995   9.069  11.505 -0.0688  0.2700 -0.0947
12867W        W29714   1.825  12.691  12.264 -0.0937 -0.2101 -0.0747
12868W        W29715   6.748  10.821   2.168  0.1087  0.1541 -0.3111
12869W        W29716   5.240  17.201  13.306 -0.2425 -0.1379  0.0489
12870W        W29717  12.036   1.145   1.337  0.1297 -0.3452  0.2433
12871W        W29718  14.864  16.130   4.287 -0.2434  0.1231  0.1317
12872W        W29719   6.080  15.195   1.391 -0.1497 -0.0768 -0.1001
12873W        W29720   3.241  17.987  14.326 -0.1305  0.0030  0.1723
12874W        W29721   6.727  14.921  12.665  0.0400  0.0632 -0.1291
12875W        W29722   4.525  15.718   2.060 -0.2131 -0.0645  0.0641
12876W        W29723   4.835  16.509   0.360  0.1674  0.3276 -0.0535
12877W        W29724   5.487   7.887   0.061 -0.1435  0.0853  0.1347
12878W        W29725  10.563   2.520  12.923 -0.0329  0.1944 -0.2301
12879W        W29726  16.131   3.028  12.326  0.0857 -0.0923  0.0940
12880W        W29727  12.329  17.176  14.404  0.0140 -0.0206  0.4078
12881W        W29728  11.957  12.913   0.655  0.0091  0.0539 -0.2465
12882W        W29729  13.940   3.665   0.772  0.1696  0.0843  0.0678
12883W        W29730  15.264   1.625   5.953  0.0246 -0.0614  0.0620
12884W        W29731  17.391  12.659  15.465  0.0145  0.1294 -0.2052
12885W        W29732   4.037   8.510   6.062 -0.1165 -0.1143 -0.2919
12886W        W29733  10.376   8.645   1.529 -0.1031  0.2197 -0.0685
12887W        W29734   1.220   3.909  14.151  0.3085 -0.2461  0.0067
12888W        W29735  10.556   4.826  14.835 -0.0185  0.0645  0.0766
12889W        W29736  14.408  15.042   0.858 -0.1847 -0.1454  0.1936
12890W        W29737  12.179   7.653  14.620 -0.0319  0.2756 -0.1087
12891W        W29738   8.243  10.516  13.879  0.1161 -0.3735 -0.1854
12892W        W29739  11.872  15.810  15.595 -0.2217  0.2244 -0.1260
12893W        W29740   3.115   1.501  14.657 -0.1870 -0.1008  0.0013
12894W        W29741   8.347   3.517   2.131 -0.2057  0.3357 -0.1936
12895W        W29742  16.884  16.970   2.650 -0.0443 -0.0122  0.0325
12896W        W29743  11.973   9.526  15.277 -0.1063  0.3998  0.0987
12897W        W29744   0.165  14.560   0.540 -0.0750 -0.1988  0.1120
12898W        W29745   7.947  14.094   0.446 -0.0191  0.2314  0.2629
12899W        W29746  16.658  15.588  13.338 -0.3088  0.2355  0.2860
12900W        W29747   9.598   1.549   1.513 -0.2764  0.2350 -0.0128
12901W        W29748  14.496   2.742  14.175  0.2022  0.2048 -0.0971
12902W        W29749   4.888   0.222   0.218 -0.2577 -0.1793  0.3116
12903W        W29750  11.936  14.899   2.407 -0.1448  0.0814 -0.1308
12904W        W29751  10.712   1.528  12.717 -0.1041  0.4789  0.5032
12905W        W29752   1.275  17.054  12.828  0.0709  0.1769 -0.2037
12906W        W29753  15.063   5.165  13.375 -0.0023  0.1042 -0.0480
12907W        W29754  17.298   6.316   3.975 -0.0157 -0.0626 -0.1880
12908W        W29755   2.348   4.762   4.141  0.0402  0.4499 -0.0078
12909W        W29756   4.950   1.472  10.998 -0.0875 -0.0397  0.0301
12910W        W29757  17.492  16.372  11.910 -0.0460  0.3542 -0.1997
12911W        W29758   6.523   1.013  14.765 -0.2727 -0.1083  0.1178
12912W        W29759  11.973  15.189   0.992 -0.0859  0.0723  0.2342
12913W        W29760   5.115  17.659  11.098  0.2257  0.1274 -0.0686
12914W        W29761   3.392  14.108   2.805 -0.2062 -0.1922  0.0288
12915W        W29762   4.987  13.513   3.691 -0.0454 -0.0840  0.0202
12916W        W29763  10.625   3.272   3.994  0.0516  0.0475 -0.0461
12917W        W29764  11.361   8.808   5.116  0.3194 -0.3311 -0.1260
12918W        W29765   4.274   9.310   3.007 -0.2871  0.2606  0.0044
12919W        W29766   7.311   6.451   1.719 -0.4594  0.0901 -0.1732
12920W        W29767  15.694   8.324  13.784  0.1158 -0.1940 -0.1009
12921W        W29768  18.186  12.417  10.155  0.1554  0.0754 -0.0509
12922W        W29769  13.310   5.674   1.633 -0.0093  0.0171 -0.4102
12923W        W29770  13.128   1.902  11.478 -0.0153  0.4111 -0.0984
12924W        W29771  14.208  17.122  14.666  0.0350  0.1431 -0.2427
12925W        W29772  14.981   1.436   1.727  0.2050  0.2109  0.0774
12926W        W29773   2.190  16.776   3.382 -0.0271  0.0493 -0.4606
12927W        W29774   6.348   3.383  15.788 -0.0841 -0.0621  0.3692
12928W        W29775   7.025   4.717  11.448 -0.2107 -0.0551  0.0049
12929W        W29776  14.555   9.344   3.806 -0.0193 -0.1062 -0.2358
12930W        W29777   2.170   0.316  15.065  0.3185  0.0642 -0.2701
12931W        W29778   4.799  15.836   2.616 -0.1444  0.2192  0.0917
12932W        W29779  13.491   0.599  15.671  0.0453  0.1348  0.2983
12933W        W29780   6.709   2.349  11.361 -0.0339 -0.0557  0.0784
12934W        W29781  13.960   6.014   4.277  0.0993 -0.0780  0.0213
12935W        W29782  13.781   0.228   4.840  0.0344  0.0498  0.0401
12936W        W29783  17.229   4.929   1.997 -0.1210 -0.4040  0.1322
12937W        W29784   0.232  11.980  13.685 -0.0471 -0.0469  0.1109
12938W        W29785  10.732   2.070  15.921 -0.0122 -0.1393  0.0145
12939W        W29786  14.993   5.821   4.422 -0.2343  0.3278 -0.1166
12940W        W29787   5.988  11.316  11.260 -0.2893 -0.0790  0.1467
12941W        W29788  16.381   6.137  12.457 -0.0389 -0.2576 -0.1584
12942W        W29789   1.696  11.225   3.440  0.2498  0.1288  0.3898
12943W        W29790   6.196   9.632  12.637 -0.1888 -0.1376  0.0934
12944W        W29791  14.931  15.194  13.076 -0.1686 -0.3566  0.0802
12945W        W29792  18.422   9.001   5.788  0.3162 -0.0051 -0.1774
12946W        W29793   0.936  11.975  11.608 -0.1809  0.2686  0.3099
12947W        W29794  17.272   0.109   4.952  0.0243  0.1369 -0.0371
12948W        W29795   4.389   4.552   4.847 -0.0144 -0.2556  0.0216
12949W        W29796   4.205  15.694   4.121  0.0545 -0.0013 -0.0424
12950W        W29797   7.841  14.249   2.854 -0.2053  0.5318 -0.1322
12951W        W29798   4.377  17.797  11.834 -0.0222 -0.1673  0.0166
12952W        W29799   8.155   2.378  14.931 -0.3869  0.0157 -0.1240
12953W        W29800  12.429   7.214  14.747  0.1247 -0.1962  0.0987
12954W        W29801  14.790  17.525  12.284 -0.0238 -0.3096 -0.3841
12955W        W29802   6.927   2.882   4.494  0.0706 -0.0315  0.0312
12956W        W29803   9.885  14.600   4.586  0.0873  0.3348 -0.0230
12957W        W29804  15.405   2.030   5.542  0.3183 -0.0919 -0.2091
12958W        W29805   7.929   2.837   1.840  0.3859 -0.1862 -0.2945
12959W        W29806  15.057   9.965   4.747  0.2540 -0.0876 -0.1283
12960W        W29807  15.955   1.235   0.169  0.0251 -0.1478 -0.0064
12961W        W29808   5.270   8.609   0.585  0.2127 -0.0210 -0.0560
12962W        W29809  18.150  15.131   0.773 -0.2071  0.0012 -0.0341
12963W        W29810   4.723  17.838   2.784  0.2508 -0.0009  0.0581
12964W        W29811  10.043   6.612  14.190  0.0077  0.1364 -0.0222
12965W        W29812   0.167   2.518  13.260  0.3078 -0.2010 -0.0198
12966W        W29813  14.906   8.538  13.291  0.1180  0.3557 -0.4312
12967W        W29814  10.823  13.802   3.020 -0.1167 -0.3460 -0.0803
12968W        W29815   3.041   3.482   3.020  0.0053  0.2448 -0.1355
12969W        W29816   0.040  14.029  14.374  0.1507 -0.0709 -0.1299
12970W        W29817  12.197  10.748   4.151 -0.0599 -0.0516 -0.1465
12971W        W29818  17.434  13.620  14.708 -0.1379 -0.2082 -0.2127
12972W        W29819   0.384   4.325  14.575  0.0546 -0.0017  0.1723
12973W        W29820   3.222   1.988   1.643  0.2072 -0.0356  0.2131
12974W        W29821   4.598   1.440   5.252 -0.0509  0.2381  0.1020
12975W        W29822  13.884   0.324   2.354  0.0194  0.1741 -0.1471
12976W        W29823  13.081   2.776   4.296 -0.2373 -0.0369 -0.0101
12977W        W29824   3.103   4.423   2.047 -0.2574 -0.0357  0.1759
12978W        W29825   4.583   8.573   0.016  0.6267  0.1254 -0.1015
12979W        W29826   9.966   8.810  13.984 -0.2116 -0.0703 -0.5296
12980W        W29827  17.780  11.723  15.239  0.1715 -0.0504  0.0920
12981W        W29828  12.313  13.908  13.124 -0.2221 -0.2433 -0.1185
12982W        W29829   3.164  17.776  12.131 -0.2401  0.1112 -0.0659
12983W        W29830  12.737   7.307  15.223 -0.4243 -0.1331  0.3198
12984W        W29831   5.865   5.139  11.400  0.3306  0.2078 -0.2564
12985W        W29832   7.663  14.697  14.002 -0.1401 -0.0534 -0.1295
12986W        W29833   0.887   3.452  13.306  0.0646  0.0890 -0.0074
12987W        W29834   8.989   1.977   4.894  0.1030  0.1779  0.1689
12988W        W29835   9.595   2.894   0.021 -0.3110  0.0403  0.0293
12989W        W29836   0.618   9.870   0.575 -0.1983 -0.0683  0.1916
12990W        W29837  14.435  10.625   2.299 -0.0264  0.1828 -0.2021
12991W        W29838  11.311   6.497  10.431 -0.2174 -0.3282 -0.0011
12992W        W29839   4.662  17.943   5.446  0.1319  0.2371 -0.1227
12993W        W29840   1.378   8.788   4.766  0.2259  0.0157 -0.0306
12994W        W29841   7.052  13.444   1.293 -0.0712 -0.0539  0.0382
12995W        W29842  15.523  14.364  15.220  0.2262 -0.0937 -0.0653
12996W        W29843  17.364  11.398  15.402 -0.0669  0.0175 -0.0776
12997W        W29844   8.877   2.316  13.657  0.1317  0.0342 -0.0700
12998W        W29845   6.470  15.330   0.612 -0.2292  0.4984  0.0646
12999W        W29846   4.630  14.453   0.171  0.0821  0.2060 -0.2391
13000W        W29847   2.308  10.527   3.225 -0.1012  0.1170 -0.1508
13001W        W29848  18.053  17.146   4.441 -0.0038  0.1063  0.0285
13002W        W29849   5.788  10.661   3.802  0.1863  0.0652 -0.0109
13003W        W29850  13.676   7.184  11.887  0.3409  0.0500 -0.0613
13004W        W29851   0.694   6.973   0.064  0.0570 -0.1100  0.0523
13005W        W29852   3.749   4.957  11.198 -0.1036  0.0886  0.3054
13006W        W29853   2.025   4.576   1.761 -0.1631 -0.1358 -0.0455
13007W        W29854   6.836  15.645  15.632  0.2780  0.1049  0.0667
13008W        W29855  18.110   0.101   1.637  0.0348 -0.0551 -0.0038
13009W        W29856  11.548   0.963   1.386 -0.4843  0.0540 -0.0488
13010W        W29857   5.662   6.474  11.798  0.0093 -0.1304 -0.3974
13011W        W29858   2.719   5.294   2.002 -0.1233  0.0986  0.0229
13012W        W29859   0.939  17.393   4.081  0.6061  0.0318 -0.0862
13013W        W29860   8.058  14.359   1.464  0.0484 -0.1500  0.3159
13014W        W29861   3.745   5.466  12.935 -0.0098  0.2173  0.0437
13015W        W29862  17.167   0.644   3.344 -0.1324 -0.2861 -0.0243
13016W        W29863   6.428   7.391  13.517  0.0600  0.1329 -0.1756
13017W        W29864   6.762   5.530  14.032  0.0523  0.0958  0.2829
13018W        W29865  16.992   6.638  13.495  0.0631  0.1354 -0.1515
13019W        W29866  16.360   0.377  14.459  0.1318 -0.0489  0.2690
13020W        W29867   5.376   2.403   3.854 -0.0595 -0.1593 -0.1769
13021W        W29868   1.334  13.949   1.374 -0.0225 -0.0415  0.0583
13022W        W29869   5.442  15.103   2.735 -0.0571 -0.1472  0.0540
13023W        W29870   6.987  17.678   2.232 -0.3153  0.1512 -0.0033
13024W        W29871   3.545   9.845   5.441  0.0386 -0.1773  0.1244
13025W        W29872  13.198  13.381  15.943  0.2288  0.0014  0.0676
13026W        W29873  13.850   6.812   4.675  0.2437 -0.2077 -0.0254
13027W        W29874  13.027   2.606   0.675  0.1400 -0.0681  0.3331
13028W        W29875  16.747   8.466  11.198  0.1671  0.0325 -0.1708
13029W        W29876   4.338   3.595  15.786 -0.1641  0.0015 -0.0518
13030W        W29877   4.728  13.867  12.933 -0.0281  0.0106 -0.1559
13031W        W29878   4.974   5.522   2.199 -0.4770 -0.4159 -0.3404
13032W        W29879  10.915   6.896   5.414  0.2357 -0.0445  0.0648
13033W        W29880   0.823  15.625  10.114 -0.2797  0.0023 -0.2432
13034W        W29881   1.398   5.960   0.401  0.0767  0.5824 -0.2321
13035W        W29882   3.616   8.626   3.894 -0.2646 -0.0652 -0.1600
13036W        W29883   6.713   0.917   4.768  0.0026 -0.0940  0.1254
13037W        W29884  14.985   7.419  10.527  0.0038 -0.0279  0.1076
13038W        W29885   9.807   2.408  14.180 -0.1572 -0.0979 -0.0868
13039W        W29886   4.266   4.618   3.067 -0.2773 -0.3680  0.0763
13040W        W29887   3.594   7.173   1.674 -0.0644 -0.3840  0.1584
13041W        W29888   0.108  11.628   2.228 -0.2430  0.1351 -0.0395
13042W        W29889   7.303   7.802   0.163 -0.2684 -0.0065  0.0591
13043W        W29890   5.937   9.411  11.278  0.1859  0.1530  0.1520
13044W        W29891   8.139   5.805   1.623 -0.1252  0.1082  0.1564
13045W        W29892  11.959   3.759  15.534 -0.0606  0.1163  0.0642
13046W        W29893  16.098   8.332  11.677  0.1135 -0.1638 -0.1309
13047W        W29894  16.089   5.502   2.328 -0.0443 -0.5318  0.0707
13048W        W29895   1.704  14.484  13.231  0.1603  0.2218 -0.2247
13049W        W29896  17.613   5.138  10.571  0.2044  0.1564  0.3049
13050W        W29897  14.098   3.098   3.201  0.0588  0.0231 -0.1837
13051W        W29898  10.853  12.113   3.042  0.0044  0.0393  0.1932
13052W        W29899  11.200   3.495  11.680  0.0888  0.0424  0.1160
13053W        W29900   0.130   6.121   2.700  0.0603  0.0255  0.1600
13054W        W29901   5.543  16.960  13.703 -0.1681  0.1616  0.1343
13055W        W29902   9.556   5.207   0.300 -0.0764 -0.2991 -0.2594
13056W        W29903   5.867  11.113  11.760  0.1586 -0.5156  0.0640
13057W        W29904   0.910   2.952  14.863  0.3017 -0.3160  0.1957
13058W        W29905   0.153  13.894   1.446 -0.2778 -0.0101 -0.0502
13059W        W29906   2.130  10.001   4.485 -0.0340  0.0344 -0.1186
13060W        W29907   7.419  15.878  13.524  0.1689 -0.1737 -0.2058
13061W        W29908  16.045  10.257   0.087  0.1713 -0.1003  0.1194
13062W        W29909   5.061  12.099  12.142 -0.1133 -0.1712 -0.3890
13063W        W29910   4.671   0.179   2.320 -0.0722 -0.2447  0.2718
13064W        W29911  10.913   6.012   3.310 -0.0350  0.1397  0.0328
13065W        W29912   0.822   2.792  13.765 -0.2609 -0.0153 -0.2330
13066W        W29913   1.682  11.546  13.074  0.1605 -0.0138 -0.0401
13067W        W29914  13.069   1.139  15.631  0.0685 -0.0850 -0.1045
13068W        W29915  14.798  14.444  11.634 -0.1222  0.1268 -0.0937
13069W        W29916   4.833  11.792   2.112  0.2807 -0.4618 -0.0184
13070W        W29917   4.986   6.513   3.348 -0.0562 -0.3405 -0.0889
13071W        W29918  14.701  12.705   4.386  0.2927 -0.0884 -0.4587
13072W        W29919   5.989  17.460  11.552 -0.2773 -0.1082 -0.3375
13073W        W29920  11.499   5.055  11.775  0.0691 -0.1727  0.0573
13074W        W29921   0.883   7.573  11.674 -0.0015  0.1796  0.1705
13075W        W29922  13.937  12.237   5.362  0.1371  0.3738  0.2496
13076W        W29923   1.801   3.358  15.235 -0.0294 -0.1261  0.1104
13077W        W29924   8.948   7.172  12.697 -0.0086  0.0368  0.3815
13078W        W29925   7.534  10.547   3.040  0.0358 -0.0541  0.1543
13079W        W29926  18.351   1.787  13.711  0.1249  0.2367  0.0632
13080W        W29927   0.078  11.134   1.580  0.1766  0.1039 -0.0050
13081W        W29928   0.123   1.842  12.188  0.1407  0.0150 -0.0394
13082W        W29929   8.313   2.604   3.180 -0.2548 -0.0108 -0.0880
13083W        W29930   7.629   4.116  12.494 -0.0686 -0.3197 -0.1559
13084W        W29931  15.141  16.207  13.025 -0.1230 -0.3851 -0.0511
13085W        W29932   8.494  12.961  14.526  0.2719 -0.0355  0.1826
13086W        W29933  10.461   0.268   0.590  0.0331 -0.0707 -0.4482
13087W        W29934  15.037  10.220  13.598 -0.1592 -0.0136  0.0052
13088W        W29935  17.804   9.894   2.070 -0.0764 -0.0862 -0.1203
13089W        W29936  16.612  11.203   1.169  0.0624  0.1403  0.0812
13090W        W29937   1.477   8.425   2.346 -0.0827  0.0259 -0.0766
13091W        W29938   2.518   7.468   2.858 -0.1757 -0.1045 -0.0291
13092W        W29939   7.255   0.648   3.474  0.0741  0.0900  0.3091
13093W        W29940   2.834  10.246  15.704 -0.0377 -0.1796 -0.1489
13094W        W29941   7.480   3.589   2.357  0.1266 -0.1202  0.0932
13095W        W29942  13.541   9.750  12.754  0.2758  0.0892 -0.0424
13096W        W29943   6.332  10.778   5.331 -0.2543 -0.0516  0.1292
13097W        W29944   4.365  16.579   0.239  0.4758 -0.0338 -0.0141
13098W        W29945   1.963  11.611  13.508 -0.0306 -0.1773  0.1910
13099W        W29946   1.542   0.414   0.289  0.2225 -0.2824  0.1965
13100W        W29947   6.108  12.093   4.255 -0.1119  0.0657 -0.0315
13101W        W29948   1.847   5.250   1.587 -0.2754  0.0671  0.1746
13102W        W29949   4.100   8.503   1.272 -0.0509 -0.1986 -0.2301
13103W        W29950   4.293   9.266  11.916  0.1761 -0.0749 -0.0317
13104W        W29951   4.995  15.194   1.287  0.2284 -0.3033  0.1270
13105W        W29952  13.415   7.792  11.405  0.0384 -0.3061  0.0516
13106W        W29953   3.092  10.733   5.215  0.0436 -0.0233  0.5595
13107W        W29954   7.427  10.991   1.404  0.0351  0.1201 -0.0768
13108W        W29955   4.524  10.300  11.258 -0.1283  0.1614 -0.4881
13109W        W29956  13.931   2.634   3.061  0.2287  0.0800  0.2144
13110W        W29957  13.044   3.965  13.557  0.1943  0.0481  0.0240
13111W        W29958   5.953   3.206   4.662 -0.1636 -0.1259 -0.2153
13112W        W29959   6.849   7.977  12.183  0.0334  0.0238  0.0788
13113W        W29960  14.246   3.482   4.367  0.2325  0.1614 -0.0505
13114W        W29961   4.468  11.176  11.680  0.1479  0.2053 -0.2218
13115W        W29962   5.049  13.471  11.429 -0.4184 -0.0627  0.0668
13116W        W29963  11.309   7.747  15.938 -0.2953  0.0426  0.1372
13117W        W29964  11.609  12.731  11.359  0.3133  0.0490  0.5166
13118W        W29965   7.476   2.522  15.575  0.0788  0.1711 -0.2515
13119W        W29966   1.635  15.322  11.771 -0.0886 -0.4412  0.0731
13120W        W29967   7.482  17.761   2.257  0.2170  0.3126 -0.1173
13121W        W29968   8.213  14.288   3.139  0.0759  0.2605 -0.2953
13122W        W29969  18.278  17.724  15.115 -0.0432  0.1584 -0.0964
13123W        W29970  16.295  12.256  12.025 -0.0458 -0.4119 -0.2223
13124W        W29971   1.341  15.231   4.528 -0.2127  0.1531 -0.0913
13125W        W29972  13.228  16.003   4.052 -0.5145 -0.1834  0.0362
13126W        W29973  17.839  15.471   3.898  0.0472 -0.2015  0.1562
13127W        W29974  13.376   6.950   0.121 -0.1463  0.3473 -0.1231
13128W        W29975   9.817   4.070  11.955 -0.2727 -0.2215 -0.3064
13129W        W29976   4.828   5.218   1.393  0.1236 -0.0019  0.0460
13130W        W29977  13.592  17.983   0.595 -0.3242 -0.0800 -0.2476
13131W        W29978   2.532  12.661   1.506  0.0309  0.1033  0.0444
13132W        W29979   6.564   6.241   1.166  0.0179 -0.1546  0.2686
13133W        W29980  10.185   9.049  13.044 -0.0437  0.0644 -0.2105
13134W        W29981  10.206  12.368   0.103 -0.0606  0.0648  0.2131
13135W        W29982  10.230   2.605  13.249  0.2041  0.0892  0.1497
13136W        W29983  11.150   8.496   0.344  0.0418  0.0508  0.1404
13137W        W29984  10.557  12.197  11.801  0.0448 -0.2535 -0.1553
13138W        W29985   9.518   7.922  11.247  0.0854 -0.0991  0.0796
13139W        W29986   8.577   6.407  12.541  0.0050  0.0748  0.1602
13140W        W29987   3.907   3.749   2.714  0.2330 -0.2558  0.0366
13141W        W29988   0.431   1.254   1.295  0.2625 -0.0550  0.1977
13142W        W29989  13.405  16.854   5.069  0.0450  0.1693  0.2693
13143W        W29990  10.156   1.915   4.260  0.2186  0.0814  0.2589
13144W        W29991  10.609   8.594   0.608 -0.0892  0.1392 -0.5435
13145W        W29992   4.159  14.611   4.889 -0.2110  0.2053  0.1341
13146W        W29993  13.396   1.988  12.596 -0.6003 -0.3055 -0.0676
13147W        W29994  10.931   5.387  14.095  0.0841  0.0409  0.0692
13148W        W29995  18.028  14.439   1.285  0.0188  0.1013 -0.1745
13149W        W29996   8.100   3.910   5.250  0.1183 -0.1596 -0.0043
13150W        W29997  10.885   0.735  13.074  0.1607  0.1045 -0.0404
13151W        W29998  14.459   5.793   3.666 -0.0567  0.0474  0.0994
13152W        W29999   9.820   9.862  11.903  0.0278  0.2623  0.1391
13153W        W30000  12.762  12.405   3.620 -0.0668 -0.0294  0.1302
13154W        W30001  17.348  17.277  15.164  0.0608  0.1433  0.0575
13155W        W30002  16.678  15.554   0.803 -0.0043 -0.2774 -0.0695
13156W        W30003   4.526  13.665  14.961 -0.2167  0.3018  0.1983
13157W        W30004  10.133   5.987  12.125  0.3151  0.0239 -0.1445
13158W        W30005  15.828   4.573   1.757 -0.0707 -0.4382 -0.1503
13159W        W30006   1.334  17.862   2.265 -0.0615  0.2249  0.4997
13160W        W30007  16.760   4.121  12.095  0.1974 -0.1389  0.0687
13161W        W30008   9.533   3.580   5.134 -0.0806 -0.0662  0.0010
13162W        W30009   1.570   4.196  15.013 -0.3053  0.0168 -0.1313
13163W        W30010  16.591   8.629  14.441 -0.2288  0.2690  0.1739
13164W        W30011   4.592  16.230   3.271  0.1902 -0.1043  0.2644
13165W        W30012   8.893  11.890   3.208  0.0366  0.1232  0.3986
13166W        W30013   1.676   9.394   5.124  0.1466 -0.1429  0.1897
13167W        W30014  13.048  18.479  15.275  0.3181 -0.2026  0.1841
13168W        W30015   0.663  14.437   5.165 -0.3196 -0.1277 -0.1012
13169W        W30016   0.550   6.915  11.820 -0.1063  0.0015  0.1892
13170W        W30017   5.107   9.717   4.566 -0.0840  0.1006 -0.0321
13171W        W30018  13.296  10.869   2.457 -0.0251 -0.1967  0.1136
13172W        W30019   3.523   5.715   3.351  0.0680 -0.1923  0.2612
13173W        W30020   2.365   1.287   1.447  0.0683 -0.0759 -0.4502
13174W        W30021   2.076  15.977   4.354 -0.3774  0.1062 -0.1248
13175W        W30022  17.797   5.927   5.059 -0.1550  0.0527  0.2486
13176W        W30023  12.145  13.499   3.863  0.2901  0.0327  0.3000
13177W        W30024  18.294   1.609   3.865  0.1062 -0.1196  0.4472
13178W        W30025   5.615   5.481  11.662  0.0043  0.0313  0.1017
13179W        W30026  10.255   8.387  15.714  0.0240  0.1825 -0.1389
13180W        W30027  15.745   7.235  11.155  0.0274 -0.1010  0.4058
13181W        W30028   9.437   5.085  10.259 -0.2980  0.4979 -0.2372
13182W        W30029   8.013   0.620  14.432 -0.1803  0.4656  0.1692
13183W        W30030  15.103  16.568  15.094  0.0275  0.1945 -0.0110
13184W        W30031  10.747   1.408  15.261 -0.0786  0.0885  0.0681
13185W        W30032   4.439   5.597   4.256 -0.2088 -0.1749 -0.0361
13186W        W30033  16.113  16.834   1.677  0.3933  0.0823 -0.0514
13187W        W30034   3.936  11.178   0.887 -0.1290 -0.0811 -0.0547
13188W        W30035  14.159  18.269  15.045 -0.3260 -0.0057  0.0775
13189W        W30036   7.410  12.613  11.196  0.1242 -0.0270  0.2249
13190W        W30037   8.852   3.235  10.907 -0.0063 -0.2541 -0.1628
13191W        W30038  16.623   3.721   3.000  0.2635  0.2620 -0.3244
13192W        W30039   9.513  13.772  11.748 -0.0380 -0.0611  0.3337
13193W        W30040   7.453   6.962   1.429 -0.2744 -0.3953  0.0359
13194W        W30041  13.658   5.845   1.975  0.0802 -0.1514  0.0347
13195W        W30042  15.843  14.012  14.421 -0.2417  0.2199  0.3378
13196W        W30043  11.338  14.060  14.453 -0.1981  0.3128 -0.1739
13197W        W30044  17.908  14.196   1.735 -0.3819  0.1278  0.3181
13198W        W30045  11.390   1.747  15.111  0.4495 -0.0857 -0.4256
13199W        W30046   5.295   9.285  13.706 -0.2144  0.0729  0.1281
13200W        W30047   9.117  14.618  15.542 -0.2305 -0.0855 -0.0078
13201W        W30048   9.364   8.793  10.909  0.0118 -0.1438 -0.0079
13202W        W30049  16.070  14.396  15.302 -0.0461  0.1506 -0.2175
13203W        W30050   9.476  12.894  12.053  0.1001  0.0748 -0.0261
13204W        W30051  11.978  12.135   2.345  0.1853 -0.0472 -0.0709
13205W        W30052   7.523   2.689   4.649  0.3197 -0.1744  0.1653
13206W        W30053  10.194   1.650   0.783 -0.1551 -0.0590 -0.2173
13207W        W30054  11.935  12.046  12.032 -0.0986 -0.0165 -0.0021
13208W        W30055   1.209   8.494   3.961 -0.2896  0.4586 -0.0452
13209W        W30056   9.639   9.628   2.724  0.1290 -0.0282 -0.0245
13210W        W30057  14.453  14.343  13.129  0.0834  0.3141  0.2312
13211W        W30058  14.132   6.736  15.550  0.1100 -0.1822 -0.1563
13212W        W30059   1.007   8.586  12.605 -0.0306 -0.2736  0.1571
13213W        W30060   8.740  18.311  14.123  0.3290  0.1917  0.0233
13214W        W30061  13.572   5.273  13.325  0.2144  0.1955 -0.3279
13215W        W30062   4.981   7.476  15.943  0.2387 -0.0684  0.0092
13216W        W30063  16.192  18.016   1.425  0.5094 -0.0510  0.1107
13217W        W30064  10.858  13.349   2.199 -0.2427 -0.1143 -0.1538
13218W        W30065  11.956   5.896  13.595  0.1393  0.1370  0.0491
13219W        W30066   4.079  11.696  13.874 -0.4565 -0.0820  0.0393
13220W        W30067   4.489   3.486  14.714  0.3212  0.0320 -0.1051
13221W        W30068   9.752   3.607   0.751 -0.0251 -0.0197 -0.1091
13222W        W30069   9.548   9.115  11.820 -0.0202 -0.0758 -0.0237
13223W        W30070  16.624  17.372   3.771 -0.0096 -0.1337 -0.1406
13224W        W30071   4.876  15.544   4.519  0.3685 -0.2157 -0.0254
13225W        W30072   8.008  13.088  14.528 -0.3059 -0.2765  0.0096
13226W        W30073  17.428   2.855   2.487 -0.1522  0.0801 -0.0178
13227W        W30074  11.894   6.915  11.154 -0.1013 -0.1624  0.0445
13228W        W30075   9.268   6.390   3.169  0.2062 -0.1897 -0.2703
13229W        W30076  14.067   9.575   0.725  0.0025  0.2231  0.1171
13230W        W30077  10.217  16.073   5.163  0.0456  0.2216  0.0463
13231W        W30078  18.386  17.485   2.259  0.0673  0.2835  0.0541
13232W        W30079   3.479   0.340  13.058 -0.1051  0.4950  0.2789
13233W        W30080   8.210  11.770  11.057  0.1781  0.2418 -0.2812
13234W        W30081  17.675   2.585  13.724 -0.4614  0.0979  0.4610
13235W        W30082   0.603  13.611   0.741  0.1743 -0.0213  0.3693
13236W        W30083  16.466  12.146  11.521 -0.0519 -0.0009  0.2266
13237W        W30084  17.680   8.075  12.820 -0.2597 -0.1687 -0.0804
13238W        W30085   1.394   8.861  12.830  0.1601 -0.2409 -0.0734
13239W        W30086   0.428  11.337  12.001  0.3427  0.0051  0.1350
13240W        W30087  11.117  18.127  11.212  0.0520 -0.0036 -0.3452
13241W        W30088   4.744  17.312  14.917 -0.0141  0.1825  0.0868
13242W        W30089   3.145   1.300   2.155  0.2529 -0.1858 -0.0880
13243W        W30090   0.892   0.942  14.576 -0.0657 -0.1636  0.1132
13244W        W30091  13.034   3.027   2.177  0.0906 -0.2858 -0.1081
13245W        W30092  18.488  10.982   2.793 -0.0298  0.1478 -0.0606
13246W        W30093  15.480  16.778  14.363  0.0234  0.4407  0.1070
13247W        W30094  18.373  14.683  11.271  0.0241 -0.0670  0.0039
13248W        W30095   6.260  10.778  12.414 -0.0722 -0.0266 -0.0322
13249W        W30096   9.132   2.235   1.204  0.2224 -0.2424  0.0655
13250W        W30097   9.276  10.289  12.887  0.0783 -0.1056  0.0917
13251W        W30098   8.867   4.730   3.791  0.2399  0.0579  0.0776
13252W        W30099   4.875  18.084  11.966 -0.0737  0.0489  0.0091
13253W        W30100  18.089   8.107  13.238 -0.2326 -0.0230 -0.0119
13254W        W30101   0.660  11.552   5.049 -0.0405 -0.1478 -0.5006
13255W        W30102   9.666  14.955  11.770 -0.0028 -0.2874  0.1151
13256W        W30103  16.671  14.298  12.234  0.0577  0.0695 -0.1968
13257W        W30104   9.754  15.208   0.116  0.0970  0.1502  0.3341
13258W        W30105   8.935  13.451  11.516  0.0649  0.2143 -0.2422
13259W        W30106   1.144   0.343  14.663  0.0718  0.1101  0.0908
13260W        W30107  10.700  14.610  15.341 -0.4821  0.3219  0.1043
13261W        W30108   5.142   4.429   0.978 -0.2613  0.2858  0.0552
13262W        W30109   6.862  17.492   9.614 -0.3603  0.3562  0.0642
13263W        W30110  16.143   0.318   2.601  0.1731  0.2479 -0.1018
13264W        W30111   2.352   3.307   2.635  0.1882 -0.1474 -0.2920
13265W        W30112   7.247   8.593  13.438  0.1025  0.0360  0.0801
13266W        W30113  18.284   5.748   1.124 -0.1737  0.0449 -0.0417
13267W        W30114  13.488   2.041  13.603 -0.1200  0.0132  0.0137
13268W        W30115  17.349   1.918   0.168  0.0081  0.0566  0.2321
13269W        W30116   8.645   3.142   2.965 -0.0867 -0.2964 -0.0945
13270W        W30117  12.305  10.092   1.029  0.2433  0.1946  0.0066
13271W        W30118  11.066  13.938  15.022 -0.0607 -0.5450 -0.1575
13272W        W30119   2.310  17.104   0.370 -0.1454 -0.0095  0.0899
13273W        W30120  11.264   7.212   0.279 -0.0549 -0.1434  0.4270
13274W        W30121  11.701   4.775  13.567 -0.0875 -0.3097  0.1058
13275W        W30122  13.315   4.823   4.268  0.0159  0.1677  0.2487
13276W        W30123  10.319   9.472   1.990 -0.3282 -0.1756  0.1258
13277W        W30124   9.988  12.333  15.594  0.1929  0.0628  0.2257
13278W        W30125  13.553   4.954  14.953  0.0832  0.2944 -0.0330
13279W        W30126   9.381  14.725  13.416  0.0593  0.2037  0.4177
13280W        W30127   9.078  14.143   0.927 -0.1208 -0.0198 -0.0165
13281W        W30128   9.796   9.600   1.310 -0.1630 -0.4245 -0.0290
13282W        W30129  13.407  12.578   6.287 -0.2798  0.2925  0.1520
13283W        W30130   8.491   3.393  13.205  0.3146  0.0736  0.1336
13284W        W30131   5.227  15.554   2.754 -0.4068  0.2905  0.0084
13285W        W30132  16.406  12.273  12.539  0.0877  0.0819  0.0564
13286W        W30133  14.832   7.743   1.757  0.2478 -0.2447 -0.0366
13287W        W30134   0.756  16.666  15.820 -0.0604 -0.1772  0.1033
13288W        W30135  16.420   4.660  15.426 -0.1583 -0.3206  0.0101
13289W        W30136  17.807   0.196  12.914  0.0787  0.1898 -0.0572
13290W        W30137  13.847  18.310   5.184 -0.0290  0.4875  0.0728
13291W        W30138   5.032  15.617   2.028  0.0221 -0.0755  0.1135
13292W        W30139  14.214   8.002   0.968  0.2060 -0.0520  0.2504
13293W        W30140   7.237  13.554  14.185  0.1923 -0.1193  0.1129
13294W        W30141   8.618  13.805   4.963 -0.3525 -0.0905 -0.0420
13295W        W30142   9.015  15.103   0.986  0.0207  0.0807  0.2179
13296W        W30143   7.230   2.616  14.284  0.1536 -0.2639 -0.1149
13297W        W30144  16.111  15.177  11.449  0.0621  0.1535  0.2636
13298W        W30145  13.124  17.518   0.068 -0.1300  0.3836  0.0329
13299W        W30146   4.920   1.994   2.865 -0.1398  0.2564 -0.0502
13300W        W30147   4.186  10.302   3.542  0.1497  0.3443  0.2520
13301W        W30148   1.335  11.726  13.415 -0.2429  0.1777  0.3436
13302W        W30149   2.561   9.173  14.427  0.1553 -0.1722 -0.0366
13303W        W30150   1.727   8.561  15.770  0.0530 -0.0030  0.0649
13304W        W30151  17.300  10.051  13.022 -0.1659 -0.1904  0.2378
13305W        W30152  10.924   2.511   1.292 -0.1337 -0.2540  0.0876
13306W        W30153  16.456   8.162  14.458 -0.0994 -0.1981  0.0794
13307W        W30154  10.931  13.673  11.817  0.4061  0.1603  0.0676
13308W        W30155   6.170  12.975  12.794 -0.1039 -0.1093  0.0809
13309W        W30156   7.585   9.176   4.523  0.0233 -0.0888  0.2295
13310W        W30157  12.693   0.973   4.317 -0.1150  0.0270 -0.1373
13311W        W30158  17.665  12.638  11.396 -0.1123 -0.3695  0.4853
13312W        W30159   8.340  18.353   2.325 -0.3239  0.0347 -0.3263
13313W        W30160  16.881  10.502  15.830  0.2249  0.2733 -0.4290
13314W        W30161  16.950   5.040   2.674 -0.0446 -0.2628  0.0694
13315W        W30162  10.112   7.965   9.945  0.1017  0.1755 -0.0670
13316W        W30163   2.270  17.197   0.901  0.1139 -0.1921  0.2868
13317W        W30164   4.407  15.560   4.698 -0.1009  0.2856 -0.0957
13318W        W30165   5.750   6.972   5.353 -0.0387 -0.0912 -0.3084
13319W        W30166  13.550  17.106  11.850  0.0342  0.0797 -0.0112
13320W        W30167  14.577   1.666  10.071  0.0416  0.3363 -0.0364
13321W        W30168   1.925  13.164  15.342 -0.0391  0.3867  0.5121
13322W        W30169  11.314  13.785  12.246  0.1252 -0.0821 -0.1406
13323W        W30170  16.980  16.379   0.307  0.0357 -0.2891 -0.3075
13324W        W30171   2.002   9.189  14.341 -0.0211  0.1478 -0.2639
13325W        W30172  15.335   7.091   2.231 -0.0716  0.0013  0.0675
13326W        W30173   2.623   4.554   2.504 -0.1269 -0.3583  0.2502
13327W        W30174  11.700  10.769   3.482  0.5425  0.2053  0.0208
13328W        W30175  12.483  14.285   2.982  0.0970  0.0524  0.1334
13329W        W30176  18.069   8.723   4.864 -0.0438 -0.2257 -0.0939
13330W        W30177  18.169   5.248  12.133  0.1213  0.2587  0.0722
13331W        W30178   3.453   7.771  13.099  0.0141 -0.1514 -0.0030
13332W        W30179   9.505   2.710  12.277  0.0852  0.0072 -0.1223
13333W        W30180   7.178  11.167  13.391  0.0355 -0.0304  0.0822
13334W        W30181  12.850   2.754  12.992  0.0048  0.1174  0.0718
13335W        W30182  10.503   0.802   4.754  0.0461 -0.0333  0.2235
13336W        W30183  14.989  11.357   4.319  0.2416  0.1251  0.0446
13337W        W30184   3.588   0.536  15.610 -0.1331 -0.2901 -0.0619
13338W        W30185  15.091   4.317   3.423  0.0365 -0.0199  0.0257
13339W        W30186  11.872  10.319  10.686  0.0073 -0.3448 -0.3042
13340W        W30187   4.592   2.856  11.762 -0.0822  0.2485  0.2016
13341W        W30188   3.423   4.680  13.960  0.0567  0.1641 -0.1951
13342W        W30189   7.226   7.102  15.696  0.0451  0.2040 -0.3155
13343W        W30190   4.844  12.854   5.926  0.0720 -0.0412 -0.3771
13344W        W30191   8.268   7.671   4.346 -0.0659 -0.2780  0.0454
13345W        W30192   2.512   6.216   1.833  0.3308 -0.1343 -0.0824
13346W        W30193  15.090  17.479   4.696 -0.1861 -0.2136 -0.3435
13347W        W30194   5.052   9.523   5.614  0.0915 -0.0374  0.3290
13348W        W30195  13.075  15.339  13.251 -0.0233 -0.2859  0.0505
13349W        W30196   2.637  10.854   3.368 -0.1264  0.0233  0.1217
13350W        W30197   5.724   8.272  13.061  0.1089  0.2936  0.0331
13351W        W30198   4.383   0.558  10.002 -0.0081  0.0735 -0.1373
13352W        W30199  15.372  10.436  15.169  0.5110  0.0693  0.2310
13353W        W30200   2.617  13.994  14.543 -0.1079  0.2573 -0.1860
13354W        W30201  17.572  10.259  13.467 -0.1092  0.1851  0.0900
13355W        W30202   0.730   3.639   3.839  0.1420  0.0301 -0.1436
13356W        W30203  10.401   4.584   2.363 -0.2692  0.0586  0.1144
13357W        W30204   5.516   8.793   2.982 -0.0112  0.0563  0.1123
13358W        W30205  14.283   1.447   4.173 -0.2282 -0.1698 -0.3808
13359W        W30206   8.814   5.606   0.811 -0.1428  0.2346 -0.1413
13360W        W30207   0.578  16.529  14.752  0.2272 -0.0928  0.0545
13361W        W30208   5.364  13.094  14.568 -0.1941 -0.0077 -0.0464
13362W        W30209  10.850   8.980   0.406 -0.1580  0.0894  0.0729
13363W        W30210   0.873  14.986   2.661 -0.1837  0.1398  0.0458
13364W        W30211   4.613   8.949   4.528  0.1598 -0.0953 -0.2321
13365W        W30212  13.410  15.681   0.167  0.1870 -0.0467 -0.4192
13366W        W30213   9.433   8.969  14.195 -0.1314  0.1963  0.1420
13367W        W30214  10.673   3.928  15.236  0.0335  0.0584 -0.4304
13368W        W30215  18.512  12.418   2.735 -0.1153 -0.0506 -0.0411
13369W        W30216  12.529   4.401   4.078 -0.1148  0.0337 -0.0214
13370W        W30217   6.533  18.529   5.038  0.1358  0.1037  0.1037
13371W        W30218   7.995  13.435   1.123  0.0613  0.3350  0.2865
13372W        W30219  17.297  17.970   0.692 -0.0501  0.4935  0.0515
13373W        W30220   5.967   3.006  11.430 -0.0076 -0.2039  0.1396
13374W        W30221   1.484   1.158   3.209 -0.3077  0.0202 -0.1858
13375W        W30222   6.681   8.350   2.016  0.0164  0.0902 -0.0972
13376W        W30223   9.186  11.593  15.029 -0.2635  0.2627 -0.0117
13377W        W30224   0.148   2.700  10.787  0.2482 -0.2143 -0.0731
13378W        W30225   2.639   8.374   0.136 -0.0591  0.1085 -0.0613
13379W        W30226   2.068  14.940   0.511 -0.0361 -0.1471  0.2401
13380W        W30227   7.446  15.556  13.088 -0.0016 -0.1470  0.3721
13381W        W30228  10.156  18.147  11.364  0.0313  0.2211  0.1934
13382W        W30229  13.412  16.762   1.863 -0.3041 -0.1853  0.1658
13383W        W30230   1.049  11.854  12.522 -0.0651  0.1765 -0.0179
13384W        W30231  17.943   5.230  15.068  0.2886  0.0548 -0.0002
13385W        W30232   3.707   7.711   2.515  0.2353  0.0555 -0.0836
13386W        W30233  14.725   5.592  12.040 -0.1204  0.1663 -0.0718
13387W        W30234   2.372  15.772   3.417 -0.0186  0.1110 -0.1457
13388W        W30235   4.779   8.464  12.342  0.0188  0.0366 -0.2101
13389W        W30236  13.417   8.655   2.998 -0.1723  0.0683  0.0345
13390W        W30237   3.507   6.232   4.644 -0.1755  0.0062  0.0273
13391W        W30238  12.365   4.776   2.092 -0.1159  0.0650  0.1854
13392W        W30239   8.447   4.228  11.766 -0.3109 -0.2891  0.1974
13393W        W30240  14.646   0.007   4.439  0.1237  0.0126  0.0797
13394W        W30241  14.781  15.173  14.199  0.1581  0.2730  0.4187
13395W        W30242  11.949   5.697  15.233 -0.0163  0.2065 -0.1253
13396W        W30243   1.477   0.983   4.467 -0.1955 -0.3849  0.3932
13397W        W30244  18.495  17.913  12.392  0.0727  0.0506  0.1300
13398W        W30245  16.885   0.800  13.971 -0.1322 -0.2848  0.1008
13399W        W30246   9.952  15.114   4.691 -0.0140  0.0969 -0.2034
13400W        W30247  13.400   6.303   2.986  0.0361 -0.2134 -0.1994
13401W        W30248  17.309  18.438  15.809  0.1050  0.0896  0.1238
13402W        W30249  16.213  11.758   4.794 -0.0371 -0.0022  0.4761
13403W        W30250   8.327  12.136   2.472  0.2559  0.3241 -0.0686
13404W        W30251   5.794   9.476   4.221  0.1276  0.1083 -0.0248
13405W        W30252   5.023  10.082  14.741 -0.1039 -0.1129 -0.2444
13406W        W30253   8.316   2.493   1.658 -0.0083  0.2717 -0.2443
13407W        W30254   9.345   6.208  14.381 -0.0435 -0.0740 -0.0690
13408W        W30255  18.417  11.246   3.538 -0.2574 -0.2098 -0.0901
13409W        W30256   4.327  10.920  15.696 -0.0171 -0.0098  0.0270
13410W        W30257   1.996   3.551  14.161  0.0711 -0.0715 -0.2105
13411W        W30258   6.479   8.084  15.736 -0.3045  0.1475 -0.0739
13412W        W30259  16.192   6.891  13.244  0.3193  0.2705  0.2199
13413W        W30260   7.164  14.324   4.937 -0.2920 -0.1813 -0.1028
13414W        W30261   5.599   0.431  11.107 -0.0558  0.2291 -0.4373
13415W        W30262  15.757  14.925   1.126  0.1476 -0.2859  0.2691
13416W        W30263   0.724   2.291  14.890 -0.2038 -0.0118 -0.3298
13417W        W30264  13.170  11.217   3.020  0.2762  0.0333 -0.0470
13418W        W30265  12.189   8.275  12.685  0.0988  0.1086 -0.0234
13419W        W30266   4.705  17.782  10.872  0.2133 -0.2012 -0.1219
13420W        W30267  12.486  13.020  15.275 -0.1971 -0.0531 -0.1587
13421W        W30268   3.313  17.816  13.888 -0.1832  0.1987  0.0695
13422W        W30269   6.781   0.545   0.438 -0.1358  0.2078  0.0586
13423W        W30270  12.363   6.429  15.324  0.2302 -0.2935 -0.0585
13424W        W30271  12.633  17.766   4.564  0.0277 -0.1847 -0.0017
13425W        W30272  14.697  13.096   3.473  0.4042 -0.0909  0.1504
13426W        W30273   5.028   8.457  13.704 -0.1629  0.1732 -0.0366
13427W        W30274  16.919   9.559  13.507 -0.1148 -0.1616 -0.4248
13428W        W30275   6.335  15.189   5.013  0.0035  0.0857  0.0178
13429W        W30276   4.817  17.332  15.598 -0.1791  0.1466 -0.1062
13430W        W30277   0.071   3.496  15.927  0.1125 -0.0384  0.1397
13431W        W30278   2.040  16.320  12.980 -0.1978  0.1675  0.0476
13432W        W30279   4.942  14.632  12.482  0.0071 -0.2957  0.3076
13433W        W30280   7.913  14.194  13.920  0.0794  0.1894  0.1528
13434W        W30281   4.461   5.008  11.158 -0.2233 -0.0241 -0.0541
13435W        W30282   0.799   3.736   2.385 -0.0875 -0.2129  0.1307
13436W        W30283  14.102  11.623  12.316 -0.0294 -0.0240 -0.1717
13437W        W30284   3.940  10.391   2.142  0.2105 -0.1365  0.2517
13438W        W30285   2.761   4.110   2.163 -0.1229  0.1220  0.1601
13439W        W30286   6.622  14.277  15.391  0.3061 -0.2460  0.0030
13440W        W30287  18.474  14.974   0.195  0.1722  0.1673  0.1488
13441W        W30288   5.309   2.524  10.761  0.0938  0.2771 -0.1863
13442W        W30289   2.263  10.300   0.224  0.1896  0.2674  0.0914
13443W        W30290  15.455  12.001   5.563 -0.1419  0.0320 -0.0541
13444W        W30291  17.494   1.822   5.096  0.1090  0.0518 -0.2436
13445W        W30292   6.959   4.234  11.585  0.1407  0.1722 -0.2340
13446W        W30293  11.327   1.655   4.590 -0.1723  0.0477  0.2727
13447W        W30294   0.422  18.067   1.939 -0.1186 -0.1252 -0.1509
13448W        W30295  17.238   6.496  12.620 -0.1867  0.1372  0.0719
13449W        W30296   2.011  16.805   1.179 -0.1138 -0.0107 -0.3048
13450W        W30297   8.353   6.538  14.621 -0.1306 -0.2576  0.0683
13451W        W30298  13.061   0.528   2.953  0.0239 -0.2980  0.1854
13452W        W30299  17.614   6.118  14.680 -0.0911  0.0523 -0.0843
13453W        W30300  15.326   8.489   1.383  0.2203  0.0780  0.1448
13454W        W30301   6.598   1.163   4.341 -0.0919 -0.0238 -0.0725
13455W        W30302  14.228   8.261   5.088  0.0675 -0.0527 -0.0653
13456W        W30303   2.940  15.676   3.381 -0.0698  0.1419  0.3784
13457W        W30304   9.594   2.660   4.655  0.0107 -0.3023  0.0547
13458W        W30305  12.225  11.251  14.537  0.1137  0.2606 -0.0178
13459W        W30306   9.304   0.638  11.794 -0.3979 -0.0767 -0.1709
13460W        W30307  11.317   7.452  14.643  0.0082 -0.0032 -0.1738
13461W        W30308  11.297  16.178   0.990  0.1178  0.3896 -0.0724
13462W        W30309  16.126  11.062  12.386 -0.2630  0.0503 -0.1733
13463W        W30310  14.036  10.284   1.520 -0.0244 -0.2357 -0.2712
13464W        W30311   8.377   7.727   3.788  0.1190  0.1254  0.0258
13465W        W30312  13.487   9.434  11.849 -0.2619  0.0407  0.1175
13466W        W30313  12.869   0.039  15.753  0.0568 -0.0587 -0.2252
13467W        W30314   1.444   5.479   4.634  0.0434  0.1930  0.3533
13468W        W30315   4.398  16.919   3.694  0.1978  0.2173  0.0657
13469W        W30316   8.692  18.190   2.781  0.2974  0.2057  0.2405
13470W        W30317  11.200   2.558   0.851  0.0634 -0.1336 -0.1269
13471W        W30318   1.028  13.040  14.142 -0.0718 -0.2535  0.0493
13472W        W30319   7.894  17.538   1.908  0.1422  0.1238  0.0117
13473W        W30320   4.099  13.083   4.612 -0.3197 -0.0325  0.2122
13474W        W30321   5.381  10.426   2.810  0.0587 -0.0368  0.0636
13475W        W30322  18.463   5.902   2.208  0.0976  0.1244  0.0472
13476W        W30323  16.108  11.795  13.500  0.0408 -0.0827 -0.1361
13477W        W30324   2.817  18.391  15.925 -0.0373  0.0699 -0.0070
13478W        W30325   0.466  16.354   2.417  0.0755 -0.1332 -0.0447
13479W        W30326   6.426   7.494   0.196 -0.0834 -0.0436  0.2026
13480W        W30327  15.680   2.754   2.390  0.2155  0.0026 -0.1603
13481W        W30328   1.525  12.413  14.008  0.0755  0.1167 -0.0847
13482W        W30329  13.615  13.309  13.733  0.0441  0.2159  0.1571
13483W        W30330   6.136   6.918  12.965 -0.1287  0.0439 -0.1839
13484W        W30331  18.156   1.609   0.776 -0.2069  0.1701  0.1885
13485W        W30332   5.384  12.056  14.145 -0.0437  0.2714  0.3433
13486W        W30333  16.392  11.086   4.169 -0.1267 -0.0005  0.1340
13487W        W30334   4.020   7.778   2.181 -0.2099 -0.0339 -0.0680
13488W        W30335  17.059   9.565  12.991 -0.4507  0.0452 -0.0454
13489W        W30336   1.279   9.847   4.792  0.3526  0.1403  0.0430
13490W        W30337   5.245  10.893  14.456 -0.0568 -0.1981 -0.0887
13491W        W30338  16.669  13.998   3.507 -0.1460 -0.0944  0.0108
13492W        W30339  16.225  17.022   0.388  0.3462  0.2004  0.1721
13493W        W30340  12.570   4.530  10.479 -0.2625 -0.3015  0.1388
13494W        W30341   5.543   3.858  14.592 -0.1069 -0.1848 -0.1203
13495W        W30342  14.494   8.698  14.665  0.0976 -0.3087 -0.1192
13496W        W30343  10.761  18.504  10.971  0.0991  0.2278  0.0511
13497W        W30344   1.359   9.868  13.937 -0.0088  0.0111 -0.2960
13498W        W30345   2.734  13.582   2.179 -0.2479 -0.2187  0.0173
13499W        W30346   5.085  16.552  10.036  0.1752  0.1804 -0.0385
13500W        W30347  11.991  17.345   2.203  0.3857 -0.1503 -0.0569
13501W        W30348   6.438   9.994  14.284  0.1035 -0.1335 -0.1575
13502W        W30349  18.431   0.049  12.837  0.1593 -0.1746 -0.2358
13503W        W30350  16.848  17.854   3.671 -0.1519  0.0959  0.1747
13504W        W30351  13.540  11.570  14.606  0.1284 -0.1547 -0.0436
13505W        W30352  18.106  13.242   2.462 -0.2297 -0.1236 -0.1484
13506W        W30353   6.156   1.640   3.142 -0.0040  0.1381 -0.0107
13507W        W30354   5.285   2.199   1.830 -0.1935  0.3661 -0.0223
13508W        W30355   0.147   9.203   0.116 -0.2531  0.0495 -0.3485
13509W        W30356  12.981   7.112  13.555  0.2166 -0.3528 -0.4101
13510W        W30357  10.820   1.858   1.823 -0.2709 -0.4238  0.0756
13511W        W30358  16.174  12.320   4.145 -0.1380 -0.1255 -0.0155
13512W        W30359  10.012  15.294  13.698 -0.0521  0.1887 -0.1121
13513W        W30360   9.609   0.339  12.093  0.1802 -0.2082  0.2782
13514W        W30361  14.079  15.357  13.104  0.2573  0.1579 -0.2286
13515W        W30362   4.557  14.957   2.396  0.0421  0.0040 -0.1070
13516W        W30363   9.373   2.578  15.687  0.5579 -0.0724 -0.0609
13517W        W30364  13.531   5.100  11.464  0.0860 -0.0390 -0.1579
13518W        W30365  12.666  11.037   1.279 -0.0180 -0.1251  0.2747
13519W        W30366  16.320   5.089   0.982 -0.0732  0.0257 -0.3830
13520W        W30367   1.314   7.345   0.661  0.0686  0.0466  0.0927
13521W        W30368  14.429  16.708   2.894  0.2148  0.1982  0.0600
13522W        W30369  12.206   7.467  15.119  0.1557  0.1221  0.3011
13523W        W30370  17.926  10.737   1.387  0.0329  0.0346  0.2293
13524W        W30371  16.745  11.312  13.681  0.0218 -0.0104  0.4964
13525W        W30372   1.010   1.741  15.274 -0.2243 -0.2965 -0.1699
13526W        W30373   9.854   8.987  14.459  0.3268 -0.1496 -0.1361
13527W        W30374   0.248  17.184  12.181  0.0762  0.0555  0.0313
13528W        W30375  15.475  12.260  13.895  0.2838 -0.0340 -0.1046
13529W        W30376  13.010  11.764  13.409 -0.2132  0.0826  0.1021
13530W        W30377  11.840  14.167  14.708  0.3237  0.0185  0.0976
13531W        W30378  13.949   2.159   1.080  0.5006 -0.0668  0.1132
13532W        W30379  15.356  16.043  15.157 -0.0003  0.0098  0.1040
13533W        W30380   5.622   8.213   1.852 -0.0249 -0.2240 -0.2013
13534W        W30381  16.561   2.038   3.819  0.0377 -0.3384 -0.1683
13535W        W30382  12.958  16.999  13.843 -0.1672  0.1549 -0.1012
13536W        W30383   4.334   3.436  15.258 -0.2413 -0.0606 -0.0129
13537W        W30384   7.391  11.935  12.674  0.1738 -0.1938  0.1172
13538W        W30385   6.658  15.520  14.920 -0.0015  0.0969  0.0804
13539W        W30386  12.642   0.871  15.904  0.3059 -0.0589 -0.3293
13540W        W30387  11.849  12.764  15.089 -0.1046  0.1330  0.1026
13541W        W30388   6.872   3.272   0.216 -0.1953 -0.1323 -0.2087
13542W        W30389   0.795   1.827  13.873  0.1671 -0.0239 -0.0501
13543W        W30390  18.500  17.099   0.005  0.0452  0.1156 -0.0442
13544W        W30391   0.096   6.097   5.732  0.0062  0.1032  0.3115
13545W        W30392   5.429   7.964  11.578 -0.2364 -0.1319 -0.0226
13546W        W30393   8.841   2.866   1.756  0.0408  0.1192 -0.0811
13547W        W30394   5.387   5.788  12.902  0.0806  0.0641  0.0283
13548W        W30395   9.751   8.477   4.036 -0.0052  0.0741  0.2586
13549W        W30396  12.852   0.605   4.725  0.0399  0.1846  0.1932
13550W        W30397  15.319   4.382  15.920  0.3937 -0.1101 -0.1769
13551W        W30398  15.305   0.868   5.304  0.0797  0.0564 -0.1430
13552W        W30399   9.170   3.704  15.060  0.3212 -0.2152  0.1204
13553W        W30400   3.875   3.424  14.287  0.0197 -0.2334  0.0408
13554W        W30401  17.949   8.224   1.411  0.0155  0.2602  0.1426
13555W        W30402   3.077   8.590  14.778 -0.0164 -0.0479  0.0988
13556W        W30403   6.846   3.692  15.187  0.2249 -0.0263  0.0071
13557W        W30404   3.493   9.636  12.032 -0.3727  0.0615  0.1936
13558W        W30405   8.439   0.260   5.172 -0.0773  0.1012 -0.1313
13559W        W30406   1.307   1.983   5.220  0.0817 -0.0151  0.0173
13560W        W30407   4.896   9.583   1.771  0.0294 -0.3156  0.1408
13561W        W30408   4.683   8.047   4.448 -0.0292 -0.2035 -0.1242
13562W        W30409   5.396  10.937  11.849 -0.1106  0.1382  0.2715
13563W        W30410  10.498  17.760  11.325  0.2641 -0.0290 -0.3415
13564W        W30411   5.484   2.653  15.636 -0.2592  0.1706 -0.0554
13565W        W30412  13.671  16.609   0.202  0.0696  0.0064 -0.3009
13566W        W30413  12.487  11.423   0.813 -0.0147  0.0327 -0.0607
13567W        W30414   4.182   9.342   2.057 -0.2554  0.3085  0.2325
13568W        W30415   8.552  18.325  13.379  0.0603 -0.0942  0.1605
13569W        W30416  10.423  15.952   3.739  0.1352  0.1034 -0.0475
13570W        W30417   2.741  16.624   1.803 -0.0233 -0.1563 -0.2199
13571W        W30418  11.097   9.221   1.002  0.0323 -0.1568  0.0621
13572W        W30419  16.016  14.024   2.764  0.0123  0.0116  0.0508
13573W        W30420   4.660   4.028   1.092 -0.2751 -0.0981 -0.0308
13574W        W30421  14.589   6.498  13.196 -0.1523 -0.1217 -0.1638
13575W        W30422  18.177  17.723  12.866 -0.0982 -0.2693 -0.1114
13576W        W30423   8.692  18.380   0.576 -0.0002 -0.0917  0.1239
13577W        W30424   0.503  16.396   4.705  0.0536 -0.1153  0.0702
13578W        W30425  16.542  11.578   3.527  0.1024  0.2918 -0.0366
13579W        W30426   1.740  12.432   0.189  0.1508  0.0368 -0.0662
13580W        W30427  14.598   8.629   2.210  0.0284  0.0729 -0.0486
13581W        W30428  10.602  10.492  13.887  0.1025  0.1361  0.0348
13582W        W30429  17.924  13.087   3.810  0.1245 -0.1921  0.1299
13583W        W30430  17.187  14.298   1.217  0.0525  0.0436  0.1794
13584W        W30431  12.672  18.025  15.525 -0.1798  0.0489 -0.2200
13585W        W30432   6.342  15.675   1.061  0.3468  0.1354 -0.2016
13586W        W30433   7.918   4.472  15.658  0.0124  0.1309  0.2826
13587W        W30434   3.659   0.403   2.196  0.1819 -0.0121  0.2247
13588W        W30435   1.254  12.414   4.104  0.1781 -0.3169 -0.4593
13589W        W30436   7.105   8.276   6.141  0.0212  0.0776 -0.0336
13590W        W30437  15.402   8.921   2.361 -0.1475  0.2821 -0.0482
13591W        W30438   9.061  17.636   1.104  0.2323 -0.2716  0.1096
13592W        W30439   0.226   8.201  12.421 -0.0365 -0.1981 -0.1808
13593W        W30440   8.417  15.478   5.083  0.0140 -0.1395  0.0099
13594W        W30441   2.307  14.700   0.928 -0.0217  0.0906 -0.1074
13595W        W30442  13.415   1.121  14.251 -0.1243  0.0718  0.1430
13596W        W30443   7.854   7.365  12.812  0.1203  0.1244 -0.2861
13597W        W30444   3.440   7.872  14.683 -0.3854 -0.0175  0.2784
13598W        W30445   1.300   9.308   4.779 -0.0106 -0.0142  0.0401
13599W        W30446   3.962   9.041   4.000  0.0970  0.1522  0.0919
13600W        W30447   8.435  13.648  13.068  0.5055 -0.1110 -0.0713
13601W        W30448  10.054   5.157   3.719  0.0395 -0.1344  0.1076
13602W        W30449   7.165   0.532   4.914 -0.0311 -0.0429  0.0369
13603W        W30450   0.255   6.810   4.872  0.2760 -0.0020 -0.0958
13604W        W30451   3.928   7.738  13.479  0.0311  0.1726 -0.0350
13605W        W30452   4.554  14.326  13.369  0.0857  0.2541  0.1336
13606W        W30453   9.772  10.800   2.769 -0.1349  0.1801 -0.0056
13607W        W30454   2.617  10.837   2.359 -0.0970 -0.1666 -0.0087
13608W        W30455  15.614   6.065  11.787  0.1232  0.1281  0.0182
13609W        W30456   4.718  13.823  15.546  0.1664 -0.1670 -0.1682
13610W        W30457  10.690   2.971  13.124 -0.1686 -0.0064  0.2807
13611W        W30458   0.975   2.852   4.504 -0.0534  0.1696 -0.0954
13612W        W30459  11.531  10.702  14.831 -0.0676  0.1550 -0.0654
13613W        W30460   3.009   7.023  15.214 -0.0722 -0.3908 -0.2843
13614W        W30461   7.555   0.867   2.697 -0.0601 -0.1100  0.2397
13615W        W30462   3.217   1.651  12.853  0.0193 -0.2919 -0.0756
13616W        W30463  10.761   1.481  11.385  0.2355 -0.2825  0.0666
13617W        W30464  14.568  14.910  11.686 -0.1606  0.1136 -0.0748
13618W        W30465  17.251   4.722  12.189  0.0237  0.2212  0.0710
13619W        W30466  11.229  12.005   1.511 -0.0741  0.0463  0.0651
13620W        W30467  10.150  12.685   1.906  0.1387  0.1338  0.0887
13621W        W30468   3.211   5.820   0.014  0.0678 -0.0062 -0.1477
13622W        W30469  17.882  14.587  12.261 -0.3659 -0.0621 -0.2643
13623W        W30470   7.843   0.407   4.166 -0.0833 -0.2480  0.1968
13624W        W30471   7.407   0.959  14.282  0.1610  0.2693 -0.0592
13625W        W30472   2.892  12.479  15.746  0.1486 -0.1195 -0.0673
13626W        W30473  15.397  13.770  15.739 -0.0651 -0.0644 -0.1234
13627W        W30474   1.669  17.278  12.872 -0.0468 -0.0384 -0.0218
13628W        W30475   9.128  17.062   1.191  0.1675  0.1175 -0.4945
13629W        W30476   8.692   7.111  15.404 -0.3425  0.4188  0.0904
13630W        W30477   2.557  15.663   3.946 -0.2106 -0.1031  0.0997
13631W        W30478   5.803  11.316   0.924 -0.0029  0.0687  0.0606
13632W        W30479   8.885  11.975  14.637  0.2304 -0.0335  0.2462
13633W        W30480  10.452   3.151   4.480  0.0681  0.0905  0.1525
13634W        W30481   4.531   8.831  12.140  0.1644 -0.4480  0.1510
13635W        W30482  16.019  12.424   0.726  0.2570 -0.2220 -0.1254
13636W        W30483   6.132  15.396  11.651  0.4146 -0.2165 -0.0619
13637W        W30484  11.789  11.826  14.972 -0.2457  0.0652  0.3979
13638W        W30485  14.041  13.675  14.861 -0.1264  0.0817  0.0639
13639W        W30486   6.884  13.360   5.739 -0.0840 -0.1044  0.2483
13640W        W30487  18.283  13.073   3.459 -0.1058 -0.0897  0.1912
13641W        W30488   2.390   3.450  12.839 -0.2866 -0.0904  0.1019
13642W        W30489   5.110   3.386  11.223  0.5778  0.0456  0.3149
13643W        W30490   0.693   6.156   0.080 -0.1406  0.0033  0.0752
13644W        W30491   4.506  10.916   3.739  0.0863 -0.0411 -0.0606
13645W        W30492  18.539   0.065  15.297  0.1752  0.1882 -0.1476
13646W        W30493   8.183   8.589   4.884 -0.0474 -0.1573 -0.0583
13647W        W30494  10.611   2.958  14.051 -0.1670 -0.0586 -0.0908
13648W        W30495   2.652   5.763   0.042  0.0886 -0.1044  0.1878
13649W        W30496   2.527  15.467   1.139 -0.1105  0.0864 -0.4973
13650W        W30497   5.610  10.224  15.538  0.1073  0.2667 -0.5061
13651W        W30498   4.064  12.366   0.295  0.2829 -0.0543 -0.3020
13652W        W30499   3.234  11.795  12.851 -0.1179 -0.3042 -0.1078
13653W        W30500  14.138   0.837  12.395  0.2391  0.0017 -0.2079
13654W        W30501   1.353  17.382  13.210  0.1913  0.1457 -0.0634
13655W        W30502  14.669  10.974   5.078  0.1148  0.3330 -0.0577
13656W        W30503  18.291   4.840   0.920 -0.0966  0.0830  0.0269
13657W        W30504  10.562  11.540  13.216  0.2200 -0.0279  0.1453
13658W        W30505   9.883  14.694   3.268 -0.0020 -0.0685  0.0504
13659W        W30506   1.526  17.690   0.643 -0.1772 -0.1113 -0.4731
13660W        W30507  16.542   3.901  15.213 -0.0235 -0.0418 -0.1309
13661W        W30508   4.839   3.853  15.800  0.0152 -0.1922  0.1269
13662W        W30509  12.174  18.341  13.612  0.0833 -0.1551  0.0067
13663W        W30510  15.024   1.242  12.089  0.3172 -0.0902 -0.2036
13664W        W30511  11.498   7.011  11.511 -0.2825 -0.0221  0.0414
13665W        W30512  13.129   2.317  12.368  0.1205 -0.0447 -0.2525
13666W        W30513   0.824  14.125  14.607  0.2236 -0.1998 -0.0303
13667W        W30514   5.615   5.655   1.547  0.0129  0.0760 -0.0685
13668W        W30515  12.537  17.435  12.602  0.0420  0.1763 -0.0205
13669W        W30516  15.040   0.608  11.925  0.0526  0.1283 -0.0449
13670W        W30517   5.701   0.280   5.570  0.0226 -0.0422  0.1070
13671W        W30518   7.226  16.201   2.003 -0.1762  0.3889  0.0801
13672W        W30519   0.268   9.602   4.727  0.0176  0.0843 -0.3009
13673W        W30520   0.646   7.295   2.303  0.1165 -0.1003  0.2030
13674W        W30521   7.845  15.803   4.288  0.0779  0.1129  0.2126
13675W        W30522  14.152  16.402   1.886  0.2471  0.4227 -0.2739
13676W        W30523  15.313   1.559   4.159  0.1305  0.0052 -0.1020
13677W        W30524  16.613   4.893  14.874  0.0581 -0.5420  0.0896
13678W        W30525  16.986  11.046   4.932 -0.2498  0.0184  0.0372
13679W        W30526  17.455  13.008   3.565  0.0732  0.1120 -0.1173
13680W        W30527   2.544  16.326   4.493  0.3147  0.2093  0.2329
13681W        W30528  12.096   6.157   1.625 -0.0881  0.2672  0.0330
13682W        W30529   2.856  14.819   3.064 -0.1994 -0.2436  0.2089
13683W        W30530  18.437  14.442   4.663 -0.0659  0.3599 -0.2378
13684W        W30531  14.887  10.869   3.125 -0.1230 -0.0817  0.2026
13685W        W30532  10.946   2.642  12.209  0.4130  0.0186 -0.0429
13686W        W30533   8.569  13.478  15.101  0.1678 -0.0376 -0.1461
13687W        W30534   0.250   6.384  13.423 -0.3313  0.2990 -0.0677
13688W        W30535   0.773   4.208   5.085  0.0560  0.2157  0.3067
13689W        W30536  16.389   7.147   4.422 -0.0774 -0.0888  0.0556
13690W        W30537   4.875  13.077  12.177  0.1892  0.0454 -0.0636
13691W        W30538  13.277   8.319   4.713  0.3383 -0.0135 -0.0247
13692W        W30539  13.742  12.992  14.522 -0.0319  0.0849 -0.0857
13693W        W30540  15.588  16.051   4.461  0.0081 -0.4032 -0.0444
13694W        W30541  12.868  13.581  12.427 -0.0968 -0.1014  0.1648
13695W        W30542  17.331   7.499   2.308 -0.1276  0.0776 -0.1313
13696W        W30543  18.041   5.359   0.867  0.0565  0.0537  0.1397
13697W        W30544  11.815  11.865  13.384 -0.4206 -0.2021  0.0295
13698W        W30545  13.727   9.848  14.331 -0.5207  0.1487  0.0867
13699W        W30546  15.979  14.496  10.260  0.1143 -0.1491  0.1310
13700W        W30547  10.977  15.693  14.859 -0.1560  0.0298  0.0488
13701W        W30548  15.512   0.699  15.506  0.2693  0.1347 -0.1395
13702W        W30549  10.320   6.283   5.536  0.2110  0.1038  0.0318
13703W        W30550   7.259  16.369   4.723  0.1059 -0.0304 -0.3545
13704W        W30551   7.186  10.287   1.322  0.1633  0.1440 -0.2433
13705W        W30552   9.629   0.891  11.516  0.3419  0.2821  0.1733
13706W        W30553   7.286   1.647  13.789  0.1395  0.0094  0.0117
13707W        W30554   5.625   2.403  14.700  0.0152 -0.0656 -0.1407
13708W        W30555  10.991   9.358  12.063  0.4347 -0.0727  0.0171
13709W        W30556   7.970  18.273   3.950  0.0961  0.0417 -0.3344
13710W        W30557   2.519   8.989  15.756  0.2782 -0.4203 -0.3851
13711W        W30558  10.899   5.554  15.877 -0.1568  0.2832 -0.1950
13712W        W30559   3.584   6.568   2.853 -0.0863  0.2162  0.1760
13713W        W30560  17.670   8.041  11.198 -0.4647 -0.2775  0.2529
13714W        W30561   1.787  11.766   1.545 -0.4790  0.2869  0.0655
13715W        W30562  15.230   3.072   5.539 -0.2947 -0.1626  0.1516
13716W        W30563   9.352   4.384   2.257 -0.0218  0.0693  0.0465
13717W        W30564  10.780  12.810   0.013  0.0481  0.1068  0.2337
13718W        W30565   9.308   0.742  14.801 -0.1520 -0.0465 -0.1704
13719W        W30566   7.714  14.735   1.578  0.2086 -0.0204 -0.0872
13720W        W30567   0.150  13.212   0.003  0.0073  0.0050 -0.1307
13721W        W30568  16.971  11.536  11.898 -0.1323  0.4533 -0.0840
13722W        W30569   7.219  10.838   2.690  0.0238 -0.0385  0.0693
13723W        W30570  17.072   1.284  12.069 -0.1246 -0.1880  0.0749
13724W        W30571  14.040   0.773   4.209 -0.1015  0.1458  0.2095
13725W        W30572  12.378  14.658   5.599  0.0439  0.3664  0.2273
13726W        W30573   7.489  13.677   5.161  0.0165 -0.0020 -0.2189
13727W        W30574  10.278   3.734  15.436  0.3445 -0.2179  0.1762
13728W        W30575  15.669   7.627   3.607  0.0159 -0.2582 -0.0977
13729W        W30576  14.540   2.273   4.971  0.0704  0.0087  0.1303
13730W        W30577   4.172  18.219   2.824 -0.1678 -0.2113  0.1336
13731W        W30578  10.318  11.600  11.210 -0.2581 -0.1293  0.2081
13732W        W30579   0.579  18.008   1.493  0.0254 -0.0315 -0.1409
13733W        W30580   3.317  13.280   1.450  0.0685 -0.1154  0.2317
13734W        W30581  13.973   5.548  10.936 -0.1356  0.1382 -0.0528
13735W        W30582   7.147  15.645   0.065 -0.3525 -0.0990 -0.1887
13736W        W30583  15.272  11.864  13.256 -0.0289 -0.1302 -0.0842
13737W        W30584  17.611   8.670   1.228 -0.1990  0.1211  0.0563
13738W        W30585  10.041   2.547   0.875  0.1551 -0.1791  0.0540
13739W        W30586   8.744  14.348  13.986  0.0278  0.0503 -0.3618
13740W        W30587   4.707   9.739  14.353  0.3297  0.0542  0.0271
13741W        W30588   6.492  15.225   4.110 -0.1773  0.0463  0.4141
13742W        W30589  14.239   9.934  12.542  0.1017 -0.1055  0.1155
13743W        W30590  11.763   3.455  14.566  0.1679 -0.0754  0.0100
13744W        W30591   7.890   8.534  15.420  0.0717 -0.0031  0.1152
13745W        W30592  17.193  16.665   4.673  0.2736 -0.0275  0.0685
13746W        W30593   7.770   8.757   0.406 -0.0642  0.1177 -0.0883
13747W        W30594   7.799  10.086  12.661 -0.4494 -0.1696 -0.2228
13748W        W30595   1.118   2.515  15.697 -0.2201  0.0272 -0.0230
13749W        W30596   9.384  11.717  14.438  0.2261 -0.0820  0.0002
13750W        W30597  17.005  12.358   2.966  0.1036  0.3458  0.1624
13751W        W30598  12.324  17.526  13.471 -0.0286  0.1163  0.2246
13752W        W30599   6.058   6.350  12.506  0.0974  0.0835  0.1604
13753W        W30600  15.472  16.409  13.352 -0.0861  0.2266 -0.1022
13754W        W30601   4.807   9.288   0.989 -0.1387  0.0257 -0.1432
13755W        W30602   7.302   0.342   0.551 -0.1390  0.1683 -0.1691
13756W        W30603  18.082  12.498   2.007 -0.0459 -0.0951  0.0687
13757W        W30604   1.801  11.455  14.339  0.1792  0.1766  0.2654
13758W        W30605   7.263  11.033  14.970  0.0538  0.3830  0.3401
13759W        W30606  11.601  13.086  14.705  0.0082 -0.0709 -0.3483
13760W        W30607  13.986   5.254  14.809  0.5134 -0.1462 -0.3382
13761W        W30608  11.563  18.437   0.269  0.2005  0.2510  0.2148
13762W        W30609  18.059  13.872   0.181 -0.0875 -0.1506 -0.3148
13763W        W30610   9.802  16.648   5.611  0.1631 -0.0810 -0.2101
13764W        W30611   8.808  13.604  12.757 -0.3668  0.1648 -0.1448
13765W        W30612  18.511  15.490   0.139 -0.0948  0.0106 -0.0465
13766W        W30613   5.569   1.276   2.031 -0.0104 -0.1357  0.1230
13767W        W30614   1.698  16.715  14.561 -0.1545  0.0398  0.1002
13768W        W30615   3.707   8.034   3.362 -0.2200  0.0334  0.0680
13769W        W30616   6.219   7.195  12.552  0.3577 -0.3039  0.0646
13770W        W30617   7.817  10.453  11.965 -0.0297 -0.1134  0.1884
13771W        W30618  15.652   5.075   3.687  0.1952 -0.0633 -0.0645
13772W        W30619   4.443  12.068  14.463  0.0412 -0.2048 -0.1277
13773W        W30620   0.499   4.329  12.992  0.4054 -0.0496 -0.0376
13774W        W30621   3.423  11.097   4.823  0.3244  0.1157 -0.1112
13775W        W30622  16.481   4.088   4.261  0.2824  0.0589 -0.3082
13776W        W30623   3.910  11.388   3.131 -0.1162 -0.1957 -0.0205
13777W        W30624   8.079   0.770   3.711  0.0185 -0.0990 -0.0193
13778W        W30625  16.478  13.423  14.420  0.0450 -0.2562  0.1105
13779W        W30626  12.145   3.218   4.232  0.0397  0.1349 -0.1960
13780W        W30627   0.310  17.169   1.646 -0.2608 -0.0347  0.4296
13781W        W30628  10.916   7.715  13.027  0.0683  0.2733 -0.1480
13782W        W30629   6.343  11.596   1.899  0.2516  0.0274 -0.2209
13783W        W30630  10.661  16.405   3.587  0.1488  0.4102 -0.0263
13784W        W30631   8.545   2.109  15.401 -0.1950  0.2222 -0.2456
13785W        W30632  12.403   5.371  12.545 -0.3540 -0.0412  0.1328
13786W        W30633  10.780  12.625   1.932  0.0898  0.3728  0.0145
13787W        W30634  10.389  11.566  12.361  0.0194 -0.0883  0.6184
13788W        W30635  16.064   1.378   2.979 -0.2054 -0.1449 -0.3919
13789W        W30636   2.530   5.506  12.109  0.0334 -0.0909 -0.0277
13790W        W30637  11.009   2.659   3.617 -0.0861 -0.2039 -0.0277
13791W        W30638   5.918  11.244   4.522 -0.1754 -0.0018  0.1704
13792W        W30639   1.683   2.108   0.163  0.0986  0.1830  0.1458
13793W        W30640   2.331   3.426  15.120 -0.2684 -0.0880 -0.2363
13794W        W30641   9.185   4.153  15.283  0.1696  0.0602 -0.1532
13795W        W30642   0.332  10.686  15.351 -0.1250 -0.2095  0.2377
13796W        W30643  10.384   0.724   1.527  0.2320  0.0759  0.1127
13797W        W30644   9.909   6.428   5.212 -0.0351 -0.0998 -0.2489
13798W        W30645   3.962   1.273  11.991 -0.3634  0.0512 -0.1733
13799W        W30646  12.781   5.156  12.851  0.0091  0.2266 -0.2421
13800W        W30647  11.287   7.620   1.802  0.2166  0.0701 -0.0557
13801W        W30648  12.145   7.812  11.601 -0.0675  0.2012  0.0592
13802W        W30649   3.882  17.475   4.827  0.0364  0.0975  0.0683
13803W        W30650   2.222   1.957  11.634 -0.0842  0.0974  0.0859
13804W        W30651   8.826  12.330   2.193 -0.3100 -0.2007  0.1006
13805W        W30652  17.476   6.204  12.929  0.2966  0.2775 -0.2945
13806W        W30653  18.296   1.714  15.935  0.0441  0.1018  0.0788
13807W        W30654   8.401   8.186   4.045  0.0191  0.0760 -0.0228
13808W        W30655   0.722   6.697  13.668 -0.1474  0.3940  0.3102
13809W        W30656  11.253  13.288  12.108 -0.0867  0.2081  0.1051
13810W        W30657   6.745  13.670   2.242 -0.3565 -0.5893  0.0462
13811W        W30658   2.942   8.100   2.540  0.2355  0.1398  0.0408
13812W        W30659  14.432   3.970   0.491  0.0047 -0.2691 -0.2462
13813W        W30660  13.185   2.299  14.752  0.2245 -0.0900  0.0558
13814W        W30661   4.873  16.817   2.609  0.1250  0.0700  0.2025
13815W        W30662   0.618  11.842  12.281 -0.0117 -0.1432  0.1893
13816W        W30663  11.486  16.852  13.468 -0.1175  0.1906  0.0984
13817W        W30664  12.909   3.800   2.853  0.0638  0.1153  0.2692
13818W        W30665   9.955  14.026   5.432  0.0866  0.1987  0.0926
13819W        W30666  17.060   2.288  15.414  0.2662  0.1953 -0.1542
13820W        W30667   0.898   3.340  15.625  0.1609  0.0535 -0.0566
13821W        W30668   4.728   7.188   0.988 -0.0479 -0.0670  0.1444
13822W        W30669  10.568  17.830  10.066 -0.0993  0.0273  0.0888
13823W        W30670   8.988   1.689  15.491 -0.2712 -0.0173 -0.1209
13824W        W30671   4.268   0.022   4.645 -0.2741 -0.1043 -0.3681
13825W        W30672  13.147  17.006  14.919 -0.1208 -0.0560 -0.1041
13826W        W30673  13.017   9.885   0.345 -0.0241  0.1196  0.1975
13827W        W30674   7.332  18.211   0.810 -0.2126  0.1030  0.0840
13828W        W30675   3.307   8.333   5.882  0.0718 -0.0564 -0.1354
13829W        W30676   8.989   2.041  11.926  0.0356 -0.1662 -0.2983
13830W        W30677   7.702   2.746   1.217 -0.1074  0.5352  0.1432
13831W        W30678   5.498   0.172   4.945 -0.0500 -0.0347 -0.1179
13832W        W30679   8.939  15.692  14.449  0.0272 -0.2283  0.2975
13833W        W30680   6.772  14.645   2.506  0.0433 -0.2500  0.2862
13834W        W30681   4.014   6.758   2.373 -0.1552  0.3898  0.1215
13835W        W30682   3.629   4.151  11.775  0.1463 -0.2921  0.0581
13836W        W30683  13.360  17.311  13.872 -0.5729  0.2048  0.1121
13837W        W30684  15.469  12.019   4.086  0.0918 -0.2468 -0.2271
13838W        W30685   3.795   6.625   0.963  0.2378 -0.1472  0.1144
13839W        W30686  18.066   8.932  13.841  0.1273  0.0109 -0.1356
13840W        W30687   2.654  13.921   0.928  0.2036  0.3318  0.0048
13841W        W30688  17.860   1.566   5.379 -0.0521 -0.0319  0.2673
13842W        W30689   1.991  13.479   1.727  0.0659 -0.0249 -0.0639
13843W        W30690   3.988   2.833  11.984 -0.1029 -0.1920  0.0371
13844W        W30691  10.961   8.522  12.605  0.0202 -0.0332  0.0913
13845W        W30692   1.424   9.596   4.386  0.0448  0.1690 -0.1502
13846W        W30693  12.586   9.421  11.242 -0.1758 -0.0343  0.0332
13847W        W30694   1.614  15.346   0.927 -0.0537  0.0914 -0.1832
13848W        W30695   2.478  15.934   0.808  0.1052 -0.0841 -0.3124
13849W        W30696   1.739  11.903   1.051  0.3154 -0.0543 -0.0197
13850W        W30697   0.339   3.107   2.379 -0.0566 -0.3436  0.3995
13851W        W30698   2.710   3.098  11.461  0.1810 -0.0550  0.1597
13852W        W30699  13.384   9.092   0.199  0.2435 -0.0737 -0.2132
13853W        W30700   0.445  10.244   0.886  0.1692  0.1507  0.0165
13854W        W30701   1.625  15.951  14.404 -0.4044  0.4038  0.0638
13855W        W30702   9.963  12.834  14.342 -0.0522 -0.0222 -0.1124
13856W        W30703  17.509   2.321   1.073 -0.2545 -0.0859  0.0118
13857W        W30704   1.059   3.677  13.706 -0.0895 -0.0286 -0.2645
13858W        W30705  18.241   1.734  12.639 -0.0637 -0.0712 -0.2087
13859W        W30706   6.065   4.979  12.304  0.0679  0.1278 -0.1735
13860W        W30707  18.224  13.475  13.476 -0.0821  0.3937 -0.0814
13861W        W30708   8.109   4.106  14.449 -0.0679 -0.1615 -0.2008
13862W        W30709   0.673   9.356  14.300 -0.0067  0.1355  0.0091
13863W        W30710  16.566   6.994  15.186 -0.0491 -0.1519 -0.3010
13864W        W30711   4.341   1.119  13.474 -0.1809  0.0126  0.0770
13865W        W30712   7.101  18.533  13.854 -0.2157  0.1265  0.0394
13866W        W30713   8.855   2.823   3.836  0.1411 -0.3204 -0.2531
13867W        W30714  10.573  15.782   1.684  0.2452  0.2202 -0.0267
13868W        W30715  12.417  17.677   2.208  0.2519  0.0090  0.2354
13869W        W30716  12.280  17.270   0.535  0.1343 -0.1679 -0.1235
13870W        W30717  12.163   2.157   2.542 -0.0176  0.2702 -0.1012
13871W        W30718   6.182  16.916  14.545  0.0011  0.0894 -0.3841
13872W        W30719  12.255   9.943   2.626  0.1362 -0.0374  0.1062
13873W        W30720   1.546  16.716  15.155  0.2261  0.3788 -0.0804
13874W        W30721  15.438   1.821  14.250 -0.0709 -0.0985  0.1240
13875W        W30722  15.205   9.268   4.160  0.1298 -0.2912 -0.0179
13876W        W30723   1.883   2.595   0.374 -0.0581 -0.0078 -0.0298
13877W        W30724  12.079   0.063  15.701 -0.1166 -0.1274 -0.0832
13878W        W30725   8.004   9.576   0.583 -0.0807  0.0861  0.1167
13879W        W30726  12.595   1.797   1.495 -0.1994 -0.3289  0.1514
13880W        W30727   1.086  11.405   1.263 -0.1467  0.1843 -0.0994
13881W        W30728   6.789   7.814   0.172  0.1916 -0.0852  0.2101
13882W        W30729   2.063   9.085   3.132  0.0112 -0.2748 -0.1553
13883W        W30730   8.192  14.088  13.096 -0.1269  0.1753 -0.0837
13884W        W30731   7.814   1.087   4.778 -0.0318  0.1420  0.0285
13885W        W30732   0.999   0.634   0.640 -0.1042  0.1729  0.0697
13886W        W30733  17.708   9.994  12.459 -0.0520 -0.1604  0.3326
13887W        W30734   8.574   4.191  12.767 -0.1378 -0.1773 -0.0468
13888W        W30735  13.791   9.935  12.336  0.2178 -0.1955  0.3917
13889W        W30736   0.816  12.148  11.047  0.0711 -0.3160 -0.1889
13890W        W30737  16.890  17.412  14.242 -0.0580  0.4538  0.1649
13891W        W30738   0.987   1.658   1.799  0.0509 -0.0031  0.0888
13892W        W30739  11.481   5.551  11.992 -0.0198  0.0745  0.3541
13893W        W30740  12.524   8.568   3.750 -0.2926 -0.1612  0.2289
13894W        W30741   1.387   7.734  14.349  0.1782  0.1360 -0.1477
13895W        W30742  14.450  16.934   1.029  0.0349  0.0762  0.0991
13896W        W30743  14.950   3.015  15.926  0.3490 -0.0239 -0.1765
13897W        W30744   2.914   6.666   3.616 -0.1358  0.0392  0.1955
13898W        W30745   7.967   3.014   3.339  0.0911 -0.0015  0.3703
13899W        W30746  10.518  10.075   1.844  0.0850  0.1890 -0.1559
13900W        W30747   6.344   8.241   3.506  0.0154  0.2490  0.1909
13901W        W30748  17.683  11.024  12.024 -0.0611  0.0785  0.3373
13902W        W30749  14.173  11.085  15.874 -0.2224 -0.0638  0.2397
13903W        W30750   1.869  12.969   5.748  0.2115 -0.0291  0.1077
13904W        W30751   5.183   1.239  13.400  0.0570  0.1718 -0.0300
13905W        W30752  10.696   5.282  14.632 -0.1350 -0.0622  0.2683
13906W        W30753  13.326  10.345   1.519 -0.1599  0.1874 -0.1329
13907W        W30754  18.054  15.625  11.915  0.2244  0.0664  0.1121
13908W        W30755   8.408   5.954  12.324  0.1453 -0.1678 -0.2501
13909W        W30756  16.184   4.338  13.976 -0.0308 -0.2357  0.0170
13910W        W30757   8.632   5.182   5.402 -0.2329 -0.0036  0.0601
13911W        W30758  16.992  10.358  13.845  0.2241  0.3952 -0.3025
13912W        W30759  18.141  13.649  12.644 -0.0723  0.0602 -0.1877
13913W        W30760  13.349  12.263  13.094  0.0666  0.0359 -0.2356
13914W        W30761   2.271   8.075   3.177  0.0452  0.0083 -0.2052
13915W        W30762   8.228   6.235   4.306 -0.1540  0.1427 -0.0343
13916W        W30763   9.636   0.722   4.949  0.0473  0.0754  0.1356
13917W        W30764  12.796  17.281  11.251 -0.2527 -0.0645 -0.0287
13918W        W30765   1.637   4.670   2.779 -0.2829 -0.0800 -0.3497
13919W        W30766  11.327   0.621   3.646 -0.1470  0.1451  0.1518
13920W        W30767  10.172   5.313   1.731  0.1695 -0.2443 -0.2160
13921W        W30768   8.874  14.627  11.356  0.0170 -0.0938 -0.0209
13922W        W30769  15.566   7.510   0.089 -0.0657  0.0820  0.0347
13923W        W30770   4.577   5.285   0.996  0.1391 -0.0174 -0.0533
13924W        W30771   6.128   3.132   2.351 -0.0169 -0.0751  0.1120
13925W        W30772   8.217   6.817   0.323 -0.1483 -0.0564 -0.3659
13926W        W30773   7.804  15.728   1.349  0.2633 -0.0532 -0.1366
13927W        W30774  17.730   9.856  14.768 -0.1494  0.0308  0.1428
13928W        W30775   2.395   9.924  15.749  0.2633 -0.1371  0.1547
13929W        W30776   7.868   9.525   4.359 -0.0585 -0.3447 -0.3620
13930W        W30777   6.009   9.074   3.911  0.2878 -0.3464 -0.1311
13931W        W30778   4.216   3.462  11.282 -0.0452 -0.0517 -0.0489
13932W        W30779   6.681   1.156  11.992  0.1493 -0.0022 -0.0142
13933W        W30780   3.628   6.882  14.352 -0.0698  0.0871 -0.4338
13934W        W30781   9.758   2.848  13.192  0.0567  0.0455 -0.0006
13935W        W30782  13.302   9.903  15.872  0.1583 -0.0379  0.4790
13936W        W30783  10.236  18.277  14.370  0.1920  0.1768 -0.0851
13937W        W30784  18.063   7.707   2.931 -0.1703 -0.0753 -0.0044
13938W        W30785   6.005   5.774  14.761 -0.1165 -0.1647 -0.2472
13939W        W30786  18.330   2.860  13.084  0.2195 -0.0884 -0.0430
13940W        W30787  16.056  11.492   5.175 -0.0548 -0.1585  0.1407
13941W        W30788   2.297   3.936  11.192 -0.2112  0.0877 -0.0158
13942W        W30789  13.164   0.415  11.277  0.1367 -0.1817 -0.1333
13943W        W30790   9.129   0.076  15.482  0.0475 -0.0429  0.1569
13944W        W30791  15.028   5.846   3.488  0.0594  0.2507 -0.1636
13945W        W30792   6.893   7.675   4.944 -0.2411  0.2805  0.0961
13946W        W30793  17.358  12.006  12.268 -0.0838  0.0071 -0.0542
13947W        W30794  16.904   7.082   4.219 -0.2132  0.2647 -0.2392
13948W        W30795  17.210  14.960   3.511  0.0304  0.0034 -0.1014
13949W        W30796  16.468  15.521  15.065  0.0936 -0.3028  0.0249
13950W        W30797  12.181  14.171  15.213  0.0550  0.1562  0.2450
13951W        W30798  11.056  16.573  13.614  0.0872 -0.1094 -0.0992
13952W        W30799  10.103  15.071   4.095  0.0105 -0.0538 -0.3482
13953W        W30800   2.087  11.260  13.879  0.4303 -0.2166 -0.1858
13954W        W30801  10.109   3.713  12.907  0.0372 -0.0221 -0.4777
13955W        W30802   9.548  18.274   4.930  0.1100  0.2487  0.3875
13956W        W30803   1.633  13.315  11.657  0.0487 -0.1244  0.1977
13957W        W30804   9.218   9.469  13.964 -0.2954 -0.3791 -0.3959
13958W        W30805   5.669  12.303   4.150 -0.1013 -0.0815 -0.1700
13959W        W30806   7.987   5.062   2.826  0.1214  0.1938  0.3169
13960W        W30807   9.319   9.934   4.399  0.1777 -0.0288  0.3247
13961W        W30808   2.777  15.307   5.894 -0.3476  0.0143  0.0651
13962W        W30809  15.960  13.499  13.404 -0.0632  0.1758  0.1871
13963W        W30810  16.040   3.068   0.627  0.1821 -0.1109  0.0417
13964W        W30811   6.435   7.627  14.033  0.1937 -0.0836 -0.2548
13965W        W30812  13.863   0.782  13.959  0.0286 -0.1985  0.0460
13966W        W30813   5.652   5.176   0.596 -0.0248 -0.1692 -0.1375
13967W        W30814  13.831  17.090   4.966  0.0299  0.2047  0.0313
13968W        W30815  16.253   7.516  13.575 -0.1144  0.0517 -0.0902
13969W        W30816   4.551   1.311   5.883 -0.1223 -0.2131  0.1273
13970W        W30817  15.169  17.145  15.705  0.0637 -0.1006 -0.0430
13971W        W30818  12.093   7.899   1.467  0.4244 -0.0235 -0.2655
13972W        W30819  16.529   4.675  13.918  0.0175  0.0901 -0.2575
13973W        W30820   1.379  13.318   1.133 -0.2074  0.1718 -0.0763
13974W        W30821   8.859  11.699   0.542  0.1138  0.0302 -0.1721
13975W        W30822  16.497   2.900  14.342  0.0416  0.2676  0.1505
13976W        W30823   4.522  14.883  14.133 -0.1363 -0.2628 -0.2713
13977W        W30824  11.888   6.032   2.247  0.0101  0.0095 -0.0818
13978W        W30825  11.822  11.383  14.808  0.1004  0.1831  0.0432
13979W        W30826   3.854  18.472  12.969  0.1253  0.1869 -0.3226
13980W        W30827   8.597   1.094  13.211 -0.3358 -0.0008 -0.0770
13981W        W30828   5.437  12.536   2.319 -0.0698  0.1972  0.1302
13982W        W30829  12.807  17.366   4.686  0.0275  0.0373  0.0751
13983W        W30830   3.457   5.572   0.742 -0.0610  0.0436 -0.0355
13984W        W30831   4.643  11.653   1.364 -0.0796  0.0066 -0.2493
13985W        W30832  14.830   1.949   3.488 -0.0362 -0.0615  0.1350
13986W        W30833   1.601  12.692   1.679 -0.0899  0.3049 -0.1176
13987W        W30834  17.918   3.487  14.277 -0.1353 -0.1390  0.0887
13988W        W30835  15.306   6.663   0.333 -0.3239  0.2812 -0.1607
13989W        W30836   6.553   5.180   3.263 -0.0673  0.2002  0.0868
13990W        W30837   8.289  18.519   4.745 -0.1685  0.0791 -0.0798
13991W        W30838   5.897   7.008  14.463 -0.1372 -0.0131 -0.0379
13992W        W30839   3.730  13.457   4.603 -0.0119  0.1043 -0.1352
13993W        W30840  10.537  13.049   1.996  0.2222 -0.0574  0.0453
13994W        W30841  14.299   4.263   1.878  0.1872 -0.0012 -0.3003
13995W        W30842   4.085   9.258   0.259 -0.3627 -0.2500 -0.1415
13996W        W30843   6.876  11.198  13.779  0.0996 -0.0131  0.1212
13997W        W30844   0.133   2.530   5.046 -0.1933  0.0256 -0.1871
13998W        W30845   9.828   2.782   2.224  0.1957  0.1811 -0.3761
13999W        W30846   5.746   8.112   3.376  0.1150 -0.1675  0.1191
14000W        W30847   0.491  14.804   0.195 -0.2239  0.0598  0.0124
14001W        W30848   2.050   3.451   4.662  0.0033  0.1233  0.0840
14002W        W30849   5.390   9.741   0.339 -0.1962  0.1679  0.2240
14003W        W30850   0.340   0.650  12.850  0.0863 -0.1727  0.1225
14004W        W30851  15.271   0.436   0.968 -0.1734  0.2491  0.0039
14005W        W30852   2.039   6.101   5.045 -0.1861 -0.0029 -0.1575
14006W        W30853  10.375   1.313  11.060 -0.1764  0.1257  0.2251
14007W        W30854   6.125   7.673   4.153 -0.2392 -0.0857  0.1428
14008W        W30855   6.445   1.954  13.925 -0.3944  0.3541 -0.0112
14009W        W30856   9.702   6.370  11.626  0.0700 -0.0212  0.0157
14010W        W30857   7.244  11.650   2.437  0.0583 -0.2095  0.2142
14011W        W30858  17.528  10.982  13.079 -0.0090 -0.2230  0.0942
14012W        W30859  16.398  12.985  15.323  0.0713 -0.0256 -0.0475
14013W        W30860  13.438  13.029  11.746 -0.0027  0.2286 -0.1651
14014W        W30861  13.570   8.930  12.316 -0.1719  0.0134  0.1209
14015W        W30862   6.750  15.847  12.412  0.0260 -0.0239  0.0838
14016W        W30863   7.254   2.479   3.815 -0.0865  0.0394 -0.1981
14017W        W30864   7.626   1.406   2.931  0.0795 -0.0490 -0.3536
14018W        W30865   4.709  17.162  13.561 -0.2100  0.2116  0.0646
14019W        W30866   4.769   3.080   0.489  0.0623 -0.1643 -0.1531
14020W        W30867   5.292   7.680  14.308 -0.1968 -0.3381 -0.1871
14021W        W30868   3.486   0.484  14.338  0.0522  0.0807 -0.2237
14022W        W30869   9.288   4.312   0.232  0.1486 -0.0030 -0.0864
14023W        W30870   6.151   1.058  13.519  0.0269 -0.4088  0.0584
14024W        W30871  14.172  12.738   4.088  0.0799  0.0358  0.1705
14025W        W30872   9.507  10.633  14.732  0.2550 -0.0939 -0.1922
14026W        W30873   5.838  12.709  12.505  0.1459 -0.1949 -0.2228
14027W        W30874  15.694   8.070  11.912 -0.0710 -0.0136  0.0764
14028W        W30875   6.041  17.965  15.178 -0.1190 -0.1540  0.0634
14029W        W30876   7.367   7.307   2.829  0.3315  0.0662  0.1461
14030W        W30877  12.374   5.888   1.964  0.1578 -0.2126 -0.2516
14031W        W30878  14.479   4.464  15.677 -0.0041 -0.0680  0.0222
14032W        W30879   3.731   5.856  15.832  0.2029 -0.0853  0.2717
14033W        W30880   9.966  14.787  14.532 -0.3702  0.0355  0.0288
14034W        W30881   9.960   7.096  11.691  0.1393 -0.2894  0.0025
14035W        W30882  15.849  15.025   3.195  0.2888  0.2210 -0.0430
14036W        W30883   8.394   6.413   0.634  0.3306  0.2386 -0.0682
14037W        W30884  14.983  11.821   2.136  0.0171 -0.0174  0.4152
14038W        W30885   1.471   5.308  14.622 -0.0043  0.0483  0.1571
14039W        W30886  13.572   7.918   3.562  0.0440 -0.1507  0.1479
14040W        W30887   7.519   4.014   2.046  0.2005  0.1549  0.1556
14041W        W30888   2.984   9.879   3.933 -0.0177  0.1240  0.3270
14042W        W30889   0.962  13.408   0.336  0.1171 -0.4451 -0.2276
14043W        W30890  12.559  18.230   0.019  0.2244 -0.0327  0.1865
14044W        W30891   8.796  14.242   4.198 -0.2454  0.1217 -0.1483
14045W        W30892   5.400  13.557   4.663  0.0204 -0.0784 -0.2349
14046W        W30893  16.330   6.786   4.741  0.1184 -0.2411  0.1167
14047W        W30894  18.260   4.754   2.134 -0.2281  0.1159  0.1188
14048W        W30895   0.689   8.240  12.661 -0.0817 -0.3030 -0.0118
14049W        W30896  15.163   6.374  10.803 -0.0073  0.0325 -0.2037
14050W        W30897  15.645  14.944   1.670  0.2335  0.1213 -0.2453
14051W        W30898  14.387  17.123   1.464 -0.3615  0.2136  0.1549
14052W        W30899   0.751  15.078   5.547 -0.0881  0.1128  0.0792
14053W        W30900   2.434   2.720   1.438  0.1185  0.0112 -0.1163
14054W        W30901   0.047  10.801  13.567 -0.1965  0.1642 -0.1475
14055W        W30902  14.270   6.163   4.678 -0.0440 -0.0103  0.1458
14056W        W30903   3.148   4.555   3.890  0.0543 -0.2300 -0.1200
14057W        W30904  17.584   9.916  15.354  0.0719  0.1652 -0.2188
14058W        W30905  12.637  13.026   6.183 -0.0327 -0.0760 -0.0564
14059W        W30906  11.103   6.577   4.175 -0.2820  0.0124  0.0486
14060W        W30907  12.461   3.514   2.943  0.2531 -0.2816  0.1204
14061W        W30908   1.972  12.680  15.747 -0.0246 -0.1468 -0.1363
14062W        W30909  16.391   4.537  12.102 -0.1678  0.3005  0.3689
14063W        W30910  16.712   2.205  12.904  0.0267 -0.1574 -0.0343
14064W        W30911   7.660   5.818  13.673  0.0624 -0.1616 -0.0092
14065W        W30912   8.070   5.229  11.065 -0.4870  0.2874 -0.3800
14066W        W30913   0.017  15.565  11.706  0.1162  0.2953 -0.2305
14067W        W30914   4.535  13.998   5.418 -0.0513 -0.5060 -0.2575
14068W        W30915   5.520   6.349   3.601 -0.1731 -0.0390  0.2591
14069W        W30916   9.684  15.305   5.996  0.0877  0.1759 -0.2438
14070W        W30917  13.758   1.725   4.241  0.0593 -0.0986  0.0127
14071W        W30918   6.324   7.550  11.525 -0.0640  0.3482 -0.0933
14072W        W30919   7.169  15.503  12.392  0.0110 -0.6585 -0.0560
14073W        W30920   9.044  10.491   1.367  0.3110 -0.0895 -0.1137
14074W        W30921   5.616   2.468  13.047 -0.0211  0.1716 -0.0385
14075W        W30922   4.833   4.228  12.052  0.1121  0.1832  0.1021
14076W        W30923   9.848  17.374   4.684 -0.0984  0.0636  0.0294
14077W        W30924  18.523  16.357   3.935  0.1513  0.2675  0.1515
14078W        W30925   9.773   1.380   4.641  0.1593  0.1626  0.2742
14079W        W30926  15.944   0.791  14.677 -0.1425  0.2739 -0.1009
14080W        W30927   1.994  18.163   4.413 -0.1944  0.0044 -0.1558
14081W        W30928  13.608  10.287   4.488  0.2915 -0.0591 -0.0076
14082W        W30929   7.277   8.080   3.419 -0.0592  0.2644  0.0041
14083W        W30930   8.027   4.919   3.695  0.0213 -0.0085 -0.2870
14084W        W30931  16.847   9.236  14.706  0.1097  0.2216 -0.0643
14085W        W30932   6.771  15.460  13.815  0.3268 -0.3804 -0.1356
14086W        W30933   3.173   1.115  12.809 -0.3976 -0.0167 -0.0881
14087W        W30934  12.181  17.807  11.388 -0.1055  0.0588 -0.0747
14088W        W30935   0.479  14.760  11.834  0.5235 -0.1361  0.1256
14089W        W30936   4.327  12.419   1.997  0.0077 -0.0830  0.2280
14090W        W30937  11.255  11.309   0.931 -0.1155 -0.0774  0.0401
14091W        W30938   6.369  12.705  13.133 -0.2744  0.5183  0.1763
14092W        W30939  17.325   7.138   1.904 -0.2357 -0.0417  0.0183
14093W        W30940   3.645   6.680  11.735 -0.3224  0.1585  0.1243
14094W        W30941   3.285   1.773   0.270 -0.2315  0.0823  0.0143
14095W        W30942   6.863   6.316   4.019  0.2571 -0.1219  0.0670
14096W        W30943  16.543  18.282   1.551  0.0518  0.1090 -0.0231
14097W        W30944   3.591   0.486   4.745 -0.3526  0.0489  0.1081
14098W        W30945  17.374   1.557   1.411  0.3427 -0.3242  0.1970
14099W        W30946   9.583  15.495  13.847 -0.1891  0.0897 -0.2597
14100W        W30947  18.297  12.239   3.585 -0.0614  0.1818 -0.1117
14101W        W30948   1.381   8.214  13.994 -0.0633  0.2046 -0.1407
14102W        W30949   4.374   5.433  15.064  0.1624  0.1129  0.0369
14103W        W30950   5.466   8.375  15.880  0.0225  0.0905 -0.1342
14104W        W30951   6.162  12.466   5.844  0.1560  0.1230 -0.1568
14105W        W30952   4.439   7.713   1.096  0.0125  0.0096  0.4007
14106W        W30953  16.698   3.662  13.609  0.0309 -0.0730  0.3727
14107W        W30954  14.678   9.658  12.327  0.2439 -0.4473 -0.0242
14108W        W30955   6.220   3.215  12.523 -0.3566 -0.3842  0.2204
14109W        W30956   6.915   3.397  13.417 -0.0478 -0.2198 -0.0113
14110W        W30957   7.835   7.937   4.461 -0.1525  0.0784 -0.5587
14111W        W30958   5.437   1.094  15.895  0.2536  0.0594  0.0221
14112W        W30959  14.739   5.768  11.508 -0.1153 -0.0078 -0.1874
14113W        W30960  13.101  16.582   0.967  0.2782 -0.3452  0.0196
14114W        W30961  12.273  10.144   1.537  0.0287  0.1368  0.0523
14115W        W30962   1.693   2.333   1.537  0.0256  0.1900  0.1831
14116W        W30963   6.208  11.751   2.339  0.5235 -0.1974 -0.0519
14117W        W30964  13.337   7.407  14.201  0.2479 -0.0736  0.0836
14118W        W30965  16.233   2.710   1.416 -0.3161  0.2299 -0.0823
14119W        W30966  14.107   0.692  15.921 -0.0089 -0.3821  0.2643
14120W        W30967  15.088   2.269   3.149  0.3729  0.2946  0.2602
14121W        W30968  10.052   7.842   1.906 -0.0682  0.2462  0.0638
14122W        W30969  15.069   2.084   4.338 -0.2772 -0.0701 -0.2175
14123W        W30970  10.920   3.466  10.667  0.0175  0.0301 -0.0736
14124W        W30971  16.728  15.469  12.656  0.0648 -0.4820 -0.0503
14125W        W30972  11.256   8.700   2.093  0.0913 -0.3392  0.1539
14126W        W30973   0.715  18.404  13.496  0.0079  0.1739 -0.1065
14127W        W30974  14.965  15.087   0.758 -0.0190 -0.2458  0.0923
14128W        W30975  13.233   7.202   3.056 -0.0255 -0.1668 -0.0174
14129W        W30976  10.899  15.931   4.174 -0.0929 -0.0955 -0.0082
14130W        W30977   5.504  15.113   1.174 -0.1720 -0.0071  0.1579
14131W        W30978   0.572   9.440   3.489 -0.0742  0.0653  0.0450
14132W        W30979   3.059  12.626   1.154 -0.0410 -0.4550 -0.0879
14133W        W30980  16.584  15.051  15.109 -0.2240  0.0108 -0.1531
14134W        W30981   9.344  17.164   4.471 -0.1392 -0.1234  0.0295
14135W        W30982   9.931   6.219  13.496  0.2069 -0.1160  0.0229
14136W        W30983   7.152  12.713  11.646  0.1676 -0.1492 -0.0754
14137W        W30984   7.710   4.373   1.759  0.0934  0.1712  0.1733
14138W        W30985   0.594   3.662   5.198 -0.0106 -0.0642 -0.2257
14139W        W30986   9.481   4.050   4.403  0.2549  0.0148 -0.0430
14140W        W30987   1.764  13.746  12.788 -0.1266  0.0895 -0.1594
14141W        W30988  13.675   2.116   3.858  0.2976  0.0190  0.1625
14142W        W30989   4.357  14.163  14.302  0.1957  0.2333  0.0287
14143W        W30990   3.754  12.924   5.914 -0.0599  0.0149  0.0254
14144W        W30991   8.812   3.183  12.702 -0.2027  0.2275  0.2039
14145W        W30992   0.109   6.667  12.909  0.3510  0.1326 -0.1797
14146W        W30993   5.087   2.138  11.719  0.0138  0.2189 -0.2412
14147W        W30994   0.208  16.713   1.422 -0.0754  0.1014  0.0469
14148W        W30995  18.325  14.041  10.572 -0.0068  0.2147 -0.1961
14149W        W30996   0.432   8.801  15.207 -0.0421  0.3151 -0.0678
14150W        W30997  13.215   0.280  11.778  0.0643  0.0472 -0.4748
14151W        W30998   7.211   7.141  13.938  0.1963  0.0645  0.1265
14152W        W30999  17.768   7.413   1.723 -0.2081  0.3187  0.0060
14153W        W31000   7.502  17.471  13.656 -0.2289  0.2417 -0.1958
14154W        W31001  11.400   1.595  13.502 -0.0004  0.1980 -0.0133
14155W        W31002  10.889   2.933   0.909 -0.0808 -0.2816 -0.0210
14156W        W31003   1.038   2.034   2.775 -0.2397 -0.2194  0.1224
14157W        W31004  16.039   5.217   1.553  0.1733 -0.1416 -0.0973
14158W        W31005  11.378   4.358  13.480  0.2541  0.2209  0.0560
14159W        W31006  16.838   2.539  11.114  0.0744  0.0900 -0.0799
14160W        W31007   3.745  12.030  12.620 -0.0538 -0.0108  0.0912
14161W        W31008   7.389   5.016  10.642  0.2466 -0.0247 -0.1185
14162W        W31009  12.604   8.489  11.171 -0.1738  0.1006  0.3537
14163W        W31010   2.794   3.709   2.564  0.2432 -0.1131  0.0863
14164W        W31011  14.820  11.670   0.097 -0.1861 -0.3090  0.0238
14165W        W31012   8.557  17.910   3.577  0.2229  0.2741  0.1326
14166W        W31013  13.107   6.189   5.280 -0.3811 -0.3033 -0.1519
14167W        W31014  15.591  10.494   2.673  0.0670  0.1023 -0.1386
14168W        W31015  12.470   8.778   2.704 -0.0211  0.0908  0.0245
14169W        W31016  17.903  10.218   1.407 -0.3948  0.0116  0.1072
14170W        W31017   5.990   9.889   4.467 -0.1511 -0.2144 -0.0630
14171W        W31018  10.168   4.876   5.041 -0.2539  0.2974  0.3471
14172W        W31019   4.643  17.988   0.619 -0.0214  0.4374 -0.0386
14173W        W31020  13.187   3.515  13.398  0.2928 -0.2182 -0.3302
14174W        W31021   9.049  11.350   4.253 -0.0479 -0.3746 -0.0329
14175W        W31022   7.644  10.658   3.640  0.0015  0.0423  0.1430
14176W        W31023   3.685   6.204   1.170  0.1696  0.1209 -0.3286
14177W        W31024   9.812   7.048   0.306  0.3906  0.4073 -0.0078
14178W        W31025   9.236   5.451   9.825 -0.1486 -0.1824  0.1826
14179W        W31026   4.681   2.614  15.620  0.1435  0.0884  0.1886
14180W        W31027   4.338   2.781  14.273  0.1542 -0.1399 -0.0044
14181W        W31028  13.588   1.632  11.686  0.3542 -0.1068  0.2332
14182W        W31029   8.808   8.723   5.014 -0.1335  0.0909 -0.0480
14183W        W31030   3.306   6.765  12.163  0.0139  0.1226 -0.1011
14184W        W31031   6.582   8.077   0.545 -0.0670  0.0519 -0.0722
14185W        W31032  16.260   4.724   4.891 -0.0745 -0.0580 -0.0335
14186W        W31033   3.620  16.913  12.862  0.0650  0.2049 -0.0935
14187W        W31034  14.296   0.201  15.209 -0.0293 -0.1801 -0.0510
14188W        W31035  15.977  17.802  13.491 -0.0300  0.2442  0.1476
14189W        W31036  11.998  10.311  15.901  0.1275 -0.1768 -0.2345
14190W        W31037   3.022  16.681  13.197  0.1866 -0.0233 -0.0902
14191W        W31038   6.128   9.397  14.354 -0.1873  0.5133 -0.2240
14192W        W31039   2.619  16.442  15.896 -0.1237  0.1916 -0.1465
14193W        W31040  11.796   8.801   4.746  0.0124 -0.2825  0.1742
14194W        W31041  15.740   2.166   2.298 -0.2198  0.2461 -0.0699
14195W        W31042  15.923   6.020   4.646  0.0667  0.2081  0.3489
14196W        W31043   2.507  13.374   0.884 -0.1397  0.0025 -0.2731
14197W        W31044   8.397   6.851  13.338 -0.2050 -0.1093  0.1527
14198W        W31045   1.460  17.540  14.981 -0.3003  0.4606  0.1933
14199W        W31046   1.115  13.739   5.700  0.1142  0.4431 -0.1458
14200W        W31047   5.615  17.917  12.911 -0.1409  0.0330 -0.0627
14201W        W31048   4.268   9.779  12.589 -0.3083  0.2446  0.1250
14202W        W31049   4.066  17.442   4.312  0.0750 -0.0028 -0.2972
14203W        W31050   8.369  16.891   5.955  0.0503 -0.2157  0.0722
14204W        W31051  13.013  14.084   2.216 -0.2765 -0.0701  0.1476
14205W        W31052   0.509   2.224   2.903 -0.1904 -0.2288  0.0079
14206W        W31053  17.902  10.842  12.697 -0.2257 -0.0512 -0.0205
14207W        W31054   3.899   7.129  11.639  0.1441  0.1424 -0.1273
14208W        W31055   7.592   4.891  13.988  0.3399  0.0955 -0.4242
14209W        W31056  12.597   9.395   0.215 -0.3277 -0.2189 -0.3056
14210W        W31057   5.155   1.664   4.372  0.1903  0.3060  0.0900
14211W        W31058   7.384  12.200  15.704  0.1908  0.0159  0.1411
14212W        W31059  18.324   8.639  13.029 -0.0177 -0.1316  0.1990
14213W        W31060  10.887  15.028  14.539  0.1386 -0.0827  0.0999
14214W        W31061   5.330   6.723  13.494 -0.3996  0.1406  0.0960
14215W        W31062   3.010   3.259  13.019 -0.3035 -0.0431  0.1324
14216W        W31063   2.524  16.934  12.831  0.2793 -0.0516  0.0644
14217W        W31064   9.913  17.111  11.101 -0.1205  0.2290  0.0194
14218W        W31065  18.289  10.359  12.162  0.0779  0.2613  0.0227
14219W        W31066  16.342   9.420   0.195 -0.0977  0.1098  0.1489
14220W        W31067   6.861  12.879  13.061  0.1973 -0.1077  0.0466
14221W        W31068  10.028  15.881  11.951  0.4166 -0.0722 -0.1734
14222W        W31069  11.062  15.946  13.336  0.2525 -0.0990  0.1367
14223W        W31070  15.949   0.660   4.326  0.1977 -0.2382  0.0336
14224W        W31071  15.734   8.567  15.274  0.1828  0.1914  0.1364
14225W        W31072   3.321   2.177  11.239  0.2824  0.0558  0.3449
14226W        W31073  18.364  11.617  11.513  0.1074 -0.1108 -0.0187
14227W        W31074   6.800   6.665   1.014  0.4810  0.1840  0.0924
14228W        W31075   2.002  15.888  15.473 -0.2497  0.1839  0.2624
14229W        W31076   1.344   6.846   2.483 -0.1721  0.0076 -0.0019
14230W        W31077   0.007   8.829   4.727  0.1608  0.0181 -0.1360
14231W        W31078  10.236  10.757  12.144 -0.0647  0.2823  0.0913
14232W        W31079  16.770   1.845  12.569  0.0883 -0.1144  0.1625
14233W        W31080   2.423   3.976   3.746  0.0985  0.0623  0.1568
14234W        W31081   1.006   1.211  15.185 -0.0384  0.1264 -0.0072
14235W        W31082  18.020   1.382   0.342 -0.3284 -0.1885  0.1527
14236W        W31083  14.856   9.814   2.359  0.4146  0.0218  0.1019
14237W        W31084   4.199   9.956   2.964 -0.0160  0.0295  0.1581
14238W        W31085  12.362   0.059  14.930  0.0187 -0.0238  0.1127
14239W        W31086  12.879   7.813   5.788  0.1057  0.0111 -0.1754
14240W        W31087  11.429  18.512  11.112  0.1250 -0.0726  0.0243
14241W        W31088  14.642   0.410   0.697  0.1074  0.0367  0.1234
14242W        W31089   5.027   8.363   0.208  0.0292 -0.0203  0.6559
14243W        W31090   0.330   5.773   2.444 -0.0171 -0.0803  0.0255
14244W        W31091   8.471  16.794   2.595 -0.1415 -0.2751 -0.2927
14245W        W31092  18.148   1.694  13.153  0.2204  0.3570 -0.1789
14246W        W31093  14.461   4.941  15.795  0.0439  0.1462 -0.0038
14247W        W31094   3.488  10.402  15.664 -0.1074 -0.0211 -0.3458
14248W        W31095  15.257  14.235   1.069 -0.0826 -0.0822 -0.0146
14249W        W31096   2.180  16.156  15.896  0.2183 -0.0933 -0.4250
14250W        W31097   1.215   7.748  14.817 -0.0851 -0.0306  0.1266
14251W        W31098   1.284  15.388  13.775 -0.0792  0.0294 -0.1087
14252W        W31099  12.631   9.305   1.707  0.0208 -0.1827 -0.2345
14253W        W31100   6.393  15.222   3.574 -0.1660 -0.0799 -0.2220
14254W        W31101  10.824  18.195   2.181  0.0070 -0.1356  0.1692
14255W        W31102   4.653   4.225   4.591  0.0884  0.3977  0.2189
14256W        W31103   7.014  13.428  13.744  0.2751  0.2821  0.1022
14257W        W31104  10.066  11.535  10.456 -0.1814 -0.2506 -0.1706
14258W        W31105   5.501   2.945   0.619  0.0594 -0.3587  0.1284
14259W        W31106   3.891   3.680  11.641  0.3251 -0.3463 -0.2124
14260W        W31107   8.123   7.259  11.049 -0.2059 -0.0306  0.3995
14261W        W31108  17.755   6.168  13.736 -0.1047  0.1238  0.0725
14262W        W31109  18.214   6.197   0.906 -0.0842 -0.1925 -0.1013
14263W        W31110   7.667   5.090  13.112  0.0377  0.0095 -0.2768
14264W        W31111   3.796   9.291   4.402  0.3355 -0.0062  0.3820
14265W        W31112   1.295  14.129   2.702  0.4613  0.1544 -0.0244
14266W        W31113   8.748  14.221  12.288 -0.0799  0.3359  0.0850
14267W        W31114   0.418   3.561  12.447  0.1559 -0.1205 -0.0148
14268W        W31115   6.005   8.106   3.883 -0.2002  0.2330 -0.0947
14269W        W31116   6.069  17.006   5.320  0.2707  0.3779 -0.1928
14270W        W31117   6.729   6.503  15.539 -0.0071 -0.1829 -0.1341
14271W        W31118  10.981   7.652  11.384  0.1082 -0.0975  0.0422
14272W        W31119   8.573  12.608  12.594  0.1784  0.0738  0.0844
14273W        W31120  10.398   7.632   4.198 -0.0935  0.0777  0.1678
14274W        W31121  17.276   0.357  13.478 -0.1740 -0.5893 -0.0275
14275W        W31122   3.039  10.511   2.731  0.4825  0.0424  0.0115
14276W        W31123   7.537   4.718  15.490 -0.0021 -0.1542  0.2518
14277W        W31124  18.310  15.006  14.365  0.2643 -0.1907  0.2355
14278W        W31125   0.429   9.288  15.001  0.0718 -0.3982  0.0129
14279W        W31126  10.686  18.115   2.626  0.4542  0.0914  0.0154
14280W        W31127  12.173  10.430   2.809  0.0310  0.2897  0.0742
14281W        W31128   6.806  13.226  12.230 -0.0844  0.3647 -0.1213
14282W        W31129  14.719   2.263  14.377  0.1085 -0.1544  0.1832
14283W        W31130  10.567   5.737   2.042  0.2926  0.0127  0.0971
14284W        W31131   4.555   3.558   1.983 -0.1652 -0.1266 -0.0251
14285W        W31132  16.558   4.131   4.947  0.0947 -0.0216 -0.0438
14286W        W31133   5.070  17.668   5.396  0.0708 -0.1493 -0.2003
14287W        W31134   0.176   9.204  12.068  0.2868  0.0562  0.0643
14288W        W31135   2.753   5.473   0.981  0.2541  0.2918 -0.1036
14289W        W31136   4.573  15.562  12.497 -0.0393 -0.2896  0.0113
14290W        W31137   9.206  16.006  12.795 -0.1382  0.0883  0.0224
14291W        W31138   6.563  11.378   3.612 -0.0011  0.2887 -0.0607
14292W        W31139  14.100  12.883   4.549  0.2080 -0.0745  0.2358
14293W        W31140  14.552  15.720   2.540  0.1802  0.0170  0.0692
14294W        W31141   0.375   5.668  14.863  0.0323 -0.0471  0.0981
14295W        W31142  11.136   1.874   1.230 -0.1898  0.1534 -0.2127
14296W        W31143  11.448  10.444   0.665  0.3894 -0.0837 -0.2560
14297W        W31144  11.961   6.262  14.078 -0.1604 -0.1767  0.1400
14298W        W31145  10.841  16.115  11.139 -0.1983 -0.0016 -0.0783
14299W        W31146  15.405  14.877  14.085 -0.1323  0.0573 -0.1976
14300W        W31147   6.397  12.473   4.071  0.0260  0.0338 -0.2652
14301W        W31148  18.224   3.846  12.075 -0.4647 -0.4084 -0.0479
14302W        W31149   9.614   9.864  12.425  0.0592  0.1034  0.0558
14303W        W31150   9.029  10.699  13.038  0.2523  0.0686 -0.0188
14304W        W31151  13.611  10.985   2.904 -0.0451  0.3625  0.0335
14305W        W31152  14.286  12.178  13.208 -0.0239 -0.1591 -0.0806
14306W        W31153   2.456   4.197  14.632 -0.0036  0.0638 -0.0219
14307W        W31154   8.049  13.801  13.669  0.1163  0.0865  0.6605
14308W        W31155  10.092  15.879  15.251 -0.2087 -0.0438 -0.0258
14309W        W31156   3.568  12.338   0.508  0.0981  0.0611  0.2738
14310W        W31157   7.880   7.072  15.058  0.0892  0.3385  0.1352
14311W        W31158   0.064  15.280  12.676 -0.1361  0.2844  0.2151
14312W        W31159  11.248  15.956   0.433 -0.3135 -0.4497  0.0445
14313W        W31160   4.652   6.320   1.211  0.0879 -0.1663 -0.0148
14314W        W31161   8.685   8.392   3.144  0.0596 -0.0866  0.1111
14315W        W31162  10.649  12.950   3.991 -0.0414 -0.1159  0.0073
14316W        W31163   4.291   5.486  11.901  0.0964 -0.2813 -0.1613
14317W        W31164   3.088   4.319   2.525  0.0444  0.0160 -0.0815
14318W        W31165  15.900   1.667  14.328 -0.1071 -0.0932 -0.2172
14319W        W31166   9.114  17.059  12.470  0.0829  0.1973 -0.3612
14320W        W31167   1.190  15.975   2.132 -0.1356 -0.0279  0.0165
14321W        W31168  14.021   7.904  15.259 -0.0467  0.0216 -0.0295
14322W        W31169   1.452   8.721  12.310  0.1208 -0.0302  0.0256
14323W        W31170   5.123   8.979   4.363 -0.0872  0.0749 -0.0869
14324W        W31171   3.646   5.530   1.195  0.3577 -0.0511  0.2924
14325W        W31172   1.008  14.604  11.873  0.0970  0.3174  0.0279
14326W        W31173   0.679  14.398   0.616  0.0714 -0.0032  0.1665
14327W        W31174  15.349  16.013   1.828 -0.0998 -0.2724 -0.0489
14328W        W31175   2.344  15.933   2.884 -0.0151  0.1481 -0.1943
14329W        W31176   8.442   2.008  11.969 -0.2315  0.0828 -0.1872
14330W        W31177  11.579   7.669   2.243  0.1200 -0.0265  0.2745
14331W        W31178  17.550  17.578   0.337  0.1883  0.0733 -0.1562
14332W        W31179   0.949   9.134   3.375 -0.3502 -0.3885  0.2382
14333W        W31180  16.375   4.083  13.340 -0.0475 -0.1591 -0.0954
14334W        W31181   2.894  18.014  13.922  0.0065 -0.1307  0.0022
14335W        W31182   8.239   1.807   1.301 -0.2933  0.0274  0.2215
14336W        W31183   7.155   3.349   3.267 -0.1941  0.1184 -0.2809
14337W        W31184   3.267   7.020   4.630  0.4288 -0.3468  0.1959
14338W        W31185  18.353  13.253  13.960 -0.2472 -0.0700  0.2047
14339W        W31186   5.141   1.895  14.100 -0.0104 -0.1186 -0.2259
14340W        W31187   5.775  17.259  14.475 -0.1313  0.0572 -0.0709
14341W        W31188  16.807   4.609  13.540 -0.3935  0.2234  0.2346
14342W        W31189  13.471   5.114  14.151 -0.1376 -0.2724  0.0367
14343W        W31190   4.442   2.680   2.988  0.2195  0.0270  0.0123
14344W        W31191   1.568  10.288   4.816  0.1466 -0.0982 -0.1015
14345W        W31192   0.530   4.057   3.971  0.0969 -0.0557 -0.0950
14346W        W31193  11.701   4.939  10.695 -0.3681 -0.2403  0.1391
14347W        W31194  18.025   7.066  11.856  0.0414  0.1468 -0.2083
14348W        W31195   9.091   6.607   4.015  0.2520  0.4014  0.6496
14349W        W31196  11.688   2.387   3.105  0.0800 -0.3075 -0.0532
14350W        W31197   0.091   1.865  15.526  0.0110  0.1202 -0.1968
14351W        W31198   2.121   8.060   4.981 -0.1825  0.3139 -0.0205
14352W        W31199   8.229  10.904  15.077 -0.1928  0.1218 -0.0782
14353W        W31200  10.663   6.270   2.122  0.2584  0.0611  0.0037
14354W        W31201  13.114  14.821   1.076  0.1139 -0.1988 -0.1370
14355W        W31202  16.593   8.328  12.195 -0.1764  0.1389  0.0229
14356W        W31203   2.146   7.159  11.713 -0.3710  0.1979  0.2949
14357W        W31204  12.587   7.809   3.734 -0.0422  0.1020  0.0586
14358W        W31205   8.313  10.081  13.009 -0.0531  0.5473  0.1159
14359W        W31206  17.321  14.602  13.644 -0.1979  0.0605  0.1592
14360W        W31207   5.971  13.199   5.008 -0.0180  0.2942 -0.1207
14361W        W31208  15.957   2.359   0.010  0.0440 -0.0214  0.3697
14362W        W31209   5.495   8.227  12.086  0.0290 -0.0557  0.4583
14363W        W31210  14.184  15.876  11.927  0.4422  0.0661  0.0685
14364W        W31211   9.078  16.055   5.915  0.1310 -0.0059  0.1189
14365W        W31212   6.567   2.747  14.271  0.2104 -0.1808  0.0613
14366W        W31213  17.190   4.863  14.806  0.2773 -0.3235  0.0589
14367W        W31214   9.924   7.753   1.401 -0.3087 -0.0819 -0.1303
14368W        W31215  11.800  15.576   2.594 -0.0028 -0.0341 -0.2318
14369W        W31216   3.210  18.447  15.597 -0.0065 -0.0354 -0.1521
14370W        W31217   8.392  15.287  12.517 -0.0264 -0.1876 -0.1574
14371W        W31218   9.041  18.274  15.016 -0.3553  0.1530 -0.1027
14372W        W31219   0.855  10.841   3.288  0.0511  0.0470  0.1281
14373W        W31220  16.505   0.768  14.846  0.1117  0.0819  0.3105
14374W        W31221   9.796  18.329   0.130  0.1604  0.1423 -0.1066
14375W        W31222   5.834   8.749   2.551  0.1174  0.1042 -0.1251
14376W        W31223   7.565  11.808   1.997  0.0374 -0.0826 -0.1743
14377W        W31224   7.724  16.761  11.860  0.6108 -0.2492 -0.0256
14378W        W31225   2.248  13.370  15.010  0.0693 -0.0224  0.0311
14379W        W31226  14.835   0.756   3.160  0.2238 -0.1566 -0.0599
14380W        W31227   6.080   5.576  13.430  0.0039  0.1908 -0.2432
14381W        W31228  12.007  14.842  15.331  0.4465  0.2796 -0.4512
14382W        W31229  12.400   2.986   3.372  0.0013  0.0758 -0.1879
14383W        W31230   5.161   4.138  10.473  0.0921  0.2678  0.1587
14384W        W31231   6.413  13.533  12.384  0.0357 -0.1074 -0.2575
14385W        W31232  16.707   8.329   2.279  0.2285 -0.0573 -0.0947
14386W        W31233  11.020  16.774   3.100  0.3037  0.0593  0.1380
14387W        W31234   1.293  11.590  11.535 -0.1142  0.0116 -0.3215
14388W        W31235   1.267  15.740   3.968 -0.4067 -0.2726  0.1850
14389W        W31236  14.218   1.939   0.632 -0.0679 -0.0168  0.2363
14390W        W31237  16.625   8.272   4.197  0.0158  0.0243 -0.1940
14391W        W31238   4.644  15.243  11.732 -0.1247  0.0480 -0.0177
14392W        W31239  18.361   6.868  14.881 -0.2061  0.0915  0.3071
14393W        W31240   1.807   3.061   4.476  0.1360 -0.1406 -0.1924
14394W        W31241   7.143   6.250  15.308  0.1672 -0.1794  0.1711
14395W        W31242  11.000   5.100   1.694 -0.1737  0.1524 -0.0676
14396W        W31243   0.062   5.047  14.164  0.1242 -0.0917  0.2254
14397W        W31244   4.586  13.159  12.637 -0.1899  0.0053 -0.1713
14398W        W31245  14.574  14.354   0.536 -0.1223  0.2080 -0.1124
14399W        W31246  15.258  14.936  13.370 -0.1863 -0.1561  0.0731
14400W        W31247   3.575   8.421   0.167 -0.0867 -0.2353 -0.0622
14401W        W31248   2.743   5.391   3.866 -0.0118  0.1930  0.1189
14402W        W31249  17.089   5.036   4.408  0.0909 -0.2499  0.1900
14403W        W31250   8.862  18.215  11.041 -0.1609 -0.0680  0.0914
14404W        W31251   1.452   8.925   1.881  0.1433  0.2611 -0.0747
14405W        W31252   6.941   1.055   0.133  0.1333  0.1260 -0.5523
14406W        W31253   2.813  16.231  12.794  0.1293 -0.0077  0.0923
14407W        W31254   6.274  14.659   1.270  0.1569  0.0418  0.2365
14408W        W31255   8.130  16.899   9.962  0.2866 -0.4913 -0.1075
14409W        W31256   7.975   2.433  15.510  0.0548 -0.1898  0.0355
14410W        W31257  13.879   9.250  10.626 -0.0102  0.3632  0.2752
14411W        W31258  18.136   8.483   1.774 -0.1042  0.1575  0.0701
14412W        W31259   5.151  12.024   4.911  0.2253  0.0458 -0.1420
14413W        W31260   4.175  12.480   2.454  0.0507 -0.3153  0.1866
14414W        W31261   8.586  16.623   1.910 -0.3646 -0.1609  0.4680
14415W        W31262  16.541  13.547  15.060  0.2025 -0.2567 -0.0307
14416W        W31263  17.230  15.238  15.566  0.1367  0.3787  0.2180
14417W        W31264  10.901  15.808   2.534  0.3422 -0.0684 -0.2144
14418W        W31265   5.137   6.479   1.467  0.1970  0.1517 -0.2046
14419W        W31266  17.834   2.103   3.154  0.1737  0.3892 -0.2440
14420W        W31267   3.728   9.610  15.874 -0.1968 -0.0073  0.2150
14421W        W31268   3.250   7.871  14.032  0.3052 -0.0679 -0.0303
14422W        W31269   6.333   2.879  14.970  0.1968  0.3332  0.1354
14423W        W31270   8.234  18.459   0.629  0.0421  0.1434  0.4033
14424W        W31271   0.894   9.174   3.862 -0.2280 -0.1810  0.3822
14425W        W31272   8.804   2.774   4.987 -0.0153  0.1810  0.0636
14426W        W31273   6.555   9.379   5.335 -0.3993  0.0707 -0.0125
14427W        W31274   9.405  12.256   0.836  0.1919  0.0875  0.1773
14428W        W31275  17.972   5.392   1.805  0.0236  0.1512  0.2302
14429W        W31276   8.114   4.175   1.535 -0.2493  0.0130 -0.2027
14430W        W31277  16.912  13.357   1.007  0.1528  0.2021 -0.2006
14431W        W31278   8.834  11.021  14.433 -0.0151 -0.0221 -0.2091
14432W        W31279  13.891  14.135  13.597 -0.0955 -0.0787 -0.1762
14433W        W31280   6.869  13.989   3.632  0.0295 -0.0585 -0.0678
14434W        W31281   1.012   2.459  12.934 -0.0859 -0.2053 -0.3021
14435W        W31282  13.561  13.374   1.909  0.1627 -0.2906 -0.0547
14436W        W31283  10.623   0.194   3.326  0.1100 -0.0198  0.1697
14437W        W31284  16.229  10.588  15.048  0.0515 -0.1762 -0.3642
14438W        W31285  12.772   5.217   0.176 -0.2326 -0.0247  0.2542
14439W        W31286   7.424   1.180  13.815 -0.1588  0.3564 -0.2320
14440W        W31287  13.321  15.765   4.512  0.5536  0.0730  0.2190
14441W        W31288   3.945  14.459   1.535  0.3536 -0.3405 -0.2713
14442W        W31289  14.355   1.884   4.436  0.3518 -0.0230 -0.0083
14443W        W31290   1.526  10.332   3.389  0.4805 -0.2545 -0.1240
14444W        W31291   0.119  18.099   3.857 -0.0972  0.2135  0.1010
14445W        W31292  13.519   1.718   4.704  0.0999 -0.0298 -0.2261
14446W        W31293  12.431   1.716  13.304 -0.0023  0.2794 -0.1684
14447W        W31294  12.869  14.046  11.946  0.2371  0.0813  0.1101
14448W        W31295   6.891  16.118  13.190  0.0435 -0.2562  0.0862
14449W        W31296  14.292  10.618   4.938  0.0668  0.0698 -0.0820
14450W        W31297  12.770   6.468  12.675 -0.4029 -0.3869 -0.0951
14451W        W31298  12.999  14.508   3.040  0.3402 -0.0421  0.2631
14452W        W31299   6.567   4.929   5.263  0.0986 -0.0296  0.2251
14453W        W31300   6.007   7.170  15.902  0.0544 -0.2534  0.0879
14454W        W31301   6.332  15.009  15.686  0.0200  0.2025  0.1524
14455W        W31302  13.317   6.258   0.774  0.3181  0.0696 -0.1093
14456W        W31303  11.129   6.710  14.405 -0.1164  0.4040  0.0677
14457W        W31304   5.439   3.423  14.882  0.4318  0.3056 -0.1782
14458W        W31305   3.920  15.018  13.407  0.1725  0.0670  0.0435
14459W        W31306   2.420  18.234  13.579 -0.0662  0.1235  0.0144
14460W        W31307   2.992   4.853   1.124 -0.0968 -0.0046 -0.0924
14461W        W31308   8.492  15.120   4.372 -0.0464 -0.4547  0.1121
14462W        W31309   5.837  16.477  11.320 -0.1647  0.0574 -0.4570
14463W        W31310  11.311   0.533   0.189  0.0996 -0.0795 -0.1480
14464W        W31311   6.906  11.847  12.235 -0.1133 -0.3336  0.0209
14465W        W31312  13.917   0.082  13.366  0.0598  0.3219  0.1229
14466W        W31313   7.643  13.153   4.000 -0.2185  0.3606  0.1830
14467W        W31314   6.655  11.114  12.384 -0.0847  0.2161 -0.0775
14468W        W31315  11.366  13.199  13.757  0.0164  0.2554 -0.0447
14469W        W31316   4.793   6.836   1.393 -0.1209  0.0671  0.0328
14470W        W31317   9.164   0.802   5.170  0.0933 -0.0903  0.2484
14471W        W31318  12.379  15.926  14.597 -0.2398  0.4112  0.0835
14472W        W31319  18.045  10.323  15.640 -0.1357 -0.0220  0.2059
14473W        W31320   8.601   4.016  13.765 -0.1779 -0.1670 -0.0307
14474W        W31321  16.130   8.866  11.680 -0.0637  0.0389  0.0273
14475W        W31322   1.465   4.288   3.086 -0.0331  0.1741  0.0632
14476W        W31323  13.901   9.092  11.133 -0.0905 -0.0369  0.1669
14477W        W31324  12.735   7.664   0.033  0.0906 -0.0628  0.1036
14478W        W31325   0.185   1.143   0.084  0.2179  0.1412 -0.2487
14479W        W31326  16.981   6.801   1.067 -0.0787  0.2581 -0.1250
14480W        W31327  16.769   9.862  13.917 -0.2647 -0.3417 -0.1385
14481W        W31328   3.544   6.978  10.870 -0.2024 -0.2513  0.1482
14482W        W31329   5.324   5.117   1.502  0.0800 -0.1240 -0.1355
14483W        W31330   7.448   7.940  13.193  0.0277 -0.3715 -0.2718
14484W        W31331   9.283   3.048   3.920 -0.0434 -0.0647 -0.0087
14485W        W31332  14.469  16.153   0.129  0.1027 -0.0051 -0.2616
14486W        W31333  10.529   0.039  15.259  0.2828 -0.1495 -0.0910
14487W        W31334  14.550  17.128  12.642 -0.1108 -0.0243 -0.2963
14488W        W31335   6.170   3.404   3.315  0.0163 -0.1654  0.2215
14489W        W31336  10.685   7.747  11.812 -0.2957 -0.1115 -0.2759
14490W        W31337  17.206   3.883  12.226 -0.0317 -0.0520 -0.2121
14491W        W31338  15.965   4.925  15.449 -0.0560 -0.0147 -0.1140
14492W        W31339  17.230  11.042  14.845  0.0951  0.3086  0.0623
14493W        W31340  15.746   9.320   4.262 -0.3086 -0.2370 -0.3026
14494W        W31341  16.188  15.991  14.886  0.2658 -0.1347 -0.1546
14495W        W31342   9.548  17.592  11.612 -0.2884  0.2906 -0.0685
14496W        W31343   1.180  12.046   2.373  0.0288  0.2552 -0.1483
14497W        W31344  11.203  10.732  15.236  0.0726  0.0591 -0.0498
14498W        W31345  16.922  11.581  12.421  0.0613 -0.0796  0.0031
14499W        W31346  16.645   1.370   2.077 -0.0843  0.0973  0.1324
14500W        W31347   5.715  11.900  15.375 -0.1239 -0.1486 -0.0901
14501W        W31348   6.636  15.057   5.848  0.3251 -0.2836  0.1117
14502W        W31349  11.506   8.809  10.738 -0.1020 -0.2054  0.0609
14503W        W31350  14.023  15.817  12.798  0.2711  0.0706  0.3402
14504W        W31351   1.280  12.644   1.139  0.1072  0.0836 -0.2584
14505W        W31352   0.806  17.455   4.616  0.0780  0.3459  0.1043
14506W        W31353   8.475   3.091   4.115  0.1363 -0.0411  0.1399
14507W        W31354   0.996  17.052   0.834 -0.0569  0.1772  0.0279
14508W        W31355  17.970  10.766   4.940 -0.0033 -0.0002  0.1214
14509W        W31356  10.280  13.450   0.359 -0.1687 -0.1050  0.0476
14510W        W31357  15.997  18.222  12.529 -0.0271 -0.0562 -0.1360
14511W        W31358   1.851   6.441   4.634 -0.1621 -0.1122  0.1680
14512W        W31359  11.777   3.554   0.015 -0.0579  0.5466  0.1266
14513W        W31360   4.213   3.732   3.548  0.2867 -0.2328  0.0413
14514W        W31361  13.855   6.118   0.899  0.0437 -0.2042  0.0241
14515W        W31362  18.028   1.248  12.860  0.1504  0.2845 -0.0026
14516W        W31363   3.501  15.212  14.775  0.1069 -0.1245 -0.1221
14517W        W31364  18.334  16.556   6.127  0.2042  0.3366 -0.0706
14518W        W31365  12.100  15.051   0.374  0.3556  0.1336 -0.0024
14519W        W31366  17.355  10.863   1.625  0.4710  0.2058  0.0642
14520W        W31367   6.748  14.702   5.012  0.1055  0.1132  0.1690
14521W        W31368  11.568  14.838  14.821 -0.2919 -0.2265 -0.2007
14522W        W31369  13.920   2.955   4.771  0.0451 -0.3838 -0.0828
14523W        W31370  12.422  12.178   0.268  0.1432  0.2628  0.1793
14524W        W31371  10.109  15.385   0.941 -0.2669  0.0881  0.0168
14525W        W31372   0.657  16.841  12.265  0.0362 -0.3472  0.0539
14526W        W31373   4.101   0.500   5.515 -0.0385  0.1574 -0.1897
14527W        W31374  12.345   2.697  15.493 -0.2194  0.0770  0.2208
14528W        W31375  16.302   3.479   0.601  0.3863 -0.1345 -0.2261
14529W        W31376  12.383   2.479   3.253  0.3220  0.0855 -0.1678
14530W        W31377   2.661  11.957   4.397 -0.0128  0.2074  0.2436
14531W        W31378   6.474   8.621   2.907 -0.0988 -0.1055  0.2969
14532W        W31379   1.942   3.300   2.953 -0.0286  0.1680 -0.0908
14533W        W31380  13.011  18.472  11.008  0.0719 -0.1660 -0.0718
14534W        W31381  10.174   6.666   3.929 -0.1298 -0.2029 -0.4052
14535W        W31382   9.700  18.005  15.664  0.0564 -0.1319  0.1764
14536W        W31383  16.728  16.019   0.119 -0.1043 -0.2927  0.1029
14537W        W31384  10.228   3.809  11.170 -0.0970  0.0994  0.0844
14538W        W31385   5.659  17.103  12.616  0.0141 -0.0274  0.2723
14539W        W31386  11.452  17.482  14.017  0.2025 -0.1550 -0.2289
14540W        W31387   9.382  15.535  12.632  0.2730 -0.0470 -0.0898
14541W        W31388   4.624  17.806  15.696  0.1400  0.2444 -0.0086
14542W        W31389  11.177  12.861   2.119  0.0596  0.0650 -0.4128
14543W        W31390  12.386  13.598   1.333 -0.2092  0.0817  0.1818
14544W        W31391   7.657   2.435  14.162 -0.0289 -0.0295  0.0433
14545W        W31392  13.993   0.378   1.445 -0.1637  0.0078 -0.2561
14546W        W31393  10.699  17.865  12.973  0.2061 -0.2603 -0.0856
14547W        W31394  10.606   2.443  11.923  0.1027 -0.2488 -0.0737
14548W        W31395   1.651   7.059  11.759 -0.1340  0.3751 -0.1871
14549W        W31396  14.996   3.998  14.217  0.3638  0.0067  0.1228
14550W        W31397  14.873  12.505   1.418 -0.1511  0.4801 -0.0122
14551W        W31398  14.800  13.736  11.207 -0.2066  0.0139 -0.3582
14552W        W31399  14.052  11.577   0.618 -0.0604 -0.1551  0.2389
14553W        W31400   3.566  10.661  14.725 -0.0253  0.0714  0.1386
14554W        W31401   3.202   0.599  11.744 -0.0976 -0.0887 -0.0321
14555W        W31402   2.070  14.194  14.270 -0.0382  0.0713 -0.2915
14556W        W31403   1.272  15.786   1.631  0.1108 -0.1610  0.1166
14557W        W31404   6.442   2.419  14.810  0.0270  0.0218  0.0176
14558W        W31405   5.991   4.254   2.092 -0.2085  0.1128  0.1936
14559W        W31406   2.269  15.282  14.745 -0.0384 -0.1262  0.0298
14560W        W31407  10.246  16.671   1.269 -0.0680  0.2627 -0.3969
14561W        W31408  14.378  14.677   2.491 -0.3197 -0.2293  0.2633
14562W        W31409  13.103   2.886  12.618 -0.1913 -0.0380  0.0453
14563W        W31410  13.076  13.015  14.301  0.0775  0.0763 -0.3493
14564W        W31411  13.238   8.424   1.579 -0.0495 -0.2245 -0.0116
14565W        W31412  16.579   5.887   2.765 -0.0598 -0.0163  0.1526
14566W        W31413   8.309   8.381   0.638 -0.1270  0.4141 -0.0257
14567W        W31414  16.700   8.852   4.201  0.0107  0.1439 -0.3219
14568W        W31415  15.636  11.270   2.512 -0.3582 -0.1920  0.0298
14569W        W31416   0.346  10.335  15.837 -0.2856  0.1536  0.2315
14570W        W31417  10.599   7.587   3.622 -0.1662  0.1309  0.0142
14571W        W31418   2.070   5.771   0.138  0.0520 -0.1045  0.0315
14572W        W31419  12.692  12.196   4.134  0.1033 -0.0390 -0.0705
14573W        W31420  14.787   1.646   4.268 -0.3018  0.2061  0.2346
14574W        W31421  12.510   6.955  12.666 -0.2947 -0.0682 -0.0509
14575W        W31422  17.718  10.131   0.907  0.0160 -0.0955  0.0156
14576W        W31423  16.577   6.254   3.101  0.1267  0.1334 -0.1861
14577W        W31424  14.479   4.994  11.212  0.3546 -0.1321 -0.0662
14578W        W31425   6.839  13.025   3.628 -0.0542  0.0585 -0.1230
14579W        W31426   9.110  15.055  11.308  0.1870  0.2888  0.1852
14580W        W31427   5.291  10.776   1.896 -0.2250  0.0311 -0.2994
14581W        W31428   5.768  11.370  13.085  0.1645  0.0116  0.3419
14582W        W31429   3.739   0.852   0.930  0.4071 -0.0567  0.0146
14583W        W31430   7.055   9.215  13.971 -0.1262  0.0918 -0.1942
14584W        W31431  15.868   4.210   3.464  0.2508  0.1949  0.1985
14585W        W31432   1.383   7.125  14.256  0.0224 -0.1384 -0.0368
14586W        W31433   7.389   9.667  15.144 -0.4511 -0.0950  0.0097
14587W        W31434  14.897  10.203   4.279  0.2101 -0.0210  0.1321
14588W        W31435   6.820  18.066   1.157 -0.0955 -0.0640 -0.0329
14589W        W31436   0.761  12.451   0.929 -0.1389  0.2270  0.0138
14590W        W31437   4.662   3.366   4.133 -0.2842  0.0394  0.0708
14591W        W31438   7.022   1.253  14.095 -0.2597  0.0360 -0.0026
14592W        W31439   4.025   9.734  11.496  0.1798 -0.3134  0.0858
14593W        W31440   9.033   6.531  15.215  0.0374 -0.0526 -0.0827
14594W        W31441   5.936  11.910  13.192 -0.0521 -0.0077  0.1835
14595W        W31442  12.881   7.359  10.826  0.0515 -0.0926 -0.0232
14596W        W31443   2.939   1.831  15.910  0.0755 -0.0565  0.1281
14597W        W31444  10.701  14.721  13.131 -0.1260  0.1021 -0.1621
14598W        W31445  15.537  13.274  15.340 -0.0228  0.3380  0.3574
14599W        W31446   8.264  15.425   2.082 -0.1632 -0.2442  0.0409
14600W        W31447  13.066   5.982  11.235 -0.1983  0.3719  0.0789
14601W        W31448  14.424   3.602  12.952  0.1660  0.2203 -0.0692
14602W        W31449   0.742  16.919   4.626 -0.3795 -0.0461 -0.1245
14603W        W31450  11.238  12.397   1.837  0.2438 -0.2514 -0.1284
14604W        W31451   0.882   2.006   4.984 -0.1435 -0.1779  0.2342
14605W        W31452  11.483   1.782  12.135 -0.2068 -0.0439 -0.0355
14606W        W31453  17.339   9.040   0.990 -0.1457  0.0523  0.0649
14607W        W31454   6.610   1.744   4.922  0.2736  0.0263 -0.1024
14608W        W31455  13.123  12.825  15.105  0.1343  0.0168  0.1685
14609W        W31456   0.060  16.304   5.755 -0.0045  0.0415  0.0050
14610W        W31457  12.569  12.843  12.909 -0.1700 -0.0830 -0.2462
14611W        W31458  16.684  13.289   3.038 -0.2584  0.0142 -0.1830
14612W        W31459  12.077  12.367   2.785  0.5035  0.3247 -0.0955
14613W        W31460   9.542   2.409  15.183  0.1369  0.6136 -0.1314
14614W        W31461  13.055   7.446   4.410 -0.3402 -0.0530  0.1738
14615W        W31462   4.502   7.272  12.403 -0.0878  0.0863  0.0286
14616W        W31463   3.399   3.236  12.204  0.0925 -0.2092 -0.0725
14617W        W31464  11.314   6.222  14.652 -0.0332  0.0556 -0.3261
14618W        W31465  17.833   4.473  14.292 -0.2116  0.2173 -0.2670
14619W        W31466  17.636  17.580  10.943 -0.1468 -0.0812  0.0909
14620W        W31467  10.590  12.116  14.262  0.2602 -0.3306 -0.0604
14621W        W31468  10.468  17.352   2.930  0.2528  0.1089  0.0164
14622W        W31469   2.334   5.197  11.397  0.1730  0.1744  0.2380
14623W        W31470   1.026   1.291   1.437 -0.0559 -0.2548 -0.3447
14624W        W31471   1.458  18.485   5.200  0.0649  0.1552 -0.0781
14625W        W31472  15.697   7.908  10.014  0.2710  0.2010 -0.1941
14626W        W31473   7.145  12.073  11.348 -0.0073  0.0618  0.0091
14627W        W31474  12.000   5.329  10.646  0.0195 -0.1157  0.2412
14628W        W31475  17.174   1.488  12.521  0.0163 -0.0117 -0.1305
14629W        W31476  17.838  10.804  15.630 -0.3491  0.1099  0.1746
14630W        W31477   8.284  17.909  14.309  0.0330  0.0939  0.1798
14631W        W31478   1.927  12.069   5.649  0.1515 -0.1652  0.3178
14632W        W31479   7.930   1.186   2.047  0.3306  0.1566 -0.3119
14633W        W31480   8.029   1.802  15.780  0.0890  0.4737 -0.2868
14634W        W31481   1.136   5.868   3.560  0.1899 -0.1578  0.1859
14635W        W31482   5.462   3.453   4.547 -0.1766 -0.0979 -0.1033
14636W        W31483   1.195  10.659   2.191 -0.1977 -0.2675 -0.1531
14637W        W31484   1.313   6.951   1.041 -0.0563 -0.1180  0.2037
14638W        W31485   5.832  16.518   4.484  0.0959 -0.0416 -0.1242
14639W        W31486  13.232   4.874   1.066  0.2856  0.0056  0.0136
14640W        W31487  10.230   2.283   1.938 -0.0952 -0.2830 -0.0805
14641W        W31488  11.786   3.567   9.835  0.1257  0.2200 -0.1969
14642W        W31489   4.671   0.615  10.865 -0.1711 -0.2332  0.1225
14643W        W31490   6.598  12.113  14.803  0.0749  0.0324 -0.0160
14644W        W31491   0.310   4.932   0.706 -0.2510 -0.2771  0.0068
14645W        W31492  18.226  13.460  12.126 -0.1105 -0.0475  0.4327
14646W        W31493   0.561   5.769   3.839  0.1359 -0.1732  0.1189
14647W        W31494   1.277   1.081  12.556 -0.0445 -0.2920  0.0252
14648W        W31495  16.625   4.274   1.776  0.1123  0.2225 -0.2897
14649W        W31496  10.093   1.849   2.247 -0.1944 -0.0032 -0.0251
14650W        W31497   9.400  18.305  10.799  0.0413 -0.3951 -0.1515
14651W        W31498  13.413  13.723   1.220 -0.3846  0.2396  0.2893
14652W        W31499  15.569   1.110   2.938  0.0771 -0.0173 -0.0772
14653W        W31500  14.037  17.983   1.849  0.0227  0.0813 -0.2776
14654W        W31501   2.205   3.967  12.787  0.0506  0.1140 -0.2187
14655W        W31502  15.784  15.167   4.224  0.2377  0.1204  0.0892
14656W        W31503   7.289   4.608   1.789 -0.0108  0.1693 -0.0557
14657W        W31504   0.386  13.746  13.054  0.0328  0.1492  0.3298
14658W        W31505   0.377  11.011   3.539  0.1632  0.0295  0.3392
14659W        W31506   3.252   4.773  11.295  0.0376  0.2662  0.2383
14660W        W31507   4.889   8.770   2.278  0.0044 -0.0835  0.1505
14661W        W31508   5.478   6.091   1.503 -0.0040 -0.0021 -0.0229
14662W        W31509   5.081  17.361  10.702  0.2629 -0.1015 -0.2539
14663W        W31510   7.106  16.270   1.097 -0.1977 -0.0233 -0.0729
14664W        W31511  13.127   7.067   1.676 -0.1981 -0.0197 -0.1779
14665W        W31512  10.084   6.485  12.541  0.0503 -0.1801  0.1044
14666W        W31513   6.199  10.185  11.598  0.0538 -0.1646  0.1160
14667W        W31514   9.725   6.805   4.739  0.0969  0.3750 -0.0242
14668W        W31515   8.297   2.470  10.553 -0.0743 -0.2285 -0.1998
14669W        W31516  14.432  10.102   3.288  0.2298  0.1819 -0.0130
14670W        W31517  16.071  14.862  11.878 -0.1433 -0.0241 -0.0255
14671W        W31518  15.101   9.947  14.477 -0.0251 -0.1065  0.3879
14672W        W31519   8.858   3.324  13.667 -0.0638  0.1507  0.1496
14673W        W31520   5.435  18.389  15.100  0.2054 -0.3638 -0.1326
14674W        W31521   7.998  12.716   4.172 -0.0241 -0.1541  0.2796
14675W        W31522   3.525   4.972   5.170  0.1597  0.0293 -0.1861
14676W        W31523  16.614   2.170  12.208  0.2018 -0.0927  0.0992
14677W        W31524  15.190   3.818   5.891 -0.2923 -0.0151  0.1293
14678W        W31525   5.144   6.498  12.150  0.2375  0.1163 -0.3188
14679W        W31526   0.828  15.936  11.609 -0.0660  0.1697  0.3036
14680W        W31527   8.498  18.255   4.160 -0.1111  0.1509 -0.1051
14681W        W31528  12.379   0.672  11.858  0.2181 -0.0811  0.0132
14682W        W31529   9.113   3.927  12.925 -0.0243 -0.0039  0.0018
14683W        W31530  10.300   7.290  15.630  0.0455  0.1129  0.2003
14684W        W31531  16.523  16.566   4.694 -0.3139  0.2307  0.0360
14685W        W31532   1.541   6.177   0.831 -0.1210  0.2031  0.1017
14686W        W31533   6.660   0.098  11.011 -0.0419 -0.1287 -0.1366
14687W        W31534   4.230   2.343   2.709  0.0909  0.1132  0.2657
14688W        W31535   1.947  14.188  15.141 -0.0171  0.1222  0.1247
14689W        W31536   2.479   1.978  14.106 -0.3338 -0.0071 -0.2584
14690W        W31537  16.144  12.723  14.916  0.1263 -0.0131  0.0127
14691W        W31538  12.860  12.610  13.708  0.0993  0.0397 -0.1098
14692W        W31539  14.364   4.939  13.748  0.0595 -0.0023  0.1124
14693W        W31540   7.906   1.998  11.720 -0.2336  0.1090  0.1076
14694W        W31541  16.706   6.597  11.221 -0.0514  0.1188  0.1516
14695W        W31542   9.137   8.826   0.772 -0.0651  0.0757 -0.1083
14696W        W31543  18.402   2.623   0.475 -0.1351  0.0009  0.2110
14697W        W31544   1.778  13.309   0.900 -0.0087  0.0053 -0.2868
14698W        W31545   4.540   4.494  14.870  0.1423  0.0841  0.2322
14699W        W31546   6.020   6.062   3.512 -0.0711 -0.0316 -0.1585
14700W        W31547   0.310  17.018  15.179 -0.1049 -0.2586  0.3562
14701W        W31548  15.264   8.195  14.059 -0.0726 -0.0677  0.2407
14702W        W31549   1.209   9.495   2.983  0.0994 -0.1901 -0.0735
14703W        W31550   5.275   0.568  15.556  0.1756  0.2358  0.0450
14704W        W31551   7.782   3.954  15.585 -0.1488  0.0497  0.0470
14705W        W31552   4.515  16.512   2.867 -0.2065 -0.1965  0.0163
14706W        W31553   1.575   8.982  11.614 -0.2969  0.4416 -0.0112
14707W        W31554   3.323  10.000  15.905 -0.2357 -0.0734  0.0499
14708W        W31555   5.833   7.550   0.667  0.1479  0.0724 -0.0397
14709W        W31556  12.698  10.472  13.246  0.0521  0.1353 -0.1067
14710W        W31557   9.917   2.057  10.911 -0.4021  0.0322 -0.2543
14711W        W31558   5.163  14.008  13.362 -0.0872  0.0569 -0.0005
14712W        W31559   3.511   1.194   3.868  0.1629  0.1060  0.1972
14713W        W31560   9.037   6.917  12.034  0.0306  0.2731  0.0055
14714W        W31561  11.274  13.495   4.133 -0.0903 -0.0201 -0.3416
14715W        W31562  11.464   8.818  13.328  0.1170  0.0708 -0.0683
14716W        W31563   1.181   8.344   0.970 -0.1912  0.0784 -0.1893
14717W        W31564   5.306  14.255   4.039 -0.1700 -0.0969 -0.0608
14718W        W31565   4.196   4.928   3.982 -0.2531 -0.0880 -0.0072
14719W        W31566   8.823  13.039   2.693 -0.0225  0.2570 -0.0290
14720W        W31567  16.684   4.729   0.231 -0.3272  0.1790 -0.0073
14721W        W31568   8.442  11.307   2.645  0.3026  0.0410 -0.2175
14722W        W31569   8.493   0.735   0.733  0.0762  0.0559  0.2052
14723W        W31570  12.264  13.366   3.299  0.0503 -0.3155 -0.0975
14724W        W31571   3.737   1.362   2.419  0.2138  0.2025  0.2613
14725W        W31572  18.179   4.317   2.382 -0.2347 -0.0694 -0.0275
14726W        W31573  17.240   4.850  13.444  0.0551 -0.0823  0.0350
14727W        W31574   1.103  13.073   3.839  0.1943  0.1966 -0.0115
14728W        W31575   8.326   3.635   1.083 -0.4405  0.1034  0.0549
14729W        W31576  12.926  11.170   0.784 -0.3029  0.0642 -0.0802
14730W        W31577   2.779  10.270   0.247 -0.2503  0.0158 -0.3085
14731W        W31578  13.810   4.863  13.811 -0.0548 -0.2386 -0.3373
14732W        W31579   2.849   8.389  12.736  0.1742  0.0235  0.0486
14733W        W31580  13.627  12.920   1.784  0.3703  0.0510  0.2041
14734W        W31581  18.051  14.478   3.615 -0.1043 -0.1240  0.0231
14735W        W31582  13.928   3.169   4.157  0.0696  0.3010 -0.0044
14736W        W31583   0.820   4.919   4.907  0.0734  0.2581  0.1988
14737W        W31584   0.152   5.653   0.125 -0.3934 -0.2089  0.3681
14738W        W31585  18.385   1.362  13.449  0.0471  0.0908  0.1076
14739W        W31586   3.974   5.783  11.545 -0.2219  0.3072  0.0949
14740W        W31587   2.368  12.043   0.373 -0.2021  0.1891 -0.0222
14741W        W31588   7.077   0.810  12.997  0.1461  0.1681 -0.0669
14742W        W31589   9.294  18.210  15.863  0.1735 -0.0334 -0.3869
14743W        W31590   6.155  13.012  14.021 -0.2425  0.1541 -0.2041
14744W        W31591  10.082   2.487  11.094  0.0801  0.0831  0.1379
14745W        W31592   0.272   2.345   0.591 -0.2436 -0.2522 -0.1158
14746W        W31593   2.449   2.175   3.488  0.0375 -0.0161 -0.2480
14747W        W31594   9.466  16.630   0.235 -0.0756  0.1082  0.1288
14748W        W31595  12.735  17.610  13.179  0.2512  0.0767 -0.1036
14749W        W31596  16.489   0.887  12.132  0.0977  0.2777 -0.1348
14750W        W31597  12.110   7.563  12.128 -0.2930  0.0778 -0.1892
14751W        W31598   0.644   2.748   5.363 -0.1078 -0.0858  0.1318
14752W        W31599  14.274  13.349  11.560 -0.1320  0.0116  0.1748
14753W        W31600  11.221   2.020  13.349 -0.1314 -0.2014  0.2265
14754W        W31601  13.797   5.616   5.341 -0.1924  0.2252 -0.0409
14755W        W31602  16.279  11.440  13.905 -0.1726 -0.2130  0.0446
14756W        W31603   8.548   0.271   0.898  0.1368 -0.1258 -0.0411
14757W        W31604  13.976   9.240   3.164 -0.1703  0.0380  0.0279
14758W        W31605   2.177   1.171   4.243 -0.0595  0.1742 -0.3074
14759W        W31606  17.939  17.285  13.653  0.2995  0.1605 -0.1734
14760W        W31607   1.688  16.612   0.812  0.1094 -0.0195  0.0995
14761W        W31608  14.129   1.121   2.064  0.1131 -0.0666  0.4115
14762W        W31609  18.189   2.978   3.958  0.1746 -0.1998 -0.0690
14763W        W31610   7.315   2.396  14.776  0.1139 -0.1571  0.2459
14764W        W31611   2.864  13.507   4.278 -0.2291  0.1141  0.0001
14765W        W31612  12.049  12.627   3.389  0.0551 -0.0938 -0.0347
14766W        W31613   6.665   8.364   1.522 -0.0730 -0.3097 -0.3208
14767W        W31614   7.564  12.669   4.764 -0.0499  0.1067  0.1073
14768W        W31615   0.472  15.462  14.043 -0.0333  0.1687 -0.0676
14769W        W31616  13.722   2.766  12.987  0.0405  0.4016  0.0199
14770W        W31617   4.550   0.331   4.921  0.0849  0.0651  0.2632
14771W        W31618   9.070   4.731  15.930  0.0795  0.4014  0.1791
14772W        W31619  15.045  18.490  15.065  0.2029  0.2197 -0.0769
14773W        W31620  13.190  13.920  12.516 -0.1892  0.3724  0.0572
14774W        W31621  18.118   2.134  13.436 -0.0837 -0.4518  0.0941
14775W        W31622  13.467   6.151  12.390 -0.2307  0.2908  0.3806
14776W        W31623  17.998  17.433   4.004  0.1246  0.0346 -0.0154
14777W        W31624   1.493  11.864  14.140  0.2295 -0.2190 -0.1598
14778W        W31625   4.609  15.946   3.950 -0.3750 -0.0364 -0.3363
14779W        W31626   0.527  11.204   5.338  0.1594  0.0463  0.1115
14780W        W31627   1.850   4.442   4.478 -0.1385 -0.2161  0.0565
14781W        W31628  12.715   1.288   4.770  0.0265  0.0577  0.0020
14782W        W31629   4.286  16.109  14.308  0.0379  0.2043  0.1080
14783W        W31630   1.459   8.424  11.801 -0.4463  0.2662  0.0391
14784W        W31631   1.160   1.623  13.044 -0.1446  0.1222 -0.2983
14785W        W31632   8.205  11.088  12.656  0.2569 -0.2292  0.1492
14786W        W31633   6.823  16.493   3.885  0.0922  0.1992 -0.2658
14787W        W31634   3.616   9.405   0.524  0.1383  0.3258  0.2428
14788W        W31635  13.247   2.389  12.852  0.0542  0.2699  0.1631
14789W        W31636  16.025   3.223   3.391 -0.0887  0.1422 -0.1826
14790W        W31637  15.827   3.707  13.027 -0.0457 -0.1919  0.1071
14791W        W31638  12.963  11.937  12.882 -0.0920 -0.2228  0.2320
14792W        W31639   0.878   1.158  12.240  0.0820  0.4302  0.0383
14793W        W31640   4.681  16.598  11.214 -0.1056  0.2445  0.0009
14794W        W31641   8.963   6.471  14.089 -0.1394  0.0289  0.1905
14795W        W31642   9.361   6.375  15.661  0.0928 -0.0439  0.0697
14796W        W31643  17.523  14.089  14.965  0.0595 -0.1855  0.2225
14797W        W31644   0.876   8.561  15.095 -0.0446 -0.0887 -0.1562
14798W        W31645  10.779  15.269  13.023  0.0097 -0.0037 -0.0540
14799W        W31646  14.133  16.313   4.623 -0.0780 -0.0884 -0.1744
14800W        W31647   0.878  13.452   4.242  0.0262  0.1745 -0.2498
14801W        W31648  17.034   7.930  15.625 -0.0956 -0.0189  0.2125
14802W        W31649  14.984   4.601  15.560 -0.0281 -0.2083 -0.0379
14803W        W31650  13.282  17.981  12.823 -0.2340 -0.1637 -0.1075
14804W        W31651   5.632  13.316  14.955  0.2654  0.0880 -0.2058
14805W        W31652   2.144  14.875   2.370 -0.1574  0.0236 -0.1612
14806W        W31653   7.539   7.657  14.587 -0.1679  0.0930  0.1327
14807W        W31654  14.753  14.824  15.351  0.1843 -0.1828  0.0784
14808W        W31655  10.230  14.707   2.786  0.1090  0.0783 -0.2405
14809W        W31656  11.971  13.542   4.767 -0.0117  0.0702 -0.0598
14810W        W31657  11.463   4.933   2.073 -0.0128 -0.0102 -0.0894
14811W        W31658   0.542  17.720  12.982  0.1501  0.0137  0.1060
14812W        W31659   0.323  18.395   0.631 -0.3397  0.0574 -0.2390
14813W        W31660  12.208   2.064  12.433 -0.0059  0.0191  0.1686
14814W        W31661   8.346   7.547  15.744  0.2875  0.3923  0.2736
14815W        W31662   0.596  15.347  14.524  0.0720 -0.1028  0.3081
14816W        W31663   9.057  17.301  14.229 -0.2122 -0.1349  0.0594
14817W        W31664  17.871   3.552   2.209 -0.3267  0.0413 -0.0146
14818W        W31665  15.642   8.313  14.355 -0.1856  0.0904 -0.3364
14819W        W31666   8.341   0.806  14.741 -0.1543  0.2216  0.0523
14820W        W31667  11.585   2.219  15.366 -0.1221  0.2852 -0.1029
14821W        W31668   5.019  16.006   1.592 -0.0582 -0.0460  0.2856
14822W        W31669  14.961  15.078   5.306 -0.0623  0.2636 -0.0662
14823W        W31670  17.124   7.793  12.661  0.4446 -0.0113 -0.0294
14824W        W31671  17.847   6.904  13.262  0.1594  0.3571  0.1668
14825W        W31672   3.281  18.434   5.622  0.2303 -0.1035 -0.0744
14826W        W31673  13.400  16.995   2.574 -0.0118 -0.2118 -0.3993
14827W        W31674  16.556  11.338  12.697  0.1461  0.0495  0.2110
14828W        W31675   5.468  16.165  12.169  0.0152  0.2547 -0.2712
14829W        W31676  12.678   6.557  11.326  0.0325  0.0953  0.4849
14830W        W31677  12.713   3.200  13.288 -0.0273 -0.1286  0.1428
14831W        W31678  13.741   5.132  10.986  0.5391 -0.1845 -0.1582
14832W        W31679   3.357  11.189   5.399 -0.0891  0.0829  0.2192
14833W        W31680   8.995  12.047  15.175  0.2619  0.2157  0.3104
14834W        W31681   7.400  10.439  15.002 -0.1838  0.0232  0.0857
14835W        W31682   4.309   4.119   0.696  0.0355 -0.0974  0.1226
14836W        W31683   0.894  14.852   4.240 -0.0238  0.1749 -0.0080
14837W        W31684   0.165   0.166   2.651  0.2627  0.3669 -0.0641
14838W        W31685   6.869   2.160   3.311  0.2376 -0.2336 -0.1064
14839W        W31686  17.218  12.447  15.075 -0.0094 -0.0305  0.0618
14840W        W31687   9.409  16.888   1.741 -0.1588 -0.1879  0.0078
14841W        W31688  15.277  12.351  13.391  0.0341  0.2884  0.0356
14842W        W31689   6.369   0.533   6.135  0.0202 -0.0212  0.0442
14843W        W31690   0.344  12.611   0.611  0.0275 -0.0862  0.3696
14844W        W31691   7.027   7.589   2.461 -0.1888  0.2717 -0.1984
14845W        W31692   3.818  11.897   0.347 -0.0143 -0.1860  0.0430
14846W        W31693   4.938  15.498  15.401 -0.2726 -0.2751  0.0900
14847W        W31694   2.538  17.326   2.186 -0.2269  0.2842  0.2057
14848W        W31695  10.453  18.245  14.882 -0.2649  0.1472  0.2535
14849W        W31696  14.929   3.833  13.745 -0.0411  0.2380  0.3089
14850W        W31697  14.881   2.073  12.413  0.0332 -0.1848 -0.2236
14851W        W31698   8.854   3.824  10.993 -0.1100 -0.0459 -0.0678
14852W        W31699   7.228  10.898   3.233  0.1338  0.2123  0.1495
14853W        W31700   9.038   1.448  11.764 -0.2541  0.1168 -0.0342
14854W        W31701  15.453  13.216  11.551 -0.0508 -0.0053 -0.0746
14855W        W31702  12.703   8.116   2.997 -0.0580  0.2956 -0.1482
14856W        W31703  16.685  18.314  12.074  0.1250  0.0877 -0.5595
14857W        W31704  15.283   8.337   3.250 -0.1257  0.4005 -0.1700
14858W        W31705  15.294   8.344  12.110  0.1470  0.3284 -0.1168
14859W        W31706   3.311  12.802   0.297  0.1822 -0.0105  0.0521
14860W        W31707   2.512  16.949  15.863 -0.0970 -0.1050  0.0150
14861W        W31708  13.105   6.718   3.013  0.1110 -0.0719  0.0791
14862W        W31709   4.897  12.822  12.794  0.0878  0.0765  0.3336
14863W        W31710   4.666   0.563   2.012 -0.2020  0.3044 -0.1197
14864W        W31711   8.151  17.244  13.070  0.1983  0.2927  0.1358
14865W        W31712   3.042   1.612   4.045  0.0569  0.2432 -0.0122
14866W        W31713   0.445   6.500   3.382  0.1791 -0.2629  0.2045
14867W        W31714   7.109   9.292   4.617 -0.0569  0.1843  0.0797
14868W        W31715   8.329  16.093  12.249  0.2476  0.0932 -0.0899
14869W        W31716  10.797   7.044  15.120  0.2230 -0.1832  0.0232
14870W        W31717  11.709   2.695  12.658  0.0213  0.1915 -0.1828
14871W        W31718   1.323  10.931   5.886 -0.3028 -0.3021 -0.0620
14872W        W31719  14.356  12.782  11.291 -0.0162 -0.0852  0.2539
14873W        W31720  15.683  16.128   1.402  0.1615  0.2062 -0.4449
14874W        W31721   2.163   3.075  12.484 -0.1872 -0.0470  0.0006
14875W        W31722  16.614   4.601   2.532  0.0254 -0.3499 -0.0520
14876W        W31723  11.353  14.786  15.764  0.0189  0.0534  0.2516
14877W        W31724  13.194  16.621   4.661  0.1858  0.1592  0.2348
14878W        W31725   3.142   6.688  14.855 -0.2185  0.2492 -0.1716
14879W        W31726  17.669  13.899   1.339  0.0015 -0.3660 -0.2210
14880W        W31727  14.645  11.183  14.163  0.0650 -0.1855  0.3662
14881W        W31728   3.278   2.971  12.669 -0.0956 -0.0323 -0.0904
14882W        W31729   9.651   1.749  11.311  0.1842  0.1869 -0.2346
14883W        W31730  12.872  17.844   1.020 -0.0812  0.0084  0.2693
14884W        W31731   2.772   8.444  10.238  0.0482  0.2509 -0.0393
14885W        W31732  17.783   4.970   1.043  0.0503  0.2243 -0.1186
14886W        W31733   9.701   9.555   0.677  0.0831  0.1298  0.1903
14887W        W31734   3.005   3.904   1.745 -0.2621 -0.0882 -0.0625
14888W        W31735   6.519  14.315   0.983 -0.0087 -0.0177 -0.1176
14889W        W31736   0.723   8.222   1.867 -0.0588  0.1419  0.4804
14890W        W31737   6.531   9.965  11.361  0.0265  0.0345 -0.1532
14891W        W31738  12.765  14.109  13.067 -0.1514  0.1862  0.2344
14892W        W31739  11.546   5.568  14.413  0.0530 -0.0445  0.0084
14893W        W31740   8.204   8.879   0.035  0.0086  0.2137 -0.0427
14894W        W31741  17.618  16.000  12.645  0.2102 -0.2666 -0.5499
14895W        W31742  13.072  17.316  12.094 -0.1836 -0.1149 -0.0510
14896W        W31743   5.428  10.060   3.153 -0.1863  0.1807  0.0486
14897W        W31744   9.469   6.418   0.645 -0.1617 -0.0829  0.1788
14898W        W31745   3.658   8.451  12.771 -0.0853  0.0580  0.0608
14899W        W31746   0.445   3.744   0.928 -0.0237 -0.2053  0.0145
14900W        W31747   9.868   9.404  13.189  0.1605 -0.1807  0.2052
14901W        W31748   7.204  16.661  12.011  0.0242 -0.0229 -0.1008
14902W        W31749   6.426   6.708  11.800 -0.0296  0.0734 -0.1112
14903W        W31750   2.920   6.550  11.911  0.2974  0.2189  0.0890
14904W        W31751   7.317  15.994   1.428 -0.1680  0.1982  0.0616
14905W        W31752   0.209  10.053  14.298 -0.0394 -0.0104  0.2241
14906W        W31753   4.925   0.606   2.501 -0.1589  0.0927 -0.1692
14907W        W31754  16.994   4.080  15.068  0.2155 -0.1234 -0.1042
14908W        W31755   8.929   5.355   1.235  0.2889 -0.1759 -0.0773
14909W        W31756   2.001   7.472   4.729 -0.1916  0.0425  0.0340
14910W        W31757   0.190  17.621   1.910 -0.1173 -0.1168 -0.1518
14911W        W31758   7.420   0.840  14.865 -0.0394  0.0705  0.3113
14912W        W31759  14.013   7.351  15.625  0.0695  0.1017 -0.2101
14913W        W31760  11.716  12.141   4.835 -0.0085  0.0998 -0.1657
14914W        W31761  18.390  14.990   4.528  0.2986  0.1740  0.0554
14915W        W31762   5.852  17.838   0.422  0.3478 -0.3997 -0.0077
14916W        W31763  11.823  10.224   0.424 -0.1533 -0.3879 -0.2128
14917W        W31764  13.820   5.414   3.015  0.2190  0.1312 -0.0422
14918W        W31765  15.967  12.240  11.396 -0.1153 -0.2116  0.0928
14919W        W31766  15.620  14.133  13.983 -0.2160  0.2855 -0.0008
14920W        W31767  14.691  11.682  14.017  0.1322 -0.0560  0.2332
14921W        W31768  17.368   1.562   4.612 -0.1154 -0.1915  0.1526
14922W        W31769   4.924  14.846  11.746  0.0498  0.2739 -0.4203
14923W        W31770   3.999   2.268  12.689  0.2846 -0.0533 -0.3605
14924W        W31771   4.132   0.006  12.491 -0.1128 -0.1768  0.0163
14925W        W31772  14.842  14.766   0.446  0.2164 -0.0843 -0.2855
14926W        W31773   4.460   6.458   0.444  0.0534 -0.1631  0.0048
14927W        W31774   9.277  15.484   3.992  0.1344  0.2674 -0.0308
14928W        W31775   8.047  15.975   3.037  0.1519 -0.3161  0.1165
14929W        W31776   0.410   5.717  13.872  0.0798 -0.3298  0.1662
14930W        W31777  17.925   9.441  13.203  0.3654 -0.0596  0.1232
14931W        W31778  11.367   3.916   1.249 -0.0931 -0.0840  0.1973
14932W        W31779   3.813  12.911   3.687  0.0627  0.1230  0.3902
14933W        W31780  18.227   2.159   1.723  0.0932 -0.0811  0.3044
14934W        W31781   8.191  11.032   5.090 -0.0320  0.3023  0.1700
14935W        W31782  10.962   6.555  15.360  0.0690  0.1688 -0.0171
14936W        W31783  13.083  15.853   2.369  0.0699 -0.0665 -0.0396
14937W        W31784   9.529  16.712   2.922  0.0771  0.0564  0.1831
14938W        W31785  16.120   3.684  15.463 -0.1404 -0.1180  0.1847
14939W        W31786   3.049   3.243  15.799 -0.2524  0.0777  0.1120
14940W        W31787   2.814  14.145  11.544 -0.1252 -0.2486 -0.0109
14941W        W31788   6.180   3.436   5.038  0.1002 -0.3156  0.2748
14942W        W31789  16.698  17.661   1.354 -0.1547  0.0269  0.0575
14943W        W31790   4.271  14.050   3.418  0.4452  0.0321 -0.1476
14944W        W31791   4.960  14.652   5.799  0.1597  0.0359 -0.0951
14945W        W31792   1.444   4.764  15.935  0.0386 -0.0442 -0.1955
14946W        W31793  14.180   7.757   4.826 -0.2782  0.1365  0.1832
14947W        W31794   0.862   5.662  11.881  0.3083  0.0579  0.0438
14948W        W31795   2.178   1.757   3.641 -0.1409 -0.3025  0.1092
14949W        W31796   2.486   3.157   4.954  0.3118  0.1005 -0.0993
14950W        W31797   2.506  14.395  14.336 -0.1206 -0.1190 -0.3473
14951W        W31798   3.863   6.762   5.418 -0.0453  0.3252  0.0835
14952W        W31799   5.164   3.950  12.674  0.1698 -0.0049 -0.0851
14953W        W31800  15.427   8.191   0.023  0.1020  0.2173 -0.0184
14954W        W31801   2.984   3.901  13.941  0.1030 -0.0594  0.1607
14955W        W31802   8.135   4.108  13.273 -0.0008  0.1660 -0.1759
14956W        W31803   4.029   3.718   1.792  0.0106 -0.1313  0.1152
14957W        W31804   0.086   6.002  12.144  0.0603  0.1129 -0.0078
14958W        W31805  13.116   2.752  11.292  0.2151  0.2304  0.3362
14959W        W31806  12.333   8.026   2.278  0.2878 -0.0690  0.0771
14960W        W31807   4.260   2.863   2.559 -0.1483  0.0402 -0.4553
14961W        W31808   7.126   1.589  15.722  0.0367  0.3132 -0.1495
14962W        W31809   9.331  11.404   0.542 -0.1770  0.1089 -0.3409
14963W        W31810  15.744   5.759  14.567 -0.3308 -0.0921  0.2926
14964W        W31811  12.313   1.994  14.791 -0.3944  0.0974 -0.1268
14965W        W31812   6.445   6.903  15.116 -0.1315 -0.0186 -0.0453
14966W        W31813   9.147   2.127   2.068  0.1369  0.0047 -0.1965
14967W        W31814  11.816  12.852  14.204  0.0688  0.2426 -0.3226
14968W        W31815   6.288   4.373   3.654 -0.0538  0.0228 -0.0934
14969W        W31816   9.592   5.860   4.888 -0.0578  0.1648 -0.3429
14970W        W31817   7.536  15.272   1.718 -0.1440 -0.0036  0.0275
14971W        W31818  11.363   1.006   0.314  0.0516  0.0660  0.1458
14972W        W31819  18.444   3.130   4.450  0.0148  0.0365  0.1151
14973W        W31820  10.384  14.808   1.567  0.0994  0.0749 -0.0732
14974W        W31821  14.970   2.275  15.372 -0.2284 -0.0828  0.2570
14975W        W31822  14.369   7.298  14.495 -0.1452  0.2512  0.3310
14976W        W31823  13.396  13.860   5.056 -0.0416 -0.2119 -0.0105
14977W        W31824   2.779  13.768  12.768 -0.1190  0.0223  0.1066
14978W        W31825  12.099   3.930  14.301 -0.0316 -0.1037 -0.2502
14979W        W31826  16.511   5.765  12.213  0.1365 -0.1269 -0.0503
14980W        W31827   4.809  10.539   3.677 -0.1267 -0.0503  0.3921
14981W        W31828  16.856   0.409  12.665  0.2689  0.0095 -0.0191
14982W        W31829  15.138  18.220  14.183  0.0983 -0.0132 -0.0525
14983W        W31830  12.227  15.787   3.523 -0.2850 -0.0815 -0.1001
14984W        W31831  16.006  15.791   1.554  0.1424  0.1269  0.0408
14985W        W31832  12.943  14.578   3.703 -0.1652 -0.3268  0.0042
14986W        W31833   2.172  13.249   1.271  0.1581  0.1332 -0.0651
14987W        W31834   0.750  14.236  13.685  0.1239  0.0459 -0.1759
14988W        W31835   5.612   6.449  12.288  0.1911 -0.1514 -0.1054
14989W        W31836  10.056   3.305   4.711  0.0588  0.0066 -0.1483
14990W        W31837  15.159  13.182  15.657  0.0632  0.2144 -0.1510
14991W        W31838   5.662  14.640  13.093  0.0350  0.2443  0.2371
14992W        W31839   5.613   1.926   3.617 -0.0067 -0.0163  0.0556
14993W        W31840   2.562   5.815   1.269 -0.1359  0.3576 -0.0168
14994W        W31841   4.849   0.891   3.011 -0.2183 -0.0888  0.0923
14995W        W31842   9.608   2.655  11.767  0.2593  0.1080 -0.2060
14996W        W31843   3.971   7.274   2.369 -0.1314  0.2186 -0.1978
14997W        W31844  13.338  17.190   3.688 -0.0406 -0.1295 -0.1438
14998W        W31845   2.073  13.702  13.936 -0.2135 -0.1179 -0.0575
14999W        W31846   1.644  17.870  14.406  0.0406 -0.2355  0.0689
15000W        W31847   3.321  17.787  12.593 -0.3166 -0.1611  0.1183
15001W        W31848   2.246  10.828   5.836 -0.1010 -0.2510 -0.0402
15002W        W31849  15.871  15.326   0.768  0.0328 -0.0090 -0.3565
15003W        W31850   9.036   3.271   0.355 -0.3493  0.1902  0.2277
15004W        W31851  10.209   4.883  12.527 -0.0678 -0.2071  0.2230
15005W        W31852  12.580  13.154   2.283  0.1764 -0.0468  0.0447
15006W        W31853  17.017   9.297   1.786  0.0303  0.1414  0.0316
15007W        W31854   4.209   6.555   3.465 -0.1630  0.0058  0.1741
15008W        W31855   9.602  13.220   0.910  0.0175  0.0675 -0.2117
15009W        W31856   7.943  12.288   3.891  0.0457  0.0676 -0.2861
15010W        W31857   4.908   6.958  14.294  0.2662 -0.3815  0.0387
15011W        W31858   3.425   9.183   1.012  0.1251  0.1582 -0.1879
15012W        W31859   4.642  14.145   2.446  0.1538  0.0558 -0.1184
15013W        W31860   2.101   7.329   3.107 -0.0397 -0.0842 -0.1180
15014W        W31861   5.514  13.032   2.467 -0.3136  0.2145  0.0680
15015W        W31862  15.360   3.357   1.102  0.2257  0.1536  0.4172
15016W        W31863   8.543  14.728   5.662  0.1251 -0.1601  0.0012
15017W        W31864   5.367  14.365   5.018  0.1570  0.1738  0.0594
15018W        W31865  10.789   2.059  11.571  0.5334 -0.0171  0.2226
15019W        W31866  17.972   0.682  10.685 -0.1582 -0.1371 -0.0089
15020W        W31867  10.117  13.562   5.464 -0.0134 -0.0320  0.2542
15021W        W31868   7.156   4.312  11.106 -0.0741 -0.1061  0.1428
15022W        W31869  11.196  12.395   4.496 -0.0759 -0.2253 -0.1382
15023W        W31870  11.813  16.327   3.996  0.1363  0.0898  0.3454
15024W        W31871   6.521   9.296   1.669  0.1407 -0.0528 -0.2135
15025W        W31872   5.231  18.243  15.775  0.0923  0.0450 -0.0822
15026W        W31873   3.223  11.581   4.995 -0.2510 -0.0199 -0.2436
15027W        W31874   1.028   2.867   5.095 -0.2397 -0.1849  0.4653
15028W        W31875  16.485  15.380   2.581 -0.3514 -0.0269  0.3427
15029W        W31876  14.112   2.005  10.989  0.0098 -0.0118 -0.3306
15030W        W31877  15.512   2.328  11.292 -0.1953 -0.2237  0.1689
15031W        W31878   9.476   6.951   0.701  0.0998  0.1061  0.2397
15032W        W31879  16.606   7.957   1.392 -0.0679  0.2716  0.0189
15033W        W31880   5.389  12.514   5.141 -0.1475 -0.2593 -0.1129
15034W        W31881   7.483  16.647   1.955  0.1590 -0.2650  0.0854
15035W        W31882   9.286   9.569   2.361  0.1847 -0.1608  0.0540
15036W        W31883   5.502  11.151  14.860 -0.0429  0.0260  0.4426
15037W        W31884  15.575   5.718   5.344 -0.0533 -0.2886 -0.1887
15038W        W31885   0.775  16.987  14.825  0.0495  0.2587 -0.2653
15039W        W31886   8.192   0.273   3.799  0.0690  0.1128 -0.0684
15040W        W31887  12.901   4.742  12.630 -0.2532  0.0257  0.3415
15041W        W31888   4.759   5.139  14.477 -0.0224  0.2063  0.0700
15042W        W31889   6.493   1.024   1.283  0.0284  0.0012 -0.0415
15043W        W31890   4.766   6.050  14.660 -0.0551  0.0347 -0.1649
15044W        W31891   6.003  12.417  12.967  0.1350 -0.1750  0.3711
15045W        W31892  15.831   1.206   4.760  0.0582 -0.2080 -0.0644
15046W        W31893  16.810  15.906  14.602 -0.3955  0.2792  0.0965
15047W        W31894   3.778   0.042  12.113  0.0161  0.0068  0.0750
15048W        W31895  16.954   5.940   3.238 -0.3476 -0.0697  0.4415
15049W        W31896  12.175   5.381   4.672  0.2014 -0.0015  0.3953
15050W        W31897   3.347   4.264  14.713  0.1775 -0.1392 -0.3008
15051W        W31898   2.916  18.085   2.693 -0.0482 -0.1633 -0.1622
15052W        W31899   8.910   3.339  12.265  0.0538 -0.0036 -0.1619
15053W        W31900  17.960  14.352   5.038 -0.0837 -0.0945 -0.2520
15054W        W31901  12.973   2.650   2.597  0.0936 -0.1171 -0.0352
15055W        W31902   6.621  15.645   5.094  0.0501  0.2830 -0.1539
15056W        W31903  14.492  11.857   0.657  0.2771 -0.1941 -0.2078
15057W        W31904  13.200   1.156   1.676  0.1484 -0.0080  0.0026
15058W        W31905   5.715   4.372  11.723 -0.1004  0.0578  0.3406
15059W        W31906   0.469  14.003   0.460 -0.0230 -0.3564 -0.0626
15060W        W31907   1.475   6.969   4.943  0.0461  0.0152 -0.2611
15061W        W31908  14.884   5.383   3.527  0.1321 -0.1150  0.1311
15062W        W31909   9.964  16.980  12.766  0.0481  0.1062 -0.1125
15063W        W31910  14.460  17.175  12.188 -0.0258 -0.2968 -0.0621
15064W        W31911   3.847   7.114   5.037 -0.0531  0.1807 -0.5733
15065W        W31912  12.073   8.413   3.407 -0.0483  0.0877 -0.0487
15066W        W31913  18.525   3.818  13.699 -0.0745 -0.0616 -0.1717
15067W        W31914   8.622  18.014  14.687  0.1603  0.2081 -0.0020
15068W        W31915   8.893   4.618  12.983 -0.2515  0.0914  0.1642
15069W        W31916   8.023  12.318   2.920  0.0412 -0.0473 -0.1292
15070W        W31917  14.426   2.069   1.078  0.0685 -0.1666 -0.0611
15071W        W31918   6.212  10.160   0.569 -0.1265  0.3306 -0.0125
15072W        W31919  12.850   7.949   0.921 -0.5498 -0.0568 -0.0077
15073W        W31920   1.737   9.885   1.740  0.1881  0.3306  0.0254
15074W        W31921   9.682  11.389   2.884  0.0805  0.0159  0.0824
15075W        W31922  12.027  13.251   1.545 -0.0725  0.3192  0.1652
15076W        W31923   6.109  12.266  14.769  0.1697 -0.2804 -0.1009
15077W        W31924   9.371   9.259   2.974  0.0389 -0.0692  0.1927
15078W        W31925   7.252   7.281   5.872 -0.2715 -0.0603 -0.2356
15079W        W31926  15.869   9.604  14.306  0.1610 -0.1768 -0.1234
15080W        W31927  13.958  16.380  12.991 -0.0824  0.0137  0.0198
15081W        W31928  11.093   2.899   0.464 -0.2031  0.2147  0.1849
15082W        W31929   1.782  12.277  11.902 -0.0661 -0.0139 -0.0694
15083W        W31930   4.570   6.662  13.843  0.0914 -0.3793  0.1695
15084W        W31931  18.149  14.569   2.024 -0.3056  0.1589 -0.0325
15085W        W31932  12.179   7.648  10.754  0.0950  0.0529 -0.0628
15086W        W31933   3.826   1.501  14.109  0.2659  0.0114  0.1148
15087W        W31934   8.346   4.551  14.508  0.0477 -0.0441 -0.0748
15088W        W31935  13.057   9.730   4.426  0.0836 -0.2213 -0.2266
15089W        W31936  16.848  13.227  11.694 -0.0476 -0.0419 -0.2205
15090W        W31937  13.471  14.504   3.348  0.1289 -0.1920 -0.1453
15091W        W31938  14.203   8.075   0.080 -0.3845  0.0186 -0.2785
15092W        W31939   9.901  14.754   2.413  0.0880  0.1500  0.0107
15093W        W31940  14.695   0.803  14.345 -0.0277 -0.0796 -0.0547
15094W        W31941  15.272   3.000   3.495 -0.3135 -0.1431 -0.2701
15095W        W31942   9.699  14.233   4.081 -0.0620  0.0378 -0.0117
15096W        W31943  11.075  16.958  12.679 -0.1999 -0.0185  0.1055
15097W        W31944  14.024   7.051   2.929 -0.1158  0.0696  0.2020
15098W        W31945  12.334  17.530   1.695  0.2199  0.1857 -0.0847
15099W        W31946   6.324   4.033   4.938 -0.3376 -0.2335 -0.0604
15100W        W31947  12.534  12.897   3.459  0.1446 -0.1561 -0.2186
15101W        W31948   6.671   6.289  12.043  0.2220  0.2090  0.1249
15102W        W31949  14.246   4.345   5.093 -0.0876 -0.1271  0.1668
15103W        W31950   5.203   6.620  15.715  0.0587  0.2456 -0.1071
15104W        W31951  10.434   3.139  14.485  0.0004  0.0071  0.3084
15105W        W31952  10.761   8.848   3.092  0.0451 -0.1316 -0.0927
15106W        W31953   5.457  13.176  13.159 -0.1110  0.1745 -0.0842
15107W        W31954  12.850   7.767  13.097  0.1438 -0.1162 -0.1316
15108W        W31955  13.009  12.716   3.270 -0.2626 -0.1032 -0.0310
15109W        W31956   0.433  11.942  14.469  0.0411  0.0330 -0.0518
15110W        W31957  16.842  16.299   1.400 -0.0678 -0.1879  0.2541
15111W        W31958  12.855  16.461   3.199 -0.0795  0.0265 -0.2714
15112W        W31959   9.228   5.791   4.036  0.2276 -0.0305 -0.0044
15113W        W31960   8.725   7.729   2.455 -0.1616  0.2056  0.0889
15114W        W31961  16.125   2.070  14.117  0.1406  0.1369  0.0843
15115W        W31962  14.512   4.132  12.329 -0.1480 -0.2371 -0.2431
15116W        W31963  16.998   3.033   2.263 -0.0761  0.0416  0.0487
15117W        W31964  10.521   2.659  13.656 -0.0062  0.0787  0.0528
15118W        W31965   6.330   8.117  14.071  0.3287 -0.0936  0.0230
15119W        W31966  15.930  17.239  15.057 -0.1033  0.2297  0.1338
15120W        W31967  13.460  15.471  15.232  0.2079  0.1808 -0.3104
15121W        W31968   4.348   1.053   2.557  0.1453  0.0144 -0.1828
15122W        W31969   6.559   9.076   3.150 -0.1450  0.0339  0.1843
15123W        W31970   2.065   0.750  15.335 -0.1542  0.2978 -0.0618
15124W        W31971  12.528  17.126   3.126 -0.1633  0.2136  0.2379
15125W        W31972   3.464  10.796   1.543 -0.0587 -0.1288  0.0500
15126W        W31973  12.945  18.321   5.076 -0.0438 -0.1903  0.2042
15127W        W31974  12.702  14.568   1.318  0.0001  0.1415 -0.1026
15128W        W31975  18.343  14.154   4.244 -0.1007  0.2360 -0.1126
15129W        W31976  15.277  10.187   3.547  0.2979 -0.0175 -0.0060
15130W        W31977  11.605   2.015   4.221  0.1642  0.2251  0.2361
15131W        W31978   0.340  10.638  13.151 -0.3683  0.1828  0.0375
15132W        W31979   8.035  14.954  13.840 -0.2646  0.1682  0.0823
15133W        W31980   5.557   7.693   1.096 -0.1406  0.2648  0.1763
15134W        W31981  18.426   5.725   5.441 -0.2634 -0.0076 -0.2394
15135W        W31982   8.581  13.649  15.928 -0.1192  0.1268  0.0522
15136W        W31983   3.110  10.799  13.905 -0.3281  0.3736  0.1249
15137W        W31984   4.012  11.559   1.598  0.1711 -0.1131 -0.0862
15138W        W31985   9.596  10.023   3.088  0.0874 -0.1164 -0.0831
15139W        W31986   1.983  17.750  10.874  0.3018 -0.1519 -0.0438
15140W        W31987  12.553   8.910  15.723 -0.3633  0.3221 -0.0777
15141W        W31988  12.443  15.516  15.010  0.1217  0.0557  0.0724
15142W        W31989  12.842   3.496  15.741 -0.0468  0.2039  0.3931
15143W        W31990  18.346   2.935   3.111  0.1158  0.0346 -0.1310
15144W        W31991   3.539   5.620   2.787  0.1397  0.0308 -0.1666
15145W        W31992  16.633   0.780   0.402 -0.1662 -0.2964 -0.0577
15146W        W31993   4.235  11.872  12.736 -0.2050  0.0045  0.3093
15147W        W31994   9.381  16.019   4.913 -0.0796 -0.0213  0.1616
15148W        W31995  14.830   7.323  13.674  0.3833 -0.1197 -0.1024
15149W        W31996  11.715  10.066   5.661 -0.3989 -0.4425  0.0638
15150W        W31997   1.901   6.492  14.291  0.1985 -0.2198  0.0922
15151W        W31998  11.452   2.860  10.406 -0.0343  0.3272 -0.1097
15152W        W31999   8.990   0.715   0.174  0.0774 -0.0912 -0.1210
15153W        W32000  17.158  14.106  12.133 -0.0130  0.1295  0.1231
15154W        W32001   8.777   3.719  11.921  0.0739  0.0413 -0.0667
15155W        W32002   8.609   9.257  15.870 -0.0896  0.1542  0.1082
15156W        W32003  12.438  12.723   4.696  0.0044 -0.1231  0.1053
15157W        W32004  17.362  17.421  15.837  0.1204 -0.0713  0.3123
15158W        W32005  15.778  10.170   0.567 -0.2920  0.1257 -0.3645
15159W        W32006  15.783   5.864  12.331  0.2225  0.1487 -0.0316
15160W        W32007   9.034   9.766  14.351 -0.2234  0.1638  0.2385
15161W        W32008  14.904   4.800  11.510 -0.0192  0.0830  0.4582
15162W        W32009   3.375   4.221   3.585 -0.3686  0.1962  0.0099
15163W        W32010  12.906  11.924   2.462  0.3161 -0.1505  0.0408
15164W        W32011   8.811   7.924   3.446 -0.2541 -0.1393  0.0694
15165W        W32012  16.644   9.150   2.466  0.0618 -0.2054 -0.3751
15166W        W32013   8.510   0.351   3.416 -0.0840 -0.0675 -0.0624
15167W        W32014  13.506  18.145   2.965  0.2532 -0.3416 -0.2044
15168W        W32015  10.799   9.557  14.796  0.2923  0.2736 -0.0034
15169W        W32016   4.375   2.401  13.464 -0.1525 -0.1931  0.0987
15170W        W32017   8.549   1.688   0.941  0.0408 -0.0170  0.2050
15171W        W32018  16.620   1.678  13.182 -0.0777 -0.0886 -0.1039
15172W        W32019  10.022   0.833   0.251  0.0574 -0.0963 -0.1409
15173W        W32020   3.509   5.980   2.430  0.0091  0.0099  0.1157
15174W        W32021   9.500  15.849  10.973 -0.1499 -0.0100 -0.1770
15175W        W32022  16.704  15.810   1.590 -0.1770 -0.0209  0.1641
15176W        W32023  16.018   2.336  15.444 -0.0351 -0.1632 -0.5482
15177W        W32024  10.605  13.229  13.288  0.0852 -0.0571  0.3564
15178W        W32025  13.148  14.372   0.961  0.0742  0.0169 -0.0323
15179W        W32026  15.559  18.487   5.431  0.3218 -0.2203  0.1798
15180W        W32027   9.106  10.947   5.415 -0.1761 -0.1663 -0.0569
15181W        W32028  17.992   3.335  10.296 -0.0590  0.2243 -0.2091
15182W        W32029  15.265   4.539  13.598 -0.1282  0.0700  0.0038
15183W        W32030   6.052   7.545   1.094  0.0062 -0.0409  0.1749
15184W        W32031  10.856   5.421  13.531 -0.1002  0.2226  0.0514
15185W        W32032   2.014   9.819   0.583 -0.0055 -0.2101  0.2268
15186W        W32033  14.419  18.531   1.681 -0.0770 -0.0065  0.0193
15187W        W32034   4.893   9.783   0.114  0.1951 -0.2499  0.4343
15188W        W32035   4.632   4.484  15.782 -0.2193 -0.0875 -0.2690
15189W        W32036  18.510  15.802  13.177  0.2130 -0.5670 -0.1015
15190W        W32037   1.710  12.520   3.933 -0.5703  0.2966  0.2307
15191W        W32038   0.109   6.594  12.285  0.0694 -0.1220  0.1828
15192W        W32039  13.096   0.370   4.183  0.1577  0.2598 -0.1715
15193W        W32040  16.840   0.813   4.487  0.2355 -0.2087  0.1926
15194W        W32041   0.615   4.628  13.930  0.0419 -0.0768 -0.1218
15195W        W32042   5.240  12.592  15.665 -0.1575 -0.0864 -0.0164
15196W        W32043   9.580  10.996  11.484 -0.0389  0.1869 -0.2809
15197W        W32044  11.039   4.787  14.754  0.0166  0.2315  0.0161
15198W        W32045   4.918   2.458  12.511 -0.1210 -0.3217  0.0089
15199W        W32046   8.495   7.613  13.637  0.5150  0.1573 -0.2231
15200W        W32047   8.512  10.553   3.190 -0.1730 -0.3010  0.0439
15201W        W32048   9.275  10.785  12.183 -0.1541 -0.1389  0.3985
15202W        W32049   2.160   8.902   2.628 -0.0526  0.1263 -0.3372
15203W        W32050   0.710  15.793  10.948 -0.2258 -0.0111  0.1709
15204W        W32051   5.203   5.167  11.751 -0.3573 -0.1135  0.1820
15205W        W32052  17.164  14.068  13.837 -0.1478 -0.1347 -0.1341
15206W        W32053  15.240  15.574  13.887  0.2902  0.2684  0.3464
15207W        W32054   2.199  12.549  14.683  0.0030 -0.2591 -0.1937
15208W        W32055   2.817  16.531  11.257  0.0733  0.1826  0.2391
15209W        W32056   0.472  17.280  12.643 -0.2371  0.0443 -0.1132
15210W        W32057   5.363  11.866  12.411 -0.0869  0.0452 -0.3186
15211W        W32058   3.551  18.446   0.530 -0.2330  0.0981  0.2962
15212W        W32059  16.945  17.130   2.175  0.0679 -0.1673  0.1944
15213W        W32060   1.871   4.470  14.694 -0.3538  0.1206 -0.0094
15214W        W32061  15.147   3.325  12.484  0.0153  0.1179 -0.0874
15215W        W32062   1.038   7.687   4.760  0.2391  0.0076 -0.3165
15216W        W32063   9.936   7.510  12.918 -0.0808  0.2604 -0.0875
15217W        W32064   4.870  15.604  11.966 -0.0962 -0.0385 -0.0575
15218W        W32065  11.323   4.706  11.000  0.3033  0.0229  0.0983
15219W        W32066   2.904   7.792   1.095  0.0290 -0.0628  0.2590
15220W        W32067   2.870   1.552   4.557  0.2621  0.0428  0.1764
15221W        W32068  16.888  15.534  14.199 -0.1578 -0.1485 -0.1991
15222W        W32069   3.509   3.006  10.999 -0.2434  0.0205  0.1975
15223W        W32070   6.716   7.581  15.670  0.0787 -0.0133 -0.3257
15224W        W32071  10.254   8.820  15.325  0.1059 -0.1441 -0.1402
15225W        W32072   0.196  16.801   3.918 -0.0324  0.0833  0.2220
15226W        W32073   1.699   1.799   4.939 -0.3636 -0.2002  0.1307
15227W        W32074  10.074   7.219   1.255  0.2924  0.1924  0.0601
15228W        W32075   1.566   3.602  13.934 -0.2361 -0.0416 -0.0868
15229W        W32076   1.882   6.656   3.572 -0.0241  0.0629 -0.2045
15230W        W32077  12.346  17.563   4.896 -0.0055 -0.3797 -0.0537
15231W        W32078  15.381   0.958  14.865 -0.0741 -0.2443  0.0058
15232W        W32079  17.336   4.506   3.425  0.0261 -0.1053 -0.3885
15233W        W32080   2.281   4.487   3.630 -0.1277 -0.1101 -0.2141
15234W        W32081   0.947   7.339   1.016 -0.0949 -0.0069 -0.0885
15235W        W32082   2.388   4.666  14.585 -0.2406  0.1392 -0.2411
15236W        W32083  11.703  15.224  12.405 -0.0012 -0.0936  0.1003
15237W        W32084  14.048   4.579   1.600  0.1426 -0.0726 -0.1354
15238W        W32085   4.668  16.461   5.857 -0.0165 -0.1082  0.2148
15239W        W32086   7.430   2.524   0.166 -0.2282 -0.4080  0.3813
15240W        W32087   9.837  17.230  13.995 -0.0674 -0.2829 -0.3635
15241W        W32088  13.880   4.897  12.412  0.2531 -0.1553  0.0041
15242W        W32089   4.002   5.579   3.163  0.1699 -0.0397  0.1888
15243W        W32090  17.442   3.188  14.109  0.0848  0.3113 -0.0276
15244W        W32091  11.946   2.758  11.063  0.3033  0.0956  0.0868
15245W        W32092  14.029   1.165   0.997 -0.0805 -0.3847  0.3249
15246W        W32093  18.082   4.705  13.309  0.1065  0.0065 -0.4159
15247W        W32094  15.879  14.335   3.966  0.1791  0.0782  0.0682
15248W        W32095  16.501  13.503   3.686  0.1126 -0.1048  0.0802
15249W        W32096  11.496  14.357   3.077  0.1578 -0.1779 -0.0278
15250W        W32097   3.814   3.566  10.398  0.3040  0.0835  0.1305
15251W        W32098  17.276   3.730  14.778 -0.1261  0.0587  0.1492
15252W        W32099  14.612  14.109  14.053  0.2327  0.2219 -0.1457
15253W        W32100  16.211  17.092   2.592 -0.1305  0.0564  0.1323
15254W        W32101   2.284   6.466   3.323  0.0891 -0.1353  0.3243
15255W        W32102   0.495  17.307   2.155 -0.0386  0.1793 -0.1454
15256W        W32103  16.312  11.626   1.225 -0.0386 -0.2019  0.1288
15257W        W32104  15.217   6.626   4.670  0.0551  0.0155 -0.1970
15258W        W32105   5.095   5.018  14.990 -0.0108 -0.0676  0.4225
15259W        W32106  18.452  16.877  11.837  0.2602  0.2180  0.0456
15260W        W32107   4.615   7.334   1.469 -0.0261  0.0449 -0.1505
15261W        W32108  13.707   5.188  10.080 -0.1992  0.1728  0.1257
15262W        W32109   7.228  17.764   3.204 -0.1731 -0.0945 -0.0608
15263W        W32110  13.436   8.843  15.149 -0.0770 -0.0623  0.2015
15264W        W32111  15.843   5.048   0.916  0.1723  0.0653 -0.0141
15265W        W32112   2.491  13.511   2.787  0.2291  0.0701  0.1077
15266W        W32113  11.824   9.932  12.252 -0.0826 -0.0542  0.3508
15267W        W32114   1.094   7.398   2.808 -0.1828 -0.1268  0.1836
15268W        W32115   2.070   2.417   1.214 -0.0591 -0.2881  0.1127
15269W        W32116   5.654  13.188  12.695 -0.2255  0.3994  0.0463
15270W        W32117  11.804   7.323  14.487  0.0941  0.0272 -0.1733
15271W        W32118  17.291   7.271   2.878 -0.1011  0.0345  0.1348
15272W        W32119  16.136   3.253  14.459 -0.0052 -0.2721 -0.2830
15273W        W32120  11.432  10.161  14.109  0.2426  0.2123  0.0933
15274W        W32121   2.022  13.990   4.477  0.0836  0.0159 -0.0370
15275W        W32122  13.183   5.147   3.727  0.2090 -0.0637  0.0272
15276W        W32123  15.548  13.450  12.464 -0.0547 -0.1055 -0.1591
15277W        W32124  16.212   5.809  13.529  0.1856  0.0262  0.0331
15278W        W32125   8.328   3.191  12.780 -0.0707 -0.1336 -0.1487
15279W        W32126   4.285   1.119  14.078  0.1769  0.2475 -0.0490
15280W        W32127   6.558   3.194  13.934 -0.2551  0.0882 -0.2576
15281W        W32128   5.135  10.545   4.523  0.0293 -0.2021  0.0724
15282W        W32129   6.331  15.652   2.840  0.0465 -0.0821 -0.0700
15283W        W32130   3.651   3.558  14.687  0.0561  0.0254  0.1014
15284W        W32131   7.514   4.790   0.957 -0.3151  0.2608 -0.1275
15285W        W32132  12.742   9.326  11.824 -0.2028 -0.1455  0.0417
15286W        W32133   2.844  18.157  15.312 -0.3171 -0.0763  0.2474
15287W        W32134   8.841  15.451   1.827 -0.1868  0.1834  0.1340
15288W        W32135   4.666  13.062   0.210 -0.3660 -0.0717 -0.0749
15289W        W32136  16.341  11.517   4.356 -0.1292 -0.1547  0.1512
15290W        W32137   1.064   9.208   2.087  0.0515  0.1283 -0.0166
15291W        W32138   4.762   5.359   3.016  0.3403 -0.2619  0.1902
15292W        W32139  10.650  15.746  15.342 -0.0600  0.1201  0.3419
15293W        W32140  17.164  10.521   3.687 -0.0689 -0.3633 -0.0333
15294W        W32141   5.515   9.233   3.734 -0.0192 -0.0486  0.4414
15295W        W32142   5.935  16.721   1.899  0.0961  0.0300 -0.1847
15296W        W32143   1.698  12.737  11.766  0.0205 -0.1933 -0.0440
15297W        W32144   0.646   5.127   1.001  0.2207 -0.0605 -0.1707
15298W        W32145   3.249   8.272  14.454 -0.0985  0.1775 -0.0841
15299W        W32146   0.132   3.075   4.019 -0.2886  0.2507 -0.1164
15300W        W32147   8.635  16.780   0.567  0.2594  0.1100 -0.0573
15301W        W32148  13.960   3.828  12.896  0.0823  0.2144  0.3883
15302W        W32149   4.173  12.125  15.338 -0.0348 -0.1571 -0.1013
15303W        W32150  11.097  15.556  15.351 -0.0696  0.1339 -0.1713
15304W        W32151   8.265   9.849   0.210  0.2272 -0.0539 -0.2575
15305W        W32152  14.467   2.769   2.464 -0.0842 -0.1506 -0.1999
15306W        W32153   6.382  17.751   3.669 -0.0154 -0.1848  0.4615
15307W        W32154  17.239   8.774   3.521 -0.2373 -0.0326 -0.3428
15308W        W32155  12.382   4.964   3.333 -0.1692 -0.0635 -0.3905
15309W        W32156  10.522  13.938  12.917 -0.1492  0.0268  0.3370
15310W        W32157   8.402   5.278   5.854  0.0260 -0.1408 -0.0576
15311W        W32158  18.369   0.782  14.287 -0.3155 -0.3830 -0.0364
15312W        W32159   0.983   9.792  12.924  0.1072 -0.1870  0.0919
15313W        W32160   6.057   4.013  12.846  0.0311 -0.2789  0.2620
15314W        W32161   8.162   4.337  15.240 -0.0220  0.1386  0.1637
15315W        W32162   8.687   4.062  15.251 -0.2433  0.1718 -0.0407
15316W        W32163   0.663  11.338  13.605 -0.0948  0.1958 -0.1739
15317W        W32164  14.499   8.773   2.931 -0.2201 -0.1800  0.1470
15318W        W32165   5.531   0.051  15.544 -0.2264 -0.1248  0.1920
15319W        W32166  11.260   7.261   1.333 -0.3486  0.0638  0.0691
15320W        W32167   6.559   7.594   2.771 -0.0081 -0.0772 -0.1613
15321W        W32168  17.447  13.284   0.119  0.1021  0.2806 -0.2620
15322W        W32169  17.174   7.374  12.214 -0.0334  0.0055  0.1137
15323W        W32170   7.082   2.310  10.657  0.0170 -0.1178  0.1318
15324W        W32171  11.959  15.335  10.080 -0.2077 -0.2059 -0.2924
15325W        W32172   7.854   7.644  11.112 -0.0334 -0.1757  0.0953
15326W        W32173   0.358  12.822   1.612 -0.2252  0.1277  0.2945
15327W        W32174  13.764   2.980  14.514 -0.2368 -0.0072  0.2396
15328W        W32175   9.213   3.543  12.591 -0.1529 -0.3301  0.0715
15329W        W32176   3.920  17.908   4.728 -0.3522  0.0970 -0.1910
15330W        W32177  12.853   7.232  13.063  0.1361 -0.1447  0.1601
15331W        W32178   9.733  16.504  13.691  0.1820  0.1322  0.1438
15332W        W32179   4.608   3.023  15.333  0.1863 -0.2054 -0.2182
15333W        W32180  17.919  17.452  14.829  0.2068 -0.3720  0.1700
15334W        W32181   8.439   8.348   0.143 -0.0559 -0.0314 -0.2424
15335W        W32182   4.607   0.450   4.356 -0.1654  0.1389 -0.1316
15336W        W32183   9.867  16.017   4.817 -0.2828 -0.2589 -0.0009
15337W        W32184   3.765   6.193  15.455  0.0224 -0.0845  0.1882
15338W        W32185   1.540  12.306   1.390  0.0252 -0.0125 -0.1287
15339W        W32186   9.541   4.015   1.376  0.0022  0.1947  0.0127
15340W        W32187   5.316   9.594  12.204  0.1560 -0.0528  0.0338
15341W        W32188   2.394   6.704  10.700 -0.2408  0.5465 -0.0469
15342W        W32189   2.593  13.983   2.550  0.1019 -0.1436  0.0673
15343W        W32190   7.415  18.193  12.665  0.0751 -0.0723  0.0914
15344W        W32191   0.658   4.210   0.963  0.1084  0.0803  0.4262
15345W        W32192  11.888  12.651   0.037 -0.2418 -0.0587  0.0215
15346W        W32193  15.153  14.660  15.053 -0.0144  0.0335 -0.2715
15347W        W32194  17.250  12.585   3.748 -0.2493 -0.1992  0.2393
15348W        W32195  15.391  14.607   3.451  0.0158 -0.0056  0.0095
15349W        W32196   8.344   7.125  13.741 -0.1092 -0.2026 -0.0200
15350W        W32197  17.839  16.138   5.345  0.0509  0.0025  0.0217
15351W        W32198  12.751  17.261  11.750 -0.2189  0.0362  0.1268
15352W        W32199   8.279  10.504   2.405  0.3253 -0.1588 -0.0358
15353W        W32200  15.331   0.007  11.712 -0.3021 -0.1393 -0.3339
15354W        W32201  14.123  18.058   3.042 -0.4343  0.0615 -0.2395
15355W        W32202  11.775   5.362  13.680 -0.1042 -0.1601  0.3720
15356W        W32203  10.550   6.774  14.218 -0.0045  0.1042 -0.2073
15357W        W32204   0.241   2.897  15.533 -0.1900 -0.3835  0.1673
15358W        W32205  10.338   9.442  11.369  0.1700 -0.6380  0.2570
15359W        W32206  11.098   2.329   0.454  0.2023  0.0397 -0.2305
15360W        W32207  16.715   2.836   3.861 -0.1571 -0.1741 -0.0193
15361W        W32208   6.417  13.266   0.183 -0.2518  0.0775 -0.2106
15362W        W32209  16.001  15.763  13.008  0.2115 -0.0977  0.0434
15363W        W32210   0.673   8.373  14.238  0.0344 -0.0964 -0.0982
15364W        W32211  10.661  10.305   4.085  0.1156  0.0075  0.0360
15365W        W32212   6.934  17.711   3.736  0.0406 -0.1342 -0.2628
15366W        W32213  16.546  16.471   1.832  0.1022  0.1916 -0.1774
15367W        W32214  14.871   0.544  13.669  0.3578  0.0485  0.1712
15368W        W32215   5.947   4.746   0.800  0.3356 -0.3841 -0.0729
15369W        W32216  17.457  13.328  14.288 -0.3713 -0.0450 -0.2035
15370W        W32217   8.927   3.619   4.772  0.1715  0.0315 -0.0988
15371W        W32218  16.311   7.536  12.207 -0.1434 -0.0299  0.1881
15372W        W32219  14.625  11.503   2.851  0.0358  0.1595  0.3008
15373W        W32220   3.719   1.801   2.745  0.1556 -0.0282 -0.0789
15374W        W32221  17.553  10.945  14.240  0.3923 -0.0782  0.3008
15375W        W32222  16.802  18.228  14.696 -0.1037  0.1311  0.0853
15376W        W32223   8.173  16.271   1.761 -0.2029  0.0335  0.2671
15377W        W32224   6.536  12.087   0.581 -0.0109  0.0240  0.0001
15378W        W32225  18.427  11.199  14.168  0.0776 -0.2342 -0.0584
15379W        W32226  12.240   0.801  14.527  0.0526  0.2453  0.0314
15380W        W32227   6.600   4.521   4.909 -0.1345  0.2089 -0.2513
15381W        W32228   2.672   3.035  14.987  0.0699  0.1267 -0.3275
15382W        W32229   9.150  10.755   2.020 -0.1464  0.2904 -0.2785
15383W        W32230  18.145  10.856  11.921 -0.0525 -0.2016  0.1227
15384W        W32231  15.549  11.763  11.941  0.1037 -0.0438  0.1242
15385W        W32232   9.016   9.031  15.630 -0.5440  0.0207  0.0303
15386W        W32233   9.314   3.724   1.064  0.0810 -0.0639 -0.1144
15387W        W32234   4.422  10.643   3.297  0.3027 -0.1168 -0.1558
15388W        W32235  18.033   5.655   3.729  0.0155  0.4002 -0.0643
15389W        W32236   2.643  16.259  14.695 -0.2597 -0.2674 -0.3776
15390W        W32237   0.534  16.528   5.567 -0.1167  0.1693  0.0748
15391W        W32238   0.376   8.951   6.046 -0.1538  0.0024 -0.2780
15392W        W32239  14.297  12.402   1.686 -0.0824 -0.0996 -0.0227
15393W        W32240  13.907   1.551   2.473 -0.2135 -0.0415  0.1011
15394W        W32241   8.468   3.035  11.220  0.0114  0.1422 -0.0344
15395W        W32242  10.809   6.086  12.177 -0.0046 -0.1900  0.3808
15396W        W32243   1.981  16.173   5.173 -0.2187  0.0673 -0.2058
15397W        W32244  11.142   1.723   3.715 -0.2341 -0.1006 -0.0156
15398W        W32245   3.079   9.205   5.472  0.1767  0.0039  0.0980
15399W        W32246  10.238   5.348   3.266 -0.1661  0.0505 -0.0251
15400W        W32247   1.559   1.505  15.476 -0.1699 -0.2084 -0.3444
15401W        W32248   8.051  10.080   2.409  0.3975 -0.1020 -0.2116
15402W        W32249   8.694  14.695   1.955 -0.1158  0.3347 -0.1117
15403W        W32250  10.326   1.191  13.334 -0.4375 -0.0061 -0.0038
15404W        W32251   3.601  13.192   2.958 -0.1590 -0.2299  0.3124
15405W        W32252   1.500   0.212  13.431  0.0211  0.1108  0.1322
15406W        W32253   8.286  13.943   2.657 -0.2593 -0.0275 -0.2041
15407W        W32254  17.674   0.616  13.189  0.1190  0.0541 -0.0853
15408W        W32255  17.799   5.048  11.642  0.0395 -0.0334  0.0916
15409W        W32256   3.310   7.774   0.407  0.1288  0.3676  0.1358
15410W        W32257   2.119  10.936  12.807  0.2820 -0.0639 -0.0788
15411W        W32258   3.891   4.980   3.140 -0.0688  0.1382 -0.1593
15412W        W32259   5.067   9.206   6.003  0.1844  0.2559  0.1657
15413W        W32260   1.688  13.335   0.386 -0.3643 -0.1707  0.0650
15414W        W32261   5.601  14.661   2.502  0.0722 -0.0151  0.0625
15415W        W32262  16.474  18.293   3.489 -0.2484 -0.1782  0.0799
15416W        W32263   1.737   1.344   0.617 -0.2605 -0.0558 -0.1268
15417W        W32264  18.373  17.711  11.409  0.0357 -0.3255  0.4419
15418W        W32265   2.993   9.766   1.541  0.3249 -0.1888  0.0580
15419W        W32266  16.482  11.008   2.644  0.1227 -0.0911 -0.0438
15420W        W32267  17.942  12.139   0.680 -0.0161  0.2028  0.0422
15421W        W32268   1.018  12.620  13.052 -0.0341  0.0857  0.0467
15422W        W32269   7.837   5.662   0.136  0.0330 -0.3520 -0.0393
15423W        W32270   9.698  12.167   3.966  0.3423  0.2498 -0.1016
15424W        W32271   8.225   6.126   2.675 -0.0375  0.1880  0.1255
15425W        W32272   5.500   4.308   2.712 -0.2205  0.3308  0.0645
15426W        W32273  13.999  10.987   5.195 -0.1687  0.2613 -0.0416
15427W        W32274   6.603   5.264   0.439  0.2215 -0.0209 -0.0676
15428W        W32275   9.846   5.626  13.913 -0.0139  0.1894  0.2922
15429W        W32276   9.897  18.335   1.480  0.2174 -0.1699 -0.0039
15430W        W32277   3.833   5.092  14.329 -0.0644 -0.2137 -0.0689
15431W        W32278  14.442  18.050  11.907  0.0127 -0.1147 -0.0719
15432W        W32279   5.167   6.138   5.455  0.2680 -0.2594  0.2030
15433W        W32280  13.443  16.479   2.366 -0.0069 -0.0829  0.1202
15434W        W32281   6.826   0.151   1.131 -0.1445 -0.1548 -0.3084
15435W        W32282  15.765  12.513   0.292  0.0178  0.0291  0.1577
15436W        W32283   1.368  15.037   0.550 -0.1860 -0.0895  0.0624
15437W        W32284  14.183  10.821  11.568  0.4625  0.2656  0.1993
15438W        W32285   4.326   1.630  14.330 -0.0709 -0.0756 -0.1155
15439W        W32286   4.830  14.452   4.129  0.0025 -0.2582  0.2310
15440W        W32287  15.980   4.517   3.047  0.0578  0.1025  0.2466
15441W        W32288  16.198  11.687  11.273 -0.1107  0.1874  0.0866
15442W        W32289   8.059   0.031   1.145  0.0927 -0.0379  0.1955
15443W        W32290   4.053  17.403  11.066  0.1377 -0.1013  0.1237
15444W        W32291  11.833  17.629   9.738 -0.4857  0.3685 -0.0196
15445W        W32292   1.111   6.049  10.275  0.1215  0.0902  0.0745
15446W        W32293  14.784   9.458   5.603  0.4921 -0.1731  0.0490
15447W        W32294   0.178  14.726   4.903 -0.3449 -0.0637  0.0474
15448W        W32295  13.147   0.287   0.566 -0.0977 -0.0383 -0.0771
15449W        W32296  15.644   6.922  13.373 -0.1448  0.0265  0.2933
15450W        W32297   7.308  13.931   0.690 -0.2583 -0.1610  0.2176
15451W        W32298   6.639   5.733   1.395  0.0138 -0.2329  0.1374
15452W        W32299   0.941   8.631   5.531 -0.1120 -0.1040 -0.1077
15453W        W32300  10.438  18.425   5.008 -0.0853  0.0476  0.0034
15454W        W32301  14.259  16.939   5.253 -0.0337  0.1460 -0.0948
15455W        W32302  17.849   0.374  15.647  0.0505  0.1363  0.0295
15456W        W32303   0.459  11.996   3.975 -0.0083  0.0468 -0.1266
15457W        W32304  18.255   2.796   5.861  0.2322  0.2164  0.0074
15458W        W32305   1.370   7.667  12.212 -0.1302 -0.0194 -0.2290
15459W        W32306  15.271  13.226  12.911  0.0775  0.4177  0.2478
15460W        W32307  17.499   7.262   3.415 -0.0767 -0.2723 -0.2458
15461W        W32308   0.338  14.295  13.194 -0.0572  0.1289 -0.1366
15462W        W32309   8.914   7.876  12.153  0.2127 -0.2647  0.2104
15463W        W32310  17.976   1.987   5.595  0.1119  0.1399 -0.0790
15464W        W32311  12.396   6.395   3.633  0.0595 -0.0529  0.1132
15465W        W32312   6.960   4.717  10.832  0.3616 -0.2675  0.4536
15466W        W32313   0.083  17.214  11.445 -0.0143 -0.1196 -0.2749
15467W        W32314  11.110   5.890   0.269 -0.0674 -0.1533  0.0222
15468W        W32315  13.293   6.579  12.547  0.1214  0.0894 -0.3074
15469W        W32316   3.087   9.071  15.639  0.0405 -0.3959 -0.0670
15470W        W32317  15.899  15.680  15.704  0.1344  0.3299 -0.0160
15471W        W32318   8.909   3.428  14.150  0.0019  0.1248 -0.2548
15472W        W32319   9.944   0.936   3.153  0.3894 -0.0193  0.1847
15473W        W32320   0.596   9.188  13.796 -0.4254  0.2935  0.2789
15474W        W32321  12.514  10.550   1.151 -0.1074  0.2037  0.1164
15475W        W32322   0.149  11.826  12.451 -0.1913  0.0195 -0.1151
15476W        W32323  17.405  17.077   2.779  0.3845  0.4397  0.0099
15477W        W32324   2.039   4.497  14.203 -0.1923  0.4323 -0.2244
15478W        W32325   3.178   1.890   4.514 -0.4126  0.1864  0.0986
15479W        W32326   6.997  17.793  14.538 -0.1331  0.2567  0.1697
15480W        W32327   1.223  10.383   5.160  0.3408  0.0940  0.0376
15481W        W32328  10.648   5.453   2.421 -0.0023 -0.2441  0.1843
15482W        W32329   1.911  17.104   6.233 -0.2333  0.2328 -0.1117
15483W        W32330   2.170   6.263   1.512 -0.1341  0.2597  0.1473
15484W        W32331  14.245   2.439  10.806  0.2665  0.1693 -0.1923
15485W        W32332  15.554  12.669  12.217 -0.2687 -0.1051  0.2962
15486W        W32333   9.243   8.542  14.518 -0.0654 -0.1537 -0.2698
15487W        W32334  16.868   9.018   5.412 -0.1031 -0.1628 -0.2310
15488W        W32335   8.605  11.830  12.724 -0.2187 -0.0556  0.1133
15489W        W32336   9.458  14.867  15.856  0.1099  0.1429  0.0120
15490W        W32337  15.804  15.888   2.764  0.0330 -0.1088  0.0336
15491W        W32338   6.411   9.070   5.738 -0.2558 -0.1108  0.3447
15492W        W32339   6.216  10.880  11.221  0.0688 -0.2053 -0.1006
15493W        W32340  11.375  16.057  11.121  0.0816 -0.0417  0.1562
15494W        W32341   6.870  11.689   0.662  0.2161  0.2542 -0.1513
15495W        W32342   9.413  10.537   0.447 -0.0177 -0.1642 -0.1001
15496W        W32343   7.276   6.397   4.760 -0.4437  0.3099 -0.0028
15497W        W32344   4.738  11.477   5.949  0.1983 -0.0355  0.2870
15498W        W32345   5.330  17.109  14.726 -0.1902  0.0092 -0.5340
15499W        W32346  15.229   8.001   1.854  0.2438  0.0432 -0.0997
15500W        W32347   6.398   8.615  13.710  0.0951 -0.1541 -0.5467
15501W        W32348  10.374  11.238   3.165  0.1068  0.0476  0.0860
15502W        W32349   9.268   2.717  14.571  0.2690  0.1063  0.1557
15503W        W32350  14.434   3.227   5.842 -0.0747 -0.3442 -0.2810
15504W        W32351   1.146  12.142   2.857 -0.2415 -0.1654  0.3797
15505W        W32352  14.241   3.583   3.444  0.2022  0.0625  0.0182
15506W        W32353   6.134   6.645   5.718 -0.1247  0.1572 -0.1320
15507W        W32354   8.599  10.512  13.203 -0.0502  0.0380 -0.1077
15508W        W32355   4.083   2.907  11.116  0.1061 -0.0448 -0.0899
15509W        W32356   1.991   5.840   2.614  0.1878 -0.2907 -0.2083
15510W        W32357  12.479   8.616  13.448 -0.1168 -0.2142  0.1139
15511W        W32358   4.541   2.077  12.366  0.0878 -0.1555  0.0331
15512W        W32359   1.459   6.801   2.010 -0.2482 -0.0150 -0.0809
15513W        W32360  13.559   2.953   0.505 -0.1799  0.0437 -0.2122
15514W        W32361   8.166   1.813   0.371  0.2753  0.0225  0.2476
15515W        W32362  13.433   2.902   1.866 -0.1905  0.0301  0.1821
15516W        W32363  13.440   3.373  14.559 -0.0857  0.3374  0.0090
15517W        W32364   5.821  15.515  13.816  0.0619  0.0745  0.2179
15518W        W32365  10.912   9.440   4.763 -0.0409 -0.2082 -0.0674
15519W        W32366   5.809   5.992  12.295 -0.1364 -0.0653 -0.1874
15520W        W32367   9.192   9.785   2.887 -0.1944  0.0872  0.1085
15521W        W32368  12.549  12.198  13.687 -0.0402  0.0388  0.1401
15522W        W32369   8.531   6.761   0.948  0.0643  0.1853 -0.1847
15523W        W32370   8.867  15.248   3.759  0.0720  0.0301  0.0721
15524W        W32371  12.764   6.753   3.880  0.0639 -0.0170 -0.0796
15525W        W32372  15.047   2.826   2.812 -0.0327 -0.1055  0.1754
15526W        W32373   9.055  14.846  14.773 -0.1757  0.0875 -0.1699
15527W        W32374  13.919   3.673  14.532  0.2618 -0.0946  0.0828
15528W        W32375   2.993  15.962   4.590 -0.1571  0.1834  0.3705
15529W        W32376  17.732  17.770   3.039 -0.2283  0.3858 -0.3867
15530W        W32377  11.614   2.601  15.810 -0.0502  0.0421 -0.0718
15531W        W32378  14.152   5.332   0.067 -0.0979  0.0005  0.2744
15532W        W32379  11.537   4.594   1.137 -0.0470  0.0634  0.0717
15533W        W32380  13.179  13.979  11.506 -0.1412 -0.0867 -0.5366
15534W        W32381   2.734   1.632   2.759  0.3325 -0.2382 -0.2001
15535W        W32382  14.427   6.478  15.195 -0.1355  0.0999 -0.0321
15536W        W32383   6.494  10.924  11.960 -0.4459  0.1480  0.0443
15537W        W32384   1.050  12.745   5.447 -0.0593 -0.0542  0.1914
15538W        W32385  11.633  16.163   2.323 -0.3040 -0.0932 -0.0618
15539W        W32386   2.858  15.188   0.263  0.1595  0.2760  0.1604
15540W        W32387   4.902  15.830   0.711  0.0009  0.1246  0.0123
15541W        W32388  11.670  12.654   3.028 -0.1077 -0.0941  0.2627
15542W        W32389   0.053  11.036   4.471 -0.2193 -0.1489  0.1321
15543W        W32390  13.035   7.432  11.788 -0.0329  0.3419  0.1330
15544W        W32391   8.867  10.552   4.767  0.1144  0.1451  0.0114
15545W        W32392   1.370   0.264   1.741 -0.0372 -0.1174 -0.1760
15546W        W32393  12.538   9.929  11.045 -0.1217 -0.3865  0.3739
15547W        W32394   4.123   2.403   0.165  0.3186  0.1989  0.2657
15548W        W32395  15.767   4.643   0.224  0.2057  0.0714 -0.1110
15549W        W32396   6.090  12.609  15.259  0.0518  0.0985  0.1767
15550W        W32397   0.833   4.798   3.569 -0.0468  0.0886 -0.1753
15551W        W32398  10.312   2.111  14.064  0.0885  0.2217  0.0144
15552W        W32399  13.411  17.126   5.642 -0.2118 -0.1469  0.1210
15553W        W32400   5.528  14.866   1.963  0.3638 -0.0139  0.1441
15554W        W32401  11.402   9.341  12.635  0.3591 -0.2010 -0.0591
15555W        W32402  13.237   2.456  15.835  0.0887 -0.1329 -0.0951
15556W        W32403  17.642  13.843   5.005 -0.0173  0.2034 -0.3610
15557W        W32404  17.822  10.294   5.204  0.2923  0.0755  0.1226
15558W        W32405   5.787  11.204   3.976  0.0880 -0.2581 -0.0915
15559W        W32406  18.130  10.056  15.147  0.3766  0.0589 -0.0726
15560W        W32407  16.076  12.372  13.256 -0.0108  0.0793 -0.0450
15561W        W32408   7.879   6.016  10.569  0.1643  0.3572 -0.1177
15562W        W32409  15.030   8.054  13.015  0.0639 -0.1282 -0.1231
15563W        W32410  16.101  17.064   1.122  0.3237  0.0123 -0.1952
15564W        W32411   9.992  14.499  13.169 -0.3850 -0.0243  0.2369
15565W        W32412   8.508   1.785  14.304  0.1441 -0.1693  0.1527
15566W        W32413  12.624   9.845  15.917 -0.2310 -0.0011  0.2698
15567W        W32414   8.299  10.902   3.988 -0.1313 -0.0854 -0.1262
15568W        W32415   7.445   9.437  11.624 -0.0171 -0.1092 -0.0746
15569W        W32416   2.021   0.252  14.565 -0.0889 -0.2334  0.0044
15570W        W32417   5.046   0.586  11.863 -0.2576 -0.1107  0.1001
15571W        W32418  14.229   6.088   2.393 -0.0591  0.1047  0.2664
15572W        W32419   6.477   6.449   5.105 -0.3433 -0.1119 -0.0840
15573W        W32420  10.745   1.014   1.083 -0.0620 -0.2428  0.0496
15574W        W32421   8.281  12.987   3.504 -0.1737  0.0588 -0.0087
15575W        W32422  18.276   4.074  15.306 -0.2107 -0.1297 -0.3191
15576W        W32423  10.655   0.516  15.178 -0.1883  0.0998 -0.0597
15577W        W32424   1.982   5.405   4.450 -0.0099 -0.3056  0.0030
15578W        W32425   2.726   4.956   0.188  0.3356  0.2556 -0.0297
15579W        W32426   6.400  17.152   0.190 -0.0486  0.1605 -0.5095
15580W        W32427  10.951   8.838   4.732 -0.1503 -0.5184 -0.1065
15581W        W32428   1.539   4.194  11.515  0.0003 -0.1274  0.0901
15582W        W32429  11.564   8.584   0.033 -0.2535  0.1223 -0.0425
15583W        W32430   3.529  17.255  11.034  0.0206  0.2294 -0.3354
15584W        W32431   7.803  10.776  13.873  0.0936 -0.1457  0.3052
15585W        W32432  15.074  17.857   1.362 -0.0239  0.3651 -0.3009
15586W        W32433  11.642  10.160  11.454  0.0355 -0.2763  0.3474
15587W        W32434  11.787   8.438   4.306  0.2066 -0.0241  0.1132
15588W        W32435  10.956  11.320   1.623  0.2822  0.1331  0.1692
15589W        W32436   6.113  18.112   0.808  0.3425 -0.2202 -0.1445
15590W        W32437  16.303  13.257  13.641  0.2642 -0.1185 -0.0407
15591W        W32438  12.784  17.726   2.508 -0.0251 -0.2239  0.1775
15592W        W32439   4.559   5.135   4.361 -0.0557 -0.0592 -0.0633
15593W        W32440   1.192   9.996   5.513 -0.0801 -0.3898  0.1940
15594W        W32441   0.686   3.999  13.424 -0.1695  0.0125  0.0164
15595W        W32442   4.701  10.427  15.787  0.1889  0.0116  0.3074
15596W        W32443   8.094   8.251  15.772  0.2352 -0.0918  0.1584
15597W        W32444  14.390   3.245   3.878 -0.0426  0.0838  0.1812
15598W        W32445  15.016   8.536  14.452 -0.1429 -0.1594 -0.2209
15599W        W32446  17.793  11.542  13.958 -0.0472  0.1676  0.2056
15600W        W32447  16.978  16.489   4.105 -0.2686  0.1505 -0.1532
15601W        W32448   0.298  14.026  10.678  0.0858  0.1553 -0.0778
15602W        W32449   7.164  17.340  12.438  0.1915  0.4234 -0.0274
15603W        W32450  12.061   4.920  12.180 -0.0363 -0.1668  0.0260
15604W        W32451  16.912  14.807   1.432 -0.3963  0.1892  0.0168
15605W        W32452   2.176   3.718  11.755  0.0077  0.1975  0.0283
15606W        W32453   6.883   2.626   0.880 -0.2605  0.0379  0.0911
15607W        W32454  16.132   4.170   2.501 -0.0502  0.0866  0.0648
15608W        W32455  10.574   9.572  12.318  0.3559  0.2661  0.0808
15609W        W32456  17.192  16.278  12.887 -0.0611  0.3182 -0.2664
15610W        W32457  11.002  10.842  14.188  0.1298  0.0652  0.2865
15611W        W32458   5.457   6.878  11.986  0.1922  0.1665  0.0048
15612W        W32459   8.988   1.614   1.882  0.0474 -0.3130  0.2689
15613W        W32460   5.003  11.082   4.564 -0.1324 -0.0436  0.0909
15614W        W32461   7.271   0.354  13.580  0.2148  0.0437 -0.3461
15615W        W32462  18.434   0.271  14.051  0.0033  0.0805  0.2032
15616W        W32463   1.340  11.150  12.357 -0.1268 -0.4429  0.0523
15617W        W32464   3.611   5.857  15.136  0.0029 -0.2424 -0.0753
15618W        W32465  12.821   0.357  10.864 -0.1429 -0.0022  0.0477
15619W        W32466  18.234  11.466   0.295 -0.3069  0.1511 -0.1600
15620W        W32467   1.285  17.166   5.394  0.2602  0.1936 -0.2174
15621W        W32468   3.626   0.332   1.029  0.2359 -0.0565 -0.2033
15622W        W32469  16.064   7.786   2.133 -0.1854  0.0262 -0.3712
15623W        W32470  13.568  10.598  10.725  0.2078  0.0528  0.1657
15624W        W32471   6.987   0.665   4.475 -0.1684 -0.1408  0.0120
15625W        W32472   4.373   4.607  12.659  0.2115 -0.1998 -0.0069
15626W        W32473  14.043   2.933  13.393 -0.2221  0.0232  0.1185
15627W        W32474  18.284  14.641   0.861 -0.2469 -0.0867 -0.2663
15628W        W32475  11.343   2.168  10.800 -0.1324  0.1413  0.3570
15629W        W32476  18.042  15.597   3.361 -0.1894  0.1921  0.0213
15630W        W32477   5.381  15.034   5.088 -0.0609 -0.0891 -0.1707
15631W        W32478  17.087   4.070  14.403 -0.0676  0.2029  0.1669
15632W        W32479   4.486  14.171  12.041 -0.1515 -0.0865  0.1281
15633W        W32480   3.645  12.608   5.556 -0.1153  0.2843  0.2666
15634W        W32481   6.251   4.461  14.929  0.1484  0.1081  0.2702
15635W        W32482   1.972  13.127  12.085 -0.1186  0.1416  0.2964
15636W        W32483   1.176   3.834   0.273  0.0890  0.0590  0.1621
15637W        W32484   3.691  11.649  11.803 -0.0172 -0.1520  0.2785
15638W        W32485   9.045  16.983  13.051 -0.1973  0.1940  0.1715
15639W        W32486   6.952  15.435   0.486 -0.0317 -0.0662 -0.0713
15640W        W32487  11.638   1.636  14.588 -0.0977 -0.3559 -0.1189
15641W        W32488  13.912   0.865   1.547  0.3547  0.0543 -0.2040
15642W        W32489  17.842  10.587  12.264 -0.0039  0.1144  0.0390
15643W        W32490   7.753  18.187   1.100  0.2132  0.2536 -0.2789
15644W        W32491  12.330   2.107   3.886  0.1879 -0.2379 -0.2370
15645W        W32492   7.735   7.598  15.126 -0.2897  0.1271 -0.0067
15646W        W32493  15.537  13.877   3.035  0.2069  0.0703  0.3736
15647W        W32494   4.007  16.601  13.038 -0.0438 -0.0177 -0.4034
15648W        W32495   9.432   2.018  12.489 -0.0654  0.1243 -0.0470
15649W        W32496  12.711  14.548  14.749 -0.1713 -0.0633  0.1700
15650W        W32497   7.653  16.790   3.451 -0.0448  0.1184 -0.1766
15651W        W32498  11.515   5.708   5.244 -0.0034  0.2243 -0.2119
15652W        W32499   2.022  18.425  11.671  0.1267  0.1037 -0.1458
15653W        W32500   2.211   2.234  12.097 -0.0557 -0.1205  0.0339
15654W        W32501  12.080   3.390   1.466 -0.3391 -0.1621 -0.2491
15655W        W32502  11.950   3.600  11.401  0.0785  0.2846 -0.0966
15656W        W32503   7.540   6.853  11.916  0.0604 -0.3850 -0.0235
15657W        W32504  15.985   6.133   5.842 -0.0473  0.0818  0.1890
15658W        W32505   3.747  14.457  11.605 -0.1227 -0.1156  0.1622
15659W        W32506   1.394   1.110  15.668 -0.1993  0.1741 -0.2669
15660W        W32507  16.634   6.099  13.586 -0.0607 -0.1197 -0.2203
15661W        W32508  10.255   4.283  13.015  0.0288  0.0801  0.0767
15662W        W32509  15.804   3.548   2.997 -0.0424  0.0047  0.0906
15663W        W32510   3.243   9.596   0.785  0.0112  0.0267  0.0704
15664W        W32511  12.281   5.577   2.477 -0.2504 -0.4635  0.1817
15665W        W32512   6.735  18.179  13.855 -0.0977  0.1301  0.0353
15666W        W32513  16.951   3.246  10.190  0.0812 -0.0045 -0.0412
15667W        W32514   2.551   8.215   2.243 -0.3621 -0.0713 -0.2575
15668W        W32515  16.651  17.482   0.887  0.1758 -0.2092  0.2501
15669W        W32516  13.819  17.345  12.227  0.2436 -0.2888 -0.2447
15670W        W32517  17.200  14.077   3.521  0.0757 -0.0257 -0.1652
15671W        W32518   1.197   0.909   1.116  0.1972 -0.0860  0.0948
15672W        W32519   8.697  12.934  15.054 -0.2717 -0.1780  0.3093
15673W        W32520  12.838  11.991   1.514 -0.1021  0.2430 -0.0294
15674W        W32521   9.943  16.382   4.315  0.1368 -0.1299 -0.1764
15675W        W32522   4.690  17.981  13.541 -0.2174 -0.0264 -0.1943
15676W        W32523  14.878   8.861   4.739  0.0084 -0.1353 -0.2098
15677W        W32524   7.020  10.108  12.431 -0.0159 -0.0312 -0.2601
15678W        W32525   4.815   0.537  15.765  0.0835 -0.2788  0.0319
15679W        W32526   5.685  12.948  15.315  0.1212 -0.3012  0.0810
15680W        W32527  10.705   5.887  14.555 -0.0885  0.0561 -0.0201
15681W        W32528   3.297   8.278   0.587 -0.1701  0.0407  0.0145
15682W        W32529  10.138  11.333  15.293 -0.4329  0.2617 -0.2240
15683W        W32530   2.725   4.220  15.576  0.0604 -0.0083 -0.4405
15684W        W32531   9.299  14.947   3.881 -0.1554 -0.1324  0.0940
15685W        W32532   9.033   0.699   0.689  0.1051 -0.2080 -0.2266
15686W        W32533   5.104   2.650  11.955 -0.1349  0.0155 -0.4457
15687W        W32534   5.174  13.491   4.203 -0.0752  0.2269  0.2138
15688W        W32535  12.234   8.647   4.310  0.2487  0.0737  0.1726
15689W        W32536  12.034  12.642   2.269 -0.2245  0.0996  0.2237
15690W        W32537   7.971  17.220   0.274  0.0267  0.4079  0.1220
15691W        W32538   8.281   0.619   4.175  0.0440  0.2156  0.0312
15692W        W32539  18.411   0.483  15.603  0.2325  0.0969  0.1085
15693W        W32540   8.230  11.287   0.454 -0.2580  0.2496  0.2054
15694W        W32541   5.882  14.250   1.638  0.0888  0.1433  0.1977
15695W        W32542  15.245  11.429  12.952 -0.3567  0.0802  0.1032
15696W        W32543  18.058   7.123   4.962  0.3013  0.2578  0.1177
15697W        W32544   4.907   7.541  13.485  0.1770 -0.4020  0.0895
15698W        W32545  13.669  11.613   2.009  0.1148 -0.2616 -0.0098
15699W        W32546  18.271  13.294   0.227  0.1896 -0.1218  0.1098
15700W        W32547  12.285   0.533  15.120 -0.0295 -0.1641  0.0222
15701W        W32548  15.793  15.430  13.357 -0.1869  0.3032 -0.3765
15702W        W32549  14.640   1.557   3.234 -0.1090 -0.2248  0.0748
15703W        W32550   2.567   8.443  13.918 -0.2702 -0.2290 -0.1238
15704W        W32551  12.086   6.848  13.520  0.1387 -0.1071 -0.1809
15705W        W32552   4.259  15.100  14.499  0.2634 -0.0689  0.0107
15706W        W32553   9.501  13.370   0.392 -0.1238  0.0486 -0.1477
15707W        W32554  13.656   4.357   1.210 -0.3540  0.0289  0.3151
15708W        W32555   0.697   6.267   0.898  0.0571  0.1274  0.0061
15709W        W32556   1.677  16.929   2.631 -0.0473  0.1674 -0.1558
15710W        W32557  10.398  13.175  14.186 -0.0368 -0.2837 -0.1185
15711W        W32558   8.130   1.837  11.312 -0.0131 -0.0314  0.0082
15712W        W32559   6.079   5.988  15.251  0.1258  0.1815  0.3629
15713W        W32560   2.396  17.613  13.469 -0.1447 -0.4325 -0.0104
15714W        W32561  17.846   3.702  14.830  0.3567 -0.1336  0.4750
15715W        W32562   7.170   4.745  13.739  0.1492  0.1792 -0.0231
15716W        W32563  13.849  16.245  14.973  0.0284 -0.2371 -0.0876
15717W        W32564   5.468  16.650  11.813 -0.1353 -0.1195 -0.0101
15718W        W32565   3.688  16.424   1.540 -0.1118 -0.1109 -0.1043
15719W        W32566   6.671   1.762   3.555  0.0391  0.2310  0.0751
15720W        W32567  15.908   2.581  12.566  0.1608  0.1108  0.2400
15721W        W32568  13.592   2.273  13.156 -0.1777  0.0058  0.1310
15722W        W32569  11.870   4.820   5.264 -0.1472  0.0022 -0.0623
15723W        W32570  14.635  11.874  12.444  0.0830 -0.2237 -0.0370
15724W        W32571  17.788   7.447   3.765 -0.2469  0.2475 -0.2949
15725W        W32572  11.073  17.496   1.849  0.2455 -0.3530 -0.4046
15726W        W32573   9.214   7.062   3.842  0.0136 -0.1698  0.2154
15727W        W32574   5.942   1.402  15.476  0.0878  0.1854 -0.0042
15728W        W32575   6.186   5.504   3.480  0.0838 -0.6170  0.0221
15729W        W32576  11.707  18.375   0.772 -0.1330  0.1379 -0.0201
15730W        W32577  13.761  16.163  13.391  0.0470  0.3839 -0.1525
15731W        W32578   0.985  12.465   5.070  0.1444  0.0445  0.1104
15732W        W32579  13.341   1.350  11.335 -0.1786  0.1045  0.1671
15733W        W32580   4.719  11.925   4.454 -0.1114  0.0091 -0.2333
15734W        W32581  14.845   9.584   4.170 -0.0736 -0.1316  0.2772
15735W        W32582   3.008   4.371   5.776 -0.1355 -0.1136  0.2656
15736W        W32583  17.497   8.237   1.390  0.1758  0.0673  0.3182
15737W        W32584   5.603  12.027   1.647 -0.0947  0.0320 -0.5033
15738W        W32585   4.924  11.475   4.112  0.0605 -0.1255 -0.2726
15739W        W32586  14.403   2.530   1.167  0.0999  0.2071  0.3734
15740W        W32587   2.571  11.481  11.621 -0.2630  0.2579  0.3280
15741W        W32588   9.890   0.418  11.123  0.2771 -0.2869 -0.2434
15742W        W32589  13.008  11.340  13.087 -0.0539  0.0786 -0.0157
15743W        W32590   6.986   4.243   5.099  0.0158  0.0442 -0.1502
15744W        W32591  16.038  16.942  15.863  0.1423  0.2734 -0.5020
15745W        W32592   5.806   3.751   4.859  0.0399 -0.0932 -0.0169
15746W        W32593   8.318  14.724  12.436 -0.0676 -0.0966  0.0232
15747W        W32594   4.568   7.560  12.024  0.3095 -0.0721 -0.1082
15748W        W32595   5.863   6.822  12.554 -0.0257  0.0554 -0.3930
15749W        W32596   8.623  16.975   1.272  0.0645  0.0112  0.2363
15750W        W32597   8.754  17.976   2.266 -0.1026  0.0550  0.1160
15751W        W32598  14.866   1.172   4.498 -0.0521 -0.0938  0.1616
15752W        W32599   8.284   7.949  11.772  0.2698 -0.1563 -0.1062
15753W        W32600   8.091   7.806  14.364  0.2037  0.1936 -0.0882
15754W        W32601   5.294  11.338   0.827 -0.0974  0.1743 -0.2531
15755W        W32602   5.860   0.215   0.236 -0.0764 -0.3275  0.1294
15756W        W32603  10.350  11.132  13.435  0.2316 -0.2916  0.0439
15757W        W32604  10.882  17.530   0.044  0.0670 -0.1101  0.3704
15758W        W32605   7.848   3.020   4.818  0.3068  0.1220 -0.1353
15759W        W32606  12.747   4.782   5.506 -0.3521 -0.0244 -0.2112
15760W        W32607   5.570  17.832   5.320 -0.0178 -0.2081 -0.3238
15761W        W32608  15.868  13.146  11.215  0.0914  0.0686  0.2215
15762W        W32609  15.280  13.662   5.132  0.0047  0.0728  0.1916
15763W        W32610   4.607   9.033  11.113 -0.0234  0.0936  0.1786
15764W        W32611  11.928   3.479   0.964  0.1786 -0.0666  0.2057
15765W        W32612  16.636   4.273   0.020 -0.1395 -0.1422 -0.2297
15766W        W32613   3.910  12.017  11.490  0.1129  0.1973  0.2533
15767W        W32614  10.033  10.680  14.574  0.0413 -0.0780 -0.0793
15768W        W32615  11.458   4.886   4.281 -0.2699  0.3089 -0.0708
15769W        W32616  13.150   7.516  12.728 -0.2538  0.2341 -0.2542
15770W        W32617   3.291   8.485  11.917  0.1591 -0.3378 -0.0427
15771W        W32618   1.883  13.616   2.218  0.1524  0.2281  0.1999
15772W        W32619  16.238   1.418  13.488  0.0401 -0.3411  0.0141
15773W        W32620   7.019   7.353  11.394  0.3241  0.2036 -0.0385
15774W        W32621  10.540  15.330   5.055  0.2110 -0.0004 -0.0417
15775W        W32622   8.994  17.459  11.537 -0.1419  0.2197  0.0684
15776W        W32623   4.746   5.838  11.787  0.2724 -0.1151 -0.0410
15777W        W32624  11.345  17.244   4.551 -0.3728 -0.1269 -0.1853
15778W        W32625  13.954   6.159  13.561  0.0267 -0.1575 -0.0100
15779W        W32626  11.848   3.975   3.659 -0.2365  0.1000  0.0579
15780W        W32627  13.054  12.542  12.688 -0.0317 -0.0537 -0.1037
15781W        W32628  15.694   1.241  14.607 -0.1272  0.1915 -0.0492
15782W        W32629   2.856   7.431   6.131  0.0625 -0.0262  0.0799
15783W        W32630  14.930  15.990   2.102  0.0847  0.3049 -0.0218
15784W        W32631  10.136   3.616   2.584 -0.0962  0.1518 -0.1099
15785W        W32632  14.052   4.072   1.267  0.2731  0.2236 -0.0439
15786W        W32633   9.454   1.699   4.813  0.0565 -0.1660  0.0298
15787W        W32634   6.254  12.775  13.603 -0.0384  0.0809  0.1366
15788W        W32635  15.624   2.629   1.408  0.2296 -0.0999  0.1962
15789W        W32636   2.921   8.958  11.205  0.1959 -0.0243  0.0798
15790W        W32637   6.205  15.466   1.790 -0.0629 -0.2957  0.0162
15791W        W32638   4.612  12.493  14.198  0.1498  0.0574  0.0550
15792W        W32639  13.895   7.547  14.406 -0.1647  0.2674  0.3581
15793W        W32640  14.036   0.045  12.796 -0.1486  0.0591  0.1099
15794W        W32641   7.225   3.318  15.310  0.0319  0.0660  0.3527
15795W        W32642   7.223   0.920   1.586 -0.1291 -0.1541 -0.0617
15796W        W32643   3.447   9.107   3.903 -0.1138  0.4179 -0.3403
15797W        W32644  15.585   8.477   0.648 -0.0285 -0.4237 -0.0219
15798W        W32645  15.077   9.468  15.391  0.1642 -0.3081  0.0064
15799W        W32646   3.386   9.346  11.599  0.0776 -0.0383 -0.0595
15800W        W32647  15.478   6.261   1.976  0.2481  0.0304 -0.2194
15801W        W32648   8.781  12.600  14.133  0.1808 -0.3349  0.1365
15802W        W32649   5.681   7.423  14.652 -0.0649  0.2896  0.0620
15803W        W32650  14.536  14.138  11.289 -0.0430 -0.1513  0.0117
15804W        W32651   2.145   4.926  13.386  0.1315 -0.1297  0.0694
15805W        W32652   7.265   7.653  11.788  0.1447  0.0583  0.1307
15806W        W32653   9.192   8.459   1.533 -0.0667  0.1353  0.2771
15807W        W32654  13.915  14.593  15.340 -0.2276  0.0342  0.0229
15808W        W32655   6.112   7.749   3.493 -0.0380 -0.0373 -0.0932
15809W        W32656   2.809  12.059  15.456  0.0965  0.0713 -0.0652
15810W        W32657   2.347  15.351   2.054 -0.1964 -0.0171  0.2485
15811W        W32658  17.868  16.280   4.823 -0.0874 -0.2650  0.0235
15812W        W32659  15.938  12.629   1.399  0.0622  0.1623  0.1145
15813W        W32660  13.312   6.973   2.572 -0.1948  0.2168  0.0877
15814W        W32661   4.138   1.739  11.611  0.0035  0.0394  0.0086
15815W        W32662   5.877  15.993  13.494  0.2434  0.1719 -0.4272
15816W        W32663   6.076  16.056  11.632 -0.0348  0.0160  0.0938
15817W        W32664   4.770   9.542  15.665 -0.1273 -0.2281 -0.0231
15818W        W32665  11.890   7.312  13.413 -0.1979  0.3174 -0.2117
15819W        W32666   7.892   5.449  11.468  0.1292 -0.0202  0.1136
15820W        W32667   6.660  18.085  11.342  0.0756  0.1078  0.1514
15821W        W32668  10.255   3.978  13.451  0.0962  0.2972  0.1346
15822W        W32669  14.640   6.217   2.097 -0.1678 -0.1770 -0.0485
15823W        W32670   3.469   5.879   1.552 -0.0224  0.3832  0.3100
15824W        W32671  14.835   5.896  14.469  0.2107  0.0153 -0.2249
15825W        W32672   8.363   2.142  15.914  0.0301 -0.2536 -0.0971
15826W        W32673   2.001   8.088   0.830  0.0313  0.1315 -0.0024
15827W        W32674   9.421  12.850   5.570  0.0560 -0.2190  0.0204
15828W        W32675  14.961   9.792   5.305  0.1894 -0.0034  0.5826
15829W        W32676  13.777   6.711  13.221  0.1045  0.0097  0.2216
15830W        W32677   9.155  15.727  12.166  0.1709  0.1356  0.1390
15831W        W32678   2.195   1.735  12.149 -0.1278  0.1134  0.3372
15832W        W32679   9.958  10.532   1.817  0.1183  0.1043 -0.2229
15833W        W32680   2.119  15.366   0.826  0.4047 -0.3527  0.0162
15834W        W32681  15.122   1.170   3.170 -0.1477 -0.0145 -0.2143
15835W        W32682   4.103  14.446   0.967  0.4807  0.1970 -0.1677
15836W        W32683  12.407  10.948   4.823 -0.1163 -0.1617 -0.1170
15837W        W32684   4.983   5.216  13.543  0.0776 -0.0483  0.1074
15838W        W32685   5.204   9.175  11.689  0.0642 -0.3091  0.0682
15839W        W32686  10.436  15.083  13.355 -0.0978  0.2818  0.1895
15840W        W32687   9.297  17.516  12.290 -0.1779 -0.1310 -0.3235
15841W        W32688  13.860  11.674   4.031  0.0974 -0.0493 -0.1805
15842W        W32689  10.565  16.606  14.799  0.0218  0.3033 -0.0686
15843W        W32690   4.436   3.132   4.927 -0.1636  0.1270 -0.1776
15844W        W32691  12.106  11.315  15.563 -0.1113  0.1380 -0.0755
15845W        W32692   0.607   9.839  14.510  0.0124  0.2118 -0.1753
15846W        W32693  14.044   7.007   5.170 -0.0131 -0.1132 -0.0624
15847W        W32694   8.041   6.877   2.223  0.0393  0.1055  0.2529
15848W        W32695  15.686  14.885  11.520  0.1459  0.2692  0.1516
15849W        W32696   9.333   1.918  15.766  0.0380 -0.3582  0.2388
15850W        W32697  16.499   9.705  15.371  0.0409 -0.4150  0.1753
15851W        W32698  11.042   3.081  15.561 -0.0013 -0.0241  0.1699
15852W        W32699   4.590   1.046   2.155  0.0142  0.1793  0.0810
15853W        W32700  10.105   6.920  15.054  0.0279 -0.1999  0.1267
15854W        W32701  17.194   0.363  14.673 -0.0107  0.2560 -0.0194
15855W        W32702  17.222  12.133   4.820  0.0146  0.3266  0.1295
15856W        W32703   9.280  16.399   2.550 -0.0333 -0.2278  0.1590
15857W        W32704   1.730  16.699  15.672 -0.1751 -0.2781  0.3033
15858W        W32705  16.066  10.631   1.475  0.2264 -0.1617 -0.0568
15859W        W32706   8.598  12.465   1.701 -0.2909  0.0902  0.0126
15860W        W32707   7.171   7.413   1.590  0.0729 -0.0918 -0.1895
15861W        W32708   8.026   7.029  12.405  0.0765  0.0781 -0.1124
15862W        W32709   2.661   4.945  12.448 -0.0077  0.0753 -0.1998
15863W        W32710   5.728  12.021   2.167  0.1472 -0.3484 -0.0478
15864W        W32711  16.293   8.292   1.185  0.2548 -0.1650  0.1561
15865W        W32712  11.889   3.679   0.464 -0.0600  0.0810  0.1581
15866W        W32713  12.178  15.240   5.089 -0.0503  0.0091 -0.1266
15867W        W32714   6.920   7.501  15.203  0.0799 -0.1666 -0.0264
15868W        W32715  11.148  14.393  15.336 -0.0048 -0.0708  0.0601
15869W        W32716  13.820  16.327   3.279  0.2515  0.0848 -0.1082
15870W        W32717   3.009  12.701   2.457 -0.1612 -0.0809 -0.1061
15871W        W32718   2.691   8.701  12.382  0.0982 -0.0660 -0.0580
15872W        W32719   9.527   2.631  11.282 -0.0334 -0.3780 -0.0727
15873W        W32720   8.543   1.198  11.867 -0.0805 -0.0989  0.1539
15874W        W32721   7.610   5.319   4.191  0.2752 -0.1984  0.0613
15875W        W32722   8.305  14.474  14.073  0.0699 -0.1824 -0.3342
15876W        W32723   2.277  12.508   3.735 -0.1873  0.0532  0.0668
15877W        W32724  12.108  18.106   0.873  0.2349  0.2142 -0.0807
15878W        W32725   3.315  14.485   5.115 -0.2008  0.0224  0.3403
15879W        W32726   6.975  12.054  14.437  0.0197  0.2561  0.0398
15880W        W32727   1.380  12.885   5.792 -0.0021  0.3001 -0.0776
15881W        W32728  10.824  17.073  11.318  0.0590 -0.3970 -0.1657
15882W        W32729   4.145  16.542  11.488 -0.1222 -0.0094 -0.1174
15883W        W32730  18.240   9.265  12.869 -0.1234 -0.3493 -0.1119
15884W        W32731   6.796   4.038   4.713 -0.0277 -0.3792 -0.0755
15885W        W32732   5.838   0.318  13.236 -0.1412 -0.1670 -0.1060
15886W        W32733   8.156   5.758   3.425 -0.1017 -0.0035  0.3328
15887W        W32734  14.784   0.269   3.244  0.1421 -0.0896  0.1322
15888W        W32735   0.758   7.656   3.213 -0.2530  0.0558 -0.2614
15889W        W32736  15.460  11.996  14.868  0.1738 -0.0645 -0.3000
15890W        W32737  16.190  17.433   0.660 -0.0476  0.0520 -0.3192
15891W        W32738  12.003  11.719  12.892  0.0424 -0.1911  0.2449
15892W        W32739   8.428   2.118   3.864  0.1203  0.2332  0.0531
15893W        W32740   2.206  11.148   0.844 -0.0218  0.3612 -0.1194
15894W        W32741  15.421   7.042   4.387 -0.2037 -0.0292 -0.0876
15895W        W32742   7.365  13.872  13.734 -0.0714  0.0395 -0.0682
15896W        W32743  16.074   3.680  11.347 -0.0612 -0.1287  0.0987
15897W        W32744  10.888  14.223  13.122  0.1120  0.0914 -0.1173
15898W        W32745  16.889  12.172   1.604 -0.0965  0.1998 -0.0723
15899W        W32746  12.576   5.535  15.669  0.0953  0.1312  0.0704
15900W        W32747  14.900  17.641  14.118 -0.1215  0.0932 -0.0877
15901W        W32748   1.861  16.249  14.011  0.2080 -0.2838  0.0674
15902W        W32749  17.100   5.247  12.177  0.0666 -0.0168  0.0904
15903W        W32750  18.031  15.356  15.236  0.2114  0.2607 -0.1510
15904W        W32751   0.009  18.011  10.982  0.1761 -0.1385  0.0127
15905W        W32752  16.535   0.244   1.727  0.0652  0.0238  0.1780
15906W        W32753   6.645  11.646   3.050  0.2322  0.2345  0.1290
15907W        W32754   1.920  14.515  15.564  0.3032  0.0301  0.1123
15908W        W32755  12.945   9.380   3.274 -0.2071  0.2296  0.1883
15909W        W32756  16.372   7.016   3.332 -0.0547 -0.2006  0.0314
15910W        W32757  11.709  16.129  15.135 -0.0875 -0.2308 -0.0155
15911W        W32758   3.613  10.744   5.274  0.0631 -0.1679  0.3133
15912W        W32759  15.088  15.889  11.671 -0.1314 -0.0697  0.1532
15913W        W32760  11.930  18.334  14.853  0.0350 -0.3272 -0.0813
15914W        W32761   8.681   8.671   0.445 -0.2379 -0.0881  0.0492
15915W        W32762   8.475  11.155  10.358 -0.0501 -0.0396  0.3160
15916W        W32763   6.601   8.401  12.167  0.2151  0.0966 -0.0371
15917W        W32764  15.356   6.699  14.836  0.2785 -0.0373 -0.3515
15918W        W32765  12.212  11.059  12.468  0.3364 -0.1652  0.3899
15919W        W32766  15.868  12.946  12.492 -0.1120 -0.1451  0.3260
15920W        W32767  10.263   7.764  15.424  0.1247  0.3168  0.2948
15921W        W32768  15.034  10.422  11.972  0.0198  0.4805 -0.3301
15922W        W32769  12.073   7.821  13.486 -0.1011 -0.0062  0.0186
15923W        W32770  17.954   6.262  11.786 -0.1957 -0.0311 -0.1973
15924W        W32771   5.389   5.663   0.664  0.2805  0.1531  0.1129
15925W        W32772   8.424  12.296  12.948  0.2194  0.4598 -0.0855
15926W        W32773  18.168  11.663  14.292  0.0080 -0.2315 -0.0831
15927W        W32774   4.992   8.990   2.778 -0.1328 -0.0058 -0.0410
15928W        W32775   3.831   3.209   3.419  0.0364  0.0710 -0.1744
15929W        W32776  13.579  18.224  15.256 -0.2448 -0.3569 -0.0858
15930W        W32777  13.091   5.151   2.531  0.2168  0.1208 -0.0712
15931W        W32778  11.161   3.128   2.826 -0.1537 -0.0048  0.0422
15932W        W32779   6.185   6.821   5.266  0.1237 -0.2799 -0.0529
15933W        W32780   6.356  13.426   1.931 -0.0053 -0.0926  0.1718
15934W        W32781  18.210   3.544   4.543 -0.2841 -0.2854 -0.1729
15935W        W32782  11.934   5.864  10.776 -0.1747 -0.1171  0.1461
15936W        W32783   5.601   4.124   3.149 -0.1965  0.1421  0.3926
15937W        W32784  11.846   5.568  11.635  0.0236 -0.0621 -0.0317
15938W        W32785   8.254  12.918  14.025  0.0372 -0.3101  0.0313
15939W        W32786  17.493   2.972  11.948  0.1120 -0.3444 -0.0893
15940W        W32787  16.163  13.855  15.231  0.0624 -0.1965  0.1840
15941W        W32788   0.540   1.672  12.929  0.3574  0.0594 -0.0453
15942W        W32789   1.549   2.295  15.610  0.0588 -0.1564  0.1669
15943W        W32790   2.222   9.524   2.675  0.2019 -0.2478  0.2715
15944W        W32791   2.855  13.128   3.525  0.1102  0.1535 -0.0790
15945W        W32792   3.874   2.405  12.228  0.0084  0.0174  0.1315
15946W        W32793  12.434   7.696   3.255 -0.2594 -0.0022 -0.2065
15947W        W32794  16.838  12.756  13.630  0.0716  0.0226 -0.1370
15948W        W32795   1.006   7.160   4.955  0.0618 -0.0358  0.1712
15949W        W32796  14.187   3.206  15.337  0.0609 -0.0611  0.0482
15950W        W32797   6.880  18.126  14.829 -0.2277 -0.0729  0.1575
15951W        W32798   8.078   9.192  12.847  0.0215  0.0320  0.4595
15952W        W32799  15.756   8.117  11.436  0.3559  0.1790  0.0293
15953W        W32800   3.975  12.873   2.199 -0.4091  0.1574 -0.1248
15954W        W32801   3.129  12.425   2.025 -0.0152  0.2104  0.0143
15955W        W32802  11.837  11.679   1.536 -0.1039 -0.0255 -0.0244
15956W        W32803  13.485   0.324   4.435 -0.0913 -0.1021 -0.0202
15957W        W32804  13.157  14.980  15.235  0.1522 -0.2053 -0.0061
15958W        W32805   0.752  14.416   4.205 -0.2458  0.0145  0.6562
15959W        W32806   5.216   1.489  12.258  0.1014  0.2654  0.0088
15960W        W32807  11.301  16.515   2.775  0.2393  0.3514  0.2414
15961W        W32808   9.613  11.736  15.854 -0.0478 -0.0564  0.3245
15962W        W32809  15.393  11.113  11.601  0.1379 -0.2788 -0.2324
15963W        W32810  13.460   8.272  10.862 -0.1648 -0.1906  0.0939
15964W        W32811  18.285   1.600   2.585  0.1428  0.1071  0.1241
15965W        W32812  10.555  17.063   1.021  0.2158 -0.1967  0.3287
15966W        W32813  18.365  15.238  15.629 -0.0234  0.0724 -0.0781
15967W        W32814   8.157  11.813  12.937  0.3616  0.0073 -0.0543
15968W        W32815   0.295  14.489  11.484 -0.1751 -0.0605 -0.2564
15969W        W32816  11.917  17.644  11.778 -0.1600  0.1743 -0.0357
15970W        W32817   3.419   9.786  12.890  0.1343 -0.0621  0.1258
15971W        W32818   7.279   1.766   1.388  0.2508  0.0382  0.0374
15972W        W32819  14.013  17.808  11.746  0.3869  0.3417 -0.0812
15973W        W32820  13.917  12.145   6.188  0.1327 -0.0577  0.1707
15974W        W32821   8.917   0.811  10.749  0.2325 -0.4252  0.1960
15975W        W32822  12.061   1.545  14.881  0.0506 -0.2962  0.2632
15976W        W32823   3.342   2.737   4.769  0.1875  0.4073  0.1489
15977W        W32824  16.019  17.521   4.433 -0.0226  0.0855  0.0706
15978W        W32825   5.537  12.629  12.925  0.1861 -0.2741 -0.2192
15979W        W32826   1.118  16.801  11.184  0.0221 -0.5292  0.0989
15980W        W32827   9.785  17.884   3.711 -0.1010 -0.3954 -0.0775
15981W        W32828  11.997  18.461   3.362 -0.1656 -0.3612 -0.1730
15982W        W32829   4.056   0.470  14.193  0.0225  0.0888 -0.1501
15983W        W32830   5.474  11.334  14.381 -0.0277  0.0094  0.1052
15984W        W32831   6.100   0.075   2.958  0.0777 -0.1145  0.1074
15985W        W32832   0.678   2.699  12.162 -0.0065 -0.1570  0.2752
15986W        W32833  17.177   5.105  13.043  0.2057 -0.0944 -0.0374
15987W        W32834   7.308  18.196   1.947  0.2204 -0.1295  0.0440
15988W        W32835  10.096  11.151   2.745 -0.0718  0.1382  0.0932
15989W        W32836  14.781   8.361   3.109  0.0369  0.3451  0.2532
15990W        W32837  13.619  18.023  12.166  0.1203  0.0012 -0.4767
15991W        W32838   0.685  13.875   2.154 -0.2878 -0.0932 -0.3211
15992W        W32839   8.291   9.557  13.793 -0.0040  0.1851 -0.3065
15993W        W32840  11.684  14.688   4.595 -0.1663 -0.0201  0.1463
15994W        W32841  17.423  18.288   1.040 -0.3276  0.1039 -0.0336
15995W        W32842  13.001  17.472   5.540 -0.1451 -0.0671  0.2207
15996W        W32843   6.926  10.135   5.029  0.0440  0.2708  0.2130
15997W        W32844   8.584   4.977  14.140 -0.2726 -0.3072 -0.0442
15998W        W32845   1.592  18.204   0.855  0.0303 -0.0027  0.0477
15999W        W32846  15.447  13.877   1.388  0.4845 -0.2799 -0.2409
16000W        W32847   5.133   4.347   0.468 -0.1507  0.2342  0.0589
16001W        W32848  15.768   1.211  12.829  0.1129 -0.0792  0.2345
16002W        W32849  11.504   6.597  13.018  0.1066  0.0141 -0.0214
16003W        W32850   6.191   3.323   1.593 -0.1505  0.1662 -0.0533
16004W        W32851  15.824  11.671   3.750 -0.0826 -0.1461 -0.3035
16005W        W32852   5.996   6.483  13.145 -0.1891  0.1912 -0.2111
16006W        W32853   4.533  16.841  12.019 -0.1448  0.1288  0.4084
16007W        W32854   0.533   4.736  10.821 -0.1310  0.0275 -0.0590
16008W        W32855  17.622  15.004   0.632 -0.1621  0.2462 -0.2446
16009W        W32856   0.576   4.541  15.815 -0.0212  0.1384 -0.0594
16010W        W32857  17.208   3.593   4.638 -0.0287  0.1392 -0.4671
16011W        W32858  13.033  15.820  14.341 -0.1356 -0.1216 -0.0465
16012W        W32859   7.168   0.145  11.005 -0.2521  0.0234 -0.1587
16013W        W32860   1.563   7.019  15.432 -0.0997 -0.1329  0.0286
16014W        W32861  13.049  18.472  12.505  0.3264  0.1956  0.1471
16015W        W32862  11.995  16.543  15.093 -0.1935 -0.2076 -0.1893
16016W        W32863   2.095  16.199   0.576  0.1260 -0.0162 -0.1447
16017W        W32864   0.602   3.611   4.604  0.0304 -0.0398  0.2265
16018W        W32865   7.500   2.601   2.760  0.1430 -0.0491 -0.0827
16019W        W32866  15.995  15.393  14.288  0.1173 -0.1912  0.1548
16020W        W32867   3.682   2.825  14.240 -0.3195 -0.2179  0.1472
16021W        W32868   3.775   9.050   2.024  0.0207  0.0933 -0.0033
16022W        W32869  15.510  15.170  13.725 -0.4550  0.2185  0.2209
16023W        W32870   1.610   9.233  12.556 -0.3163  0.0573 -0.1014
16024W        W32871   6.750   9.711  13.360 -0.2160  0.0111  0.0741
16025W        W32872  16.836   1.328   4.541  0.3524 -0.0098 -0.3155
16026W        W32873   5.569  18.224   0.671  0.1876  0.1160  0.2351
16027W        W32874   4.697   2.252   1.834 -0.1723 -0.0595  0.1277
16028W        W32875   4.221   7.938  12.024  0.0234  0.1846 -0.2562
16029W        W32876   8.009   0.919  11.214  0.0423 -0.3514 -0.0037
16030W        W32877   7.964   8.534  14.867 -0.3258  0.0495 -0.0920
16031W        W32878  12.462  16.880  12.681 -0.0136  0.1794 -0.1249
16032W        W32879  17.331  10.618  12.133  0.0451 -0.0088  0.3588
16033W        W32880   8.598  12.509  12.115 -0.3556 -0.6693 -0.0934
16034W        W32881   8.170  13.288  12.061 -0.2078 -0.1040 -0.1637
16035W        W32882   0.889   7.495   1.499 -0.1449  0.4570 -0.0823
16036W        W32883  10.815   1.207  13.222 -0.1964 -0.0750 -0.2782
16037W        W32884   1.904   1.970   2.320  0.1069  0.1130  0.1078
16038W        W32885  17.694  16.244   2.516  0.0871 -0.1058 -0.1196
16039W        W32886  10.006  17.642  15.476  0.1310  0.3291  0.1232
16040W        W32887  12.845  13.323  15.115  0.3056 -0.2027  0.3016
16041W        W32888   9.182   5.215   0.741 -0.1090  0.0444  0.0092
16042W        W32889   7.929  17.591   2.397 -0.0759  0.1190 -0.3168
16043W        W32890   1.969   5.448  12.954  0.0123  0.0851 -0.0884
16044W        W32891  16.195   6.266  13.320  0.0729  0.2437 -0.0395
16045W        W32892  10.635  18.243  11.424  0.0338 -0.0267 -0.1566
16046W        W32893   8.953  16.215   4.966  0.0017 -0.2155 -0.0667
16047W        W32894   8.168   2.153   5.114 -0.2516  0.1931  0.0094
16048W        W32895  16.562  11.836  14.604 -0.2129  0.3089 -0.2531
16049W        W32896  14.863   0.922  14.802  0.0052 -0.0314 -0.0865
16050W        W32897   0.688   1.710   1.389 -0.1697 -0.0621 -0.0790
16051W        W32898  13.091   2.471  11.868 -0.1411  0.1128  0.1628
16052W        W32899   4.795  15.707   4.972 -0.3115  0.2702  0.1199
16053W        W32900  11.218  12.640  14.920 -0.2333  0.0020 -0.2781
16054W        W32901   3.888   4.030   0.096 -0.0943  0.1371 -0.0342
16055W        W32902  17.293  14.603  12.136  0.0176 -0.0089  0.0343
16056W        W32903   0.650   8.743  11.694 -0.1017 -0.2813 -0.1198
16057W        W32904  14.599  14.039   3.680 -0.1157 -0.3135  0.1793
16058W        W32905  14.363  14.889  13.859 -0.0744 -0.0889  0.2254
16059W        W32906   4.525   2.975  11.285 -0.3013  0.0021 -0.1565
16060W        W32907   7.448   4.099   5.445 -0.2371 -0.5460 -0.1696
16061W        W32908   0.374   0.052  12.931 -0.0759  0.0851  0.1677
16062W        W32909   4.098   3.129  15.519 -0.2092 -0.1943  0.1890
16063W        W32910  13.654  14.229   6.467 -0.0726  0.3122 -0.0689
16064W        W32911  14.377  15.746  10.434  0.0180  0.2821 -0.2332
16065W        W32912  16.917   6.540  15.176 -0.0711 -0.1693  0.0112
16066W        W32913   9.103   0.765   1.664 -0.0024  0.2621 -0.1710
16067W        W32914  16.593   6.341   4.713 -0.2068 -0.1116  0.1536
16068W        W32915  16.483  10.838   1.602  0.1916  0.0845  0.2830
16069W        W32916  13.246   4.173   2.603 -0.0995  0.1988  0.2358
16070W        W32917   8.477   0.860  11.493 -0.1481  0.2252  0.0219
16071W        W32918   8.480   6.547   2.576 -0.3566 -0.1006 -0.1149
16072W        W32919  15.526   5.367   1.450  0.0043  0.0724  0.0501
16073W        W32920   5.885  15.876   2.662  0.3893  0.0360  0.2890
16074W        W32921   7.629  11.930   3.579 -0.5079 -0.3073  0.3595
16075W        W32922   6.249   7.422   1.785 -0.1518 -0.1216  0.0219
16076W        W32923   3.212   8.559  12.434  0.0614 -0.0729  0.0148
16077W        W32924   0.938   2.939  12.786  0.1122 -0.1699  0.2448
16078W        W32925  12.959  12.989  11.625 -0.0527  0.2322 -0.1489
16079W        W32926   8.505   7.724  15.280  0.0327  0.0571 -0.0100
16080W        W32927   6.842   0.673  13.436 -0.2552 -0.0858 -0.1213
16081W        W32928  12.648  15.402  14.159 -0.1723  0.0100 -0.1487
16082W        W32929   7.641   4.392  11.151  0.0087  0.1188  0.3965
16083W        W32930  12.926   8.703   4.761 -0.3846 -0.0475  0.0536
16084W        W32931  17.354  11.865  15.134  0.3396 -0.1282  0.1945
16085W        W32932  18.180  11.635  12.552 -0.0556 -0.1131 -0.1399
16086W        W32933  13.045  11.947   3.739  0.1790 -0.0270 -0.1930
16087W        W32934  17.737  16.040   0.552 -0.2555 -0.2101 -0.2002
16088W        W32935  15.441   8.262   5.007 -0.1395 -0.0465  0.3122
16089W        W32936   2.093   1.563  14.176  0.3450 -0.0558 -0.1469
16090W        W32937  16.449  17.010   3.025  0.1096 -0.2262 -0.0526
16091W        W32938   6.130  13.014  14.992 -0.0784  0.0823 -0.0528
16092W        W32939   8.795   7.647  14.098  0.3007 -0.0698  0.1913
16093W        W32940   0.460   7.088  14.598 -0.3577  0.1065 -0.0632
16094W        W32941   0.270  18.134   1.084  0.0298  0.2326 -0.3113
16095W        W32942   6.631  12.264   1.857 -0.1934 -0.1103 -0.0848
16096W        W32943  10.448  11.550  15.911 -0.1432 -0.0448 -0.0434
16097W        W32944   1.219   3.844   3.117  0.2011 -0.2460 -0.0100
16098W        W32945  11.874  12.307   3.807 -0.0013 -0.4871  0.0884
16099W        W32946  17.095  16.232   2.374  0.2769 -0.0230  0.3991
16100W        W32947   5.463   6.499   0.291  0.2006  0.2473  0.1977
16101W        W32948  10.312  18.161   0.515  0.0712 -0.0319 -0.3463
16102W        W32949   2.671  11.752  14.147  0.0192 -0.1920  0.4159
16103W        W32950   5.313  15.584  14.992  0.1178 -0.5993  0.1810
16104W        W32951  13.544   6.921  10.605 -0.2416  0.0367  0.0165
16105W        W32952   4.419   2.037   6.019  0.0381 -0.2677  0.0405
16106W        W32953   8.648  14.262   2.788 -0.0446 -0.0820 -0.3305
16107W        W32954  16.325   7.760  15.526  0.1446  0.0815 -0.0333
16108W        W32955   5.675   1.562  15.855  0.0696 -0.1457  0.2036
16109W        W32956   6.740   5.721   0.180  0.2507  0.1867  0.3144
16110W        W32957   4.523   6.705  12.948 -0.0271 -0.2284 -0.0505
16111W        W32958  15.793  14.065   1.732 -0.3013  0.0346 -0.3734
16112W        W32959  16.998  14.462   1.793 -0.3160  0.0836 -0.0386
16113W        W32960   3.982  12.637   1.230 -0.1469 -0.0891 -0.2602
16114W        W32961   8.357   3.662   1.581  0.1620  0.0389  0.1055
16115W        W32962  14.448  16.929  15.699  0.0044  0.0042 -0.0023
16116W        W32963  10.232  10.103   4.446 -0.1664 -0.3233 -0.0637
16117W        W32964  12.497   8.190   3.417  0.0041  0.0231  0.1815
16118W        W32965  13.808   9.354  12.261  0.0908  0.0151 -0.3045
16119W        W32966  15.025   0.238  15.814  0.2702  0.1059 -0.0176
16120W        W32967  15.544   2.774  11.985 -0.1033  0.0945  0.0817
16121W        W32968   7.505  11.471   0.715  0.1446 -0.2032 -0.1095
16122W        W32969   8.373   0.193   2.908 -0.1465 -0.0551 -0.0192
16123W        W32970   6.113   9.465   4.894 -0.6156  0.3364 -0.4160
16124W        W32971  13.653  12.186  15.947 -0.0025  0.3304 -0.0907
16125W        W32972  15.290  16.936   2.597  0.0591 -0.1536  0.1954
16126W        W32973  16.849  11.748   1.300 -0.0267  0.0368  0.1126
16127W        W32974  13.698  14.126  15.408  0.1882  0.0533 -0.3199
16128W        W32975   2.075   6.254   1.040  0.1289  0.0783  0.1092
16129W        W32976   9.727   0.926  15.065  0.1893 -0.0724  0.1733
16130W        W32977  13.121   0.568  14.746 -0.2846  0.1202  0.0453
16131W        W32978  17.585  17.263  11.673 -0.0078 -0.0388 -0.2227
16132W        W32979   8.065   3.297   1.755 -0.0053 -0.0729 -0.2754
16133W        W32980  13.547   6.138   3.953  0.2300 -0.0773  0.1395
16134W        W32981   3.067  15.396   5.288 -0.1809 -0.0423  0.0338
16135W        W32982   0.195  14.791   1.055  0.0981 -0.0247 -0.0035
16136W        W32983  11.887  14.065  15.598  0.0022  0.0207 -0.1485
16137W        W32984  16.435  15.781   4.178  0.1560  0.1139 -0.2330
16138W        W32985   9.942   2.948  14.608 -0.3766  0.3841 -0.0027
16139W        W32986   9.244  16.294  13.798 -0.0207 -0.0816  0.0253
16140W        W32987   6.709   4.385  12.444  0.1946  0.1316 -0.0796
16141W        W32988   9.851   6.478   4.291 -0.3618 -0.1561 -0.1848
16142W        W32989  15.625  13.204   3.963 -0.1770 -0.2792  0.3290
16143W        W32990   8.352  10.015   5.211  0.0561  0.1299 -0.0557
16144W        W32991  12.766   8.986  11.381 -0.0525 -0.2310  0.1521
16145W        W32992  16.964   9.509  11.963 -0.0707 -0.0786  0.1408
16146W        W32993   1.893   7.913   1.721  0.1963  0.1617 -0.2087
16147W        W32994   2.334   7.909  14.174  0.1455 -0.4138 -0.1343
16148W        W32995   4.090   1.545   5.151 -0.0563  0.0022 -0.2180
16149W        W32996   5.081   8.573  15.682  0.2128  0.1430 -0.1241
16150W        W32997  17.122  16.021   2.869 -0.0901 -0.1932  0.1895
16151W        W32998   9.107   6.604   4.562  0.0258 -0.3229  0.1023
16152W        W32999  16.800  12.201   5.655  0.1032 -0.1268 -0.2769
16153W        W33000   2.272   6.662   4.417  0.1876  0.4003  0.3286
16154W        W33001   1.022   8.078  14.436 -0.1180  0.2369  0.1023
16155W        W33002   6.105  16.006   3.146  0.2248 -0.1056 -0.0392
16156W        W33003   8.981  10.781   5.885  0.1976  0.1937  0.1123
16157W        W33004  10.432  14.072   3.274 -0.2216 -0.1301 -0.1617
16158W        W33005   3.106   0.263  14.108  0.1065  0.3141  0.1096
16159W        W33006   9.379   8.905   3.869 -0.1002 -0.2188 -0.2636
16160W        W33007  11.098  15.222  15.878 -0.1157 -0.1546  0.4742
16161W        W33008  17.462  16.957  12.063 -0.0454  0.0903 -0.2822
16162W        W33009   4.466  11.647   4.111 -0.1333  0.1121  0.0180
16163W        W33010  12.327   2.629   1.066  0.0939 -0.1568  0.0275
16164W        W33011  11.729  10.137   0.977  0.0054  0.3844  0.0845
16165W        W33012   1.794  17.109   4.519  0.0302  0.0074 -0.3270
16166W        W33013  17.588  11.659  11.193 -0.1150 -0.2829  0.0425
16167W        W33014  15.718   4.107  14.691 -0.0259  0.1303 -0.1082
16168W        W33015   2.115   2.545  13.501  0.0356  0.4519  0.1456
16169W        W33016   7.469  14.009   1.655  0.0311  0.1259 -0.1756
16170W        W33017  13.391   5.299   4.269 -0.0230 -0.0657 -0.2928
16171W        W33018   2.119   7.581  15.012  0.2625  0.2568  0.0167
16172W        W33019   2.683  11.755   1.429  0.0765  0.1338 -0.0238
16173W        W33020  18.252  13.668   0.621  0.3382  0.1812  0.0416
16174W        W33021  15.276  13.119   2.433 -0.0591  0.0789 -0.1545
16175W        W33022   7.676   1.846  14.046  0.0723 -0.0448 -0.1727
16176W        W33023   4.741  10.150  15.381 -0.1030 -0.3676 -0.1500
16177W        W33024   2.225   9.097  15.343  0.1576 -0.2596  0.0960
16178W        W33025  14.399   3.267   2.308  0.2026 -0.0885 -0.2142
16179W        W33026   5.532   2.869  13.322 -0.0020  0.1392 -0.2381
16180W        W33027   4.347  17.733   3.100  0.0871 -0.0310 -0.1633
16181W        W33028   0.252  15.168  15.802 -0.0418 -0.3455  0.2800
16182W        W33029  12.051   4.683  13.189  0.1566  0.0092  0.0470
16183W        W33030  10.218  13.198   1.400 -0.0842  0.1462 -0.2432
16184W        W33031  15.513   6.726  10.369  0.3261 -0.2389  0.0268
16185W        W33032  18.454   2.953  11.541 -0.1678  0.0004  0.0655
16186W        W33033  16.610  10.478   2.034  0.0402  0.1286 -0.1132
16187W        W33034  12.403   1.422  13.737  0.1796  0.1773 -0.2039
16188W        W33035  17.220   8.226  11.457  0.1138 -0.1326  0.0056
16189W        W33036   0.224  13.467  14.489  0.0484 -0.1986 -0.1448
16190W        W33037   8.002  13.634   5.130  0.0316  0.1383 -0.6483
16191W        W33038   8.161  10.424   0.119  0.0197 -0.3168 -0.4697
16192W        W33039  13.201   8.699   4.355  0.2092  0.6073 -0.2753
16193W        W33040  16.949   8.812  13.894  0.0632  0.1166 -0.1923
16194W        W33041  11.410  18.194  15.703  0.0303 -0.1930 -0.2628
16195W        W33042  17.458   6.665   0.872  0.1746  0.0027 -0.1193
16196W        W33043   6.776   5.462  14.727  0.3798  0.1587 -0.0086
16197W        W33044   1.915   8.330   5.686  0.1427  0.3606  0.1966
16198W        W33045   2.749   9.115   1.814 -0.0981  0.1447 -0.3375
16199W        W33046   4.891   0.867  14.213  0.5441  0.0687  0.0374
16200W        W33047   0.208   9.149  15.457 -0.0444 -0.0613  0.1050
16201W        W33048  16.316   9.609   4.507 -0.1007  0.2104  0.1789
16202W        W33049  10.269  14.758   4.922  0.0311 -0.0865 -0.0128
16203W        W33050  11.552  17.646  14.490 -0.0184 -0.1227 -0.1200
16204W        W33051  16.322  15.811  12.578  0.4280 -0.1200  0.3059
16205W        W33052   6.770  11.821  14.011  0.2152  0.1722  0.1441
16206W        W33053   1.059  14.956  13.701 -0.1490  0.3585  0.0698
16207W        W33054  10.735  18.434   0.487 -0.0650  0.1875 -0.0366
16208W        W33055  13.762  11.173   3.901  0.2548 -0.0063 -0.3059
16209W        W33056   5.779  12.149   5.113 -0.2139 -0.0058  0.0123
16210W        W33057  16.218   8.193  15.343 -0.1823  0.0501 -0.0300
16211W        W33058   7.260   2.786  15.118 -0.1395  0.2194  0.0548
16212W        W33059   7.671  13.657   0.340  0.0061 -0.0368 -0.1221
16213W        W33060   1.839   5.334   1.109 -0.1764 -0.1122 -0.0515
16214W        W33061   2.512   9.017   1.250 -0.2950 -0.4467 -0.1056
16215W        W33062   8.707  13.223  13.209 -0.1581 -0.0415  0.2581
16216W        W33063  14.248   4.894   1.974 -0.0529 -0.0011 -0.1176
16217W        W33064  17.513   0.076  11.954 -0.0495  0.1803 -0.0234
16218W        W33065  14.340  10.342  12.789  0.2225  0.0883  0.0975
16219W        W33066   2.799  10.338   4.007  0.2099  0.0434  0.1415
16220W        W33067   7.852   0.585   0.291  0.0640 -0.1437 -0.0146
16221W        W33068  13.063  12.501  11.622  0.1459 -0.2342 -0.0637
16222W        W33069  13.426   3.921   0.777 -0.3891 -0.2480 -0.1380
16223W        W33070   3.017  17.993   4.444  0.0701 -0.2111  0.4900
16224W        W33071  12.316  11.398   1.415 -0.0194  0.3290  0.0511
16225W        W33072   6.852   4.635  12.991 -0.1858 -0.1693 -0.0856
16226W        W33073   5.082   7.391   1.351  0.1221 -0.0131 -0.2570
16227W        W33074   2.554   7.777  14.636 -0.0625 -0.2553  0.3362
16228W        W33075  10.359   2.700  12.238  0.0778 -0.2405 -0.4008
16229W        W33076  16.444  17.845  15.567 -0.1267 -0.1447 -0.1671
16230W        W33077   5.630  13.664  11.923 -0.3399  0.3043  0.1124
16231W        W33078   8.373   9.500   3.298 -0.0849 -0.0835 -0.0575
16232W        W33079  12.384  15.114   1.659 -0.1151 -0.0664 -0.2603
16233W        W33080   6.400   5.485  13.036 -0.1662 -0.1289 -0.2309
16234W        W33081  17.987   4.614  12.817 -0.0517 -0.0001  0.1256
16235W        W33082  17.779   7.878   0.762  0.1707 -0.0560 -0.1063
16236W        W33083  13.794  11.428   4.997  0.0098 -0.1387 -0.3016
16237W        W33084   4.846  14.060   0.499 -0.2251 -0.4329  0.0982
16238W        W33085   8.983   5.456  14.928 -0.4539  0.3725 -0.3697
16239W        W33086   0.921   8.939   4.657 -0.0971 -0.0202  0.0822
16240W        W33087   6.885  13.992   3.082  0.2895 -0.2782 -0.2983
16241W        W33088  10.692   9.594   1.692  0.3338 -0.0362  0.0460
16242W        W33089   4.032  16.886   1.632  0.4507  0.0652  0.2036
16243W        W33090  13.759   2.213   2.790  0.2577 -0.1576 -0.1712
16244W        W33091   7.156   5.226   3.135 -0.2410 -0.0319  0.1328
16245W        W33092   7.795  16.972  10.904 -0.3153 -0.5827 -0.0855
16246W        W33093   2.738   0.301   4.562  0.1140 -0.1797  0.3042
16247W        W33094   6.518   0.192  12.626 -0.2976  0.3528 -0.0806
16248W        W33095   0.218   3.393   3.649 -0.3713 -0.3254  0.0264
16249W        W33096  15.052   4.844  14.528  0.1691 -0.0383  0.0179
16250W        W33097  16.475   2.247   2.591 -0.1737 -0.0598  0.2703
16251W        W33098  14.087   8.698   5.251  0.1264 -0.4782  0.0124
16252W        W33099   8.859   6.258  14.641 -0.0273  0.0186  0.2426
16253W        W33100   8.427  15.882  13.613  0.1460 -0.1133 -0.1326
16254W        W33101   8.319  17.687   1.638  0.0690  0.1057 -0.0910
16255W        W33102   4.552   3.136  12.768 -0.0897  0.1037 -0.0550
16256W        W33103   8.190  11.733  12.038 -0.3047  0.0833  0.1331
16257W        W33104   7.153   8.477  12.294 -0.0154 -0.4670  0.0879
16258W        W33105   4.576   5.986   4.647 -0.1660 -0.3421  0.0114
16259W        W33106   7.106  16.749   2.263  0.0924  0.0163 -0.2830
16260W        W33107  11.200  15.190  12.517 -0.1639  0.0070 -0.0056
16261W        W33108  17.111  16.001   4.260 -0.1596 -0.1949  0.2492
16262W        W33109  16.375  17.764   5.524 -0.1845 -0.0221 -0.2816
16263W        W33110  10.405   7.085   0.621 -0.2129 -0.0028 -0.1774
16264W        W33111   0.654  17.940  11.859  0.0223  0.2488 -0.0808
16265W        W33112  17.476   3.183   0.506  0.1430  0.2362  0.1140
16266W        W33113  10.981   2.206   3.804  0.0891  0.2316 -0.0485
16267W        W33114  11.812  14.398  12.560 -0.0499 -0.0717 -0.2278
16268W        W33115   0.538  13.980   1.081 -0.0899 -0.3197 -0.0253
16269W        W33116   0.698  10.866  14.406 -0.0221 -0.0627 -0.3369
16270W        W33117  16.144  11.126   1.820 -0.1226 -0.1698  0.2030
16271W        W33118   8.145   7.892   2.017 -0.0267 -0.1963 -0.0042
16272W        W33119  14.368   5.441  11.584  0.0154 -0.1935  0.0553
16273W        W33120   0.398  15.951   5.517  0.1744 -0.0500 -0.1094
16274W        W33121   5.909  14.175   2.500  0.1294 -0.2858 -0.0919
16275W        W33122   6.825   1.458   0.485 -0.0976  0.0896  0.1414
16276W        W33123   1.881  14.092   2.122  0.1296 -0.1020  0.1126
16277W        W33124   3.237   6.388   4.261  0.2094 -0.1400 -0.0573
16278W        W33125   9.115   1.810  11.294 -0.0691 -0.1109  0.0715
16279W        W33126   7.542   6.257  10.859 -0.1177 -0.0100  0.1999
16280W        W33127   5.666   5.967  11.834 -0.0629  0.1344  0.2125
16281W        W33128   5.922   7.083   4.367  0.0821  0.1023  0.1946
16282W        W33129   9.549  16.341   3.967 -0.3431  0.2266  0.0274
16283W        W33130  11.620  12.002  14.468  0.1218 -0.0322  0.4937
16284W        W33131  10.444  12.684   1.436 -0.2071  0.0467  0.0500
16285W        W33132   0.170  15.635   5.125 -0.3826  0.2276 -0.1206
16286W        W33133   7.667  18.488  13.588 -0.2794  0.0908  0.0198
16287W        W33134   6.082  14.797   4.166  0.1553 -0.1424 -0.2776
16288W        W33135   4.424   7.953   4.985  0.2873 -0.0802  0.2097
16289W        W33136   2.135  10.419  11.869  0.2759 -0.1912 -0.1800
16290W        W33137   9.708   6.100  15.914 -0.0106  0.0469  0.2048
16291W        W33138   8.587  15.622  12.138 -0.0927 -0.0350  0.1373
16292W        W33139  14.973   3.556  14.421  0.1106  0.0543  0.1868
16293W        W33140  13.065   1.290   0.779  0.1674 -0.1306 -0.4076
16294W        W33141  13.651   2.663  15.465  0.1667  0.2580 -0.0941
16295W        W33142  10.147  14.610  15.472 -0.0089  0.3173 -0.0802
16296W        W33143  11.991   5.764   4.290 -0.1400  0.1271  0.1614
16297W        W33144   5.826  10.473   0.429  0.1356  0.3379 -0.1484
16298W        W33145   9.324  16.549  12.955  0.0548  0.3883 -0.1019
16299W        W33146   8.286   3.270   2.596 -0.0552  0.1296  0.1987
16300W        W33147  11.451  12.135  12.113  0.2047 -0.0335  0.3933
16301W        W33148   0.844  10.900  15.257 -0.1358  0.1064 -0.0034
16302W        W33149   8.970  17.097   5.332  0.1712  0.1805  0.0075
16303W        W33150  15.155   7.212  12.589 -0.0029  0.2867 -0.0792
16304W        W33151  12.018  16.162  14.222 -0.0312  0.0198 -0.1916
16305W        W33152  14.037  15.842   0.169  0.1545  0.0178  0.0448
16306W        W33153  15.560  17.105  12.818  0.0155 -0.2475 -0.0368
16307W        W33154  15.397  15.298   1.023  0.1941 -0.0128 -0.1042
16308W        W33155   3.344  13.672   3.111  0.0596 -0.0558 -0.2247
16309W        W33156   2.292   4.102   1.870  0.0323  0.0375  0.0450
16310W        W33157  13.433  11.360   4.248 -0.0548  0.2118  0.0612
16311W        W33158   3.166  14.038   4.968 -0.1688  0.2493  0.1777
16312W        W33159   7.955   1.778  13.168  0.3072 -0.0491 -0.1923
16313W        W33160  13.712   0.714   1.097  0.0646 -0.0958 -0.1060
16314W        W33161   6.524   9.437   0.777  0.1474  0.1204 -0.0133
16315W        W33162   9.378  15.862   2.690 -0.0504 -0.2240 -0.2335
16316W        W33163   2.970   2.848   5.118  0.0742  0.3680 -0.1472
16317W        W33164  11.452   4.896   1.538  0.1412  0.2054  0.1227
16318W        W33165   2.206  10.577   2.756 -0.1789 -0.1335  0.3134
16319W        W33166   6.980  12.659   1.966  0.2086  0.1298 -0.0302
16320W        W33167  14.655  13.281  15.526  0.0004  0.3021 -0.0371
16321W        W33168   2.425   4.670   0.991 -0.1076 -0.1714  0.0934
16322W        W33169   0.274  17.231  13.146 -0.2971 -0.2794  0.1348
16323W        W33170   5.857   5.754  13.979  0.0554  0.2117  0.1481
16324W        W33171   8.487   0.806  15.736 -0.0697  0.0707  0.3949
16325W        W33172  15.134   4.195   2.930  0.1099  0.0485 -0.2010
16326W        W33173   5.687   0.375   2.022  0.0142  0.1583  0.2329
16327W        W33174   3.534  11.119   4.336  0.0620 -0.1843  0.3427
16328W        W33175  10.912   4.350  13.431  0.1885  0.0115  0.1245
16329W        W33176   8.936   2.366   1.692 -0.2008 -0.1943  0.5121
16330W        W33177   0.315   5.242  11.605  0.0200  0.0829  0.0359
16331W        W33178   7.434  13.836  12.448  0.4027  0.0539  0.1185
16332W        W33179   4.891   2.242  13.179 -0.2894  0.0310  0.2824
16333W        W33180  10.637   2.716   4.542 -0.2862  0.0940 -0.1012
16334W        W33181   7.435   8.623  11.871  0.0798  0.1274 -0.1289
16335W        W33182  13.095  14.758  14.382 -0.2492  0.0521 -0.0632
16336W        W33183  15.946   5.764   1.497  0.0016 -0.2362  0.0964
16337W        W33184  17.964   7.020   3.578  0.2942 -0.1310 -0.2027
16338W        W33185  15.131  12.177   1.822 -0.0555 -0.0326 -0.2874
16339W        W33186  11.731  11.840  12.445 -0.0266 -0.2106 -0.2808
16340W        W33187  17.083   9.727   4.695  0.0539  0.3548  0.3907
16341W        W33188  14.199  17.955   2.370 -0.0889 -0.0448 -0.2005
16342W        W33189   1.620  14.412   3.682 -0.2424 -0.0215 -0.1307
16343W        W33190  17.378   2.506   1.587 -0.0504  0.1404  0.1147
16344W        W33191   3.512  12.613   2.299 -0.1576 -0.2619  0.0341
16345W        W33192  12.108  16.445   5.614 -0.5193 -0.0762 -0.1511
16346W        W33193   2.284   3.039   0.505 -0.2061  0.3009 -0.2658
16347W        W33194  16.135   2.650   2.639  0.0517  0.1723 -0.2182
16348W        W33195  17.437   4.192  14.055 -0.0601 -0.1290 -0.0868
16349W        W33196   4.402  16.244  14.870  0.1240 -0.0239  0.2885
16350W        W33197  14.153   1.301   1.533  0.1613  0.0867 -0.0339
16351W        W33198   8.003   8.297  14.245 -0.0504 -0.0054 -0.2454
16352W        W33199   2.424   6.050   4.100 -0.2323  0.0251  0.0964
16353W        W33200   2.618   2.749  13.356  0.2823 -0.1331  0.1898
16354W        W33201   1.407   5.362   3.786 -0.1531 -0.0002  0.1621
16355W        W33202   1.836   5.111  11.028  0.0973 -0.0861 -0.3409
16356W        W33203   0.729  12.504   0.366  0.1024 -0.0865  0.2095
16357W        W33204  13.182   0.857   4.436  0.0523  0.0146 -0.1213
16358W        W33205   6.064  10.620  12.857 -0.1017  0.1076 -0.1929
16359W        W33206  10.004  13.328  14.594 -0.1824 -0.1168 -0.3287
16360W        W33207   1.924   7.563   1.350  0.1270  0.3693 -0.3018
16361W        W33208   7.855  15.581   3.346  0.2898 -0.0333  0.1286
16362W        W33209   9.456  10.500  11.412  0.1698  0.1975  0.2818
16363W        W33210  16.159  10.652   2.007  0.2775  0.1570  0.1745
16364W        W33211   6.180  17.559  14.186  0.1188  0.1346  0.0627
16365W        W33212   4.740  11.477  15.071  0.0952  0.1999 -0.0405
16366W        W33213   9.544   6.919  13.344  0.2725 -0.1710  0.0837
16367W        W33214   9.782  11.202   3.628  0.0980  0.1046 -0.1683
16368W        W33215   6.355   6.726   0.034 -0.2829 -0.0473 -0.2203
16369W        W33216  14.429   8.172  14.565 -0.3296 -0.0386 -0.0093
16370W        W33217   3.738  14.367  12.114 -0.0982 -0.2184  0.3275
16371W        W33218  13.287   5.456  11.112 -0.1476 -0.1008  0.0489
16372W        W33219  11.744   7.113   2.055 -0.1894  0.1145  0.0133
16373W        W33220  14.707   9.663  14.646 -0.1820  0.0028  0.0986
16374W        W33221  17.684  13.702   5.509 -0.1201 -0.0950  0.0257
16375W        W33222   8.354   9.148  13.472 -0.0102  0.2057 -0.1222
16376W        W33223  12.528   3.249  14.186  0.3122  0.1684  0.0280
16377W        W33224   9.431  17.627  14.412  0.1173 -0.0894 -0.2878
16378W        W33225  12.279   8.023  14.257 -0.0062 -0.0441  0.3338
16379W        W33226  12.296   0.838   1.885 -0.1399  0.2545 -0.2196
16380W        W33227  17.311   1.130  15.372  0.4171 -0.3497 -0.1082
16381W        W33228   6.118  15.267  14.697 -0.1381 -0.3104  0.0140
16382W        W33229  13.872   1.390  14.247  0.1081 -0.0651  0.0219
16383W        W33230   3.312  11.880  14.909 -0.1438  0.2909 -0.0560
16384W        W33231   4.336   8.671   0.793  0.0150  0.0125  0.1166
16385W        W33232   2.687   9.879  14.595  0.0867 -0.0180  0.0019
16386W        W33233   1.432   4.878  10.735 -0.2135 -0.0086  0.1092
16387W        W33234  16.749   6.646   3.450 -0.2729  0.2011  0.3488
16388W        W33235   8.509   0.032  11.012 -0.3115  0.3465  0.0021
16389W        W33236   4.309  10.345   5.401  0.2750  0.0114 -0.0463
16390W        W33237   0.910  11.973  14.740  0.0652  0.2274  0.0368
16391W        W33238  13.837  14.035   1.698 -0.0884  0.0609 -0.1248
16392W        W33239   3.831   2.945  12.505  0.0064  0.0117 -0.0343
16393W        W33240  16.684  13.016   2.388  0.0162 -0.1422 -0.4197
16394W        W33241  11.937   5.681  15.750 -0.1033  0.0310  0.1043
16395W        W33242   8.703   7.366  12.290 -0.2577 -0.2516  0.0131
16396W        W33243   2.367   7.741  12.622 -0.5994  0.1348 -0.1179
16397W        W33244   6.109   8.130  12.804  0.1962 -0.1929 -0.1464
16398W        W33245   9.291   6.778   1.578 -0.3485 -0.3150  0.1215
16399W        W33246  10.296  14.389  15.057  0.2864  0.1600  0.0709
16400W        W33247  15.103  15.710  12.932  0.2805  0.1796 -0.3212
16401W        W33248   9.040  11.826  11.717  0.0979  0.0023  0.1194
16402W        W33249   3.896   8.227  14.499  0.1585 -0.0175  0.1048
16403W        W33250  15.485  11.023   3.003  0.0623 -0.1858 -0.3221
16404W        W33251   4.420  15.198  12.133 -0.0318  0.1353 -0.4680
16405W        W33252  17.554  16.880  13.758 -0.0872  0.1138 -0.0506
16406W        W33253   2.920  11.101  15.892 -0.1088  0.0730  0.3027
16407W        W33254   5.155  11.171  15.247  0.1809  0.6274  0.1827
16408W        W33255  17.037  17.792  14.574  0.1476  0.0834  0.0741
16409W        W33256  11.114   8.312   3.137  0.0993 -0.3931 -0.1154
16410W        W33257  11.289   0.598   9.915 -0.0842 -0.1558  0.0452
16411W        W33258   1.359   7.494  11.775  0.1452 -0.0264  0.0769
16412W        W33259  15.624   0.519  12.078  0.2363 -0.0520  0.1117
16413W        W33260   8.652  10.455   1.026 -0.2363  0.1096 -0.3330
16414W        W33261  11.383   6.662   1.635  0.0266 -0.0026 -0.2284
16415W        W33262  18.510  10.446   4.100 -0.1799  0.0762  0.3020
16416W        W33263   5.100   1.344   5.726  0.0243 -0.0688 -0.1795
16417W        W33264  17.055   8.712   1.179  0.0708  0.1574 -0.1547
16418W        W33265   5.052  10.017   3.588 -0.1973 -0.0067  0.1203
16419W        W33266   1.243   2.015   4.149  0.0705 -0.3382 -0.0519
16420W        W33267   6.176  13.615   4.731  0.1613 -0.1951 -0.2092
16421W        W33268   3.907  16.425  15.940 -0.4181  0.1402 -0.1925
16422W        W33269   3.810  14.813   4.034 -0.0028  0.3408 -0.3261
16423W        W33270  13.651  13.787  14.012  0.0312 -0.0614 -0.0108
16424W        W33271   7.719  17.511  13.192  0.0763  0.1117  0.2886
16425W        W33272   3.520   3.970   0.900  0.1194 -0.1238  0.0849
16426W        W33273  13.989   7.326   1.753  0.1411  0.2259 -0.0163
16427W        W33274  12.366   9.431   2.097 -0.2024 -0.0527 -0.2239
16428W        W33275   2.160  12.051   0.870 -0.0732 -0.2191  0.1127
16429W        W33276   9.769   0.412  14.878  0.1052 -0.1415 -0.2355
16430W        W33277  14.810   3.363   1.584 -0.1868  0.3908 -0.0719
16431W        W33278   6.755   6.568   4.613  0.0616 -0.2025 -0.1074
16432W        W33279   8.744   0.399   2.556 -0.0353 -0.0843 -0.0599
16433W        W33280  14.295  18.081  12.854  0.0257 -0.0522 -0.2563
16434W        W33281  13.155   6.519  10.848 -0.0423 -0.0066 -0.3831
16435W        W33282   4.577  10.895   5.208  0.0315  0.0236 -0.0054
16436W        W33283  16.934  15.337   2.387 -0.0137  0.1269  0.0488
16437W        W33284   7.961   3.747   3.469  0.0880  0.1502 -0.4668
16438W        W33285   1.203   1.971  13.647  0.0855  0.0753  0.0531
16439W        W33286   5.567  16.633   0.394  0.0565  0.0783 -0.0641
16440W        W33287   6.375   0.464  13.421 -0.0291  0.1864  0.1234
16441W        W33288   3.133  14.961  14.536 -0.0899  0.0508 -0.1907
16442W        W33289   9.879  10.600  12.557 -0.2393 -0.3769  0.1353
16443W        W33290   7.166  15.410  10.112  0.2196 -0.3741 -0.0922
16444W        W33291   9.118   5.515   3.633  0.0055 -0.0442  0.1662
16445W        W33292   0.837  15.804  12.106 -0.3702  0.0262 -0.2439
16446W        W33293  14.786   3.265   1.107 -0.2058  0.1289  0.0388
16447W        W33294  11.554  12.909   0.354 -0.0420 -0.3018 -0.0253
16448W        W33295  15.092   5.939   0.401  0.1188 -0.1242 -0.1715
16449W        W33296   2.779   0.097   2.812  0.0587 -0.1055 -0.4122
16450W        W33297  15.094   4.168  13.247 -0.1129 -0.1372  0.1322
16451W        W33298  13.355   4.573  15.361 -0.0872 -0.1038 -0.1068
16452W        W33299  14.657   0.766  15.800  0.1167  0.0764  0.1497
16453W        W33300  13.171  12.426   4.028 -0.0707 -0.0638  0.1319
16454W        W33301   0.599   6.261   4.046  0.0123 -0.5452  0.0633
16455W        W33302   3.234   4.941   4.268  0.0176  0.0651 -0.1037
16456W        W33303  15.585   7.400  13.947  0.1439 -0.2103  0.3320
16457W        W33304  10.583   6.769   0.295 -0.1704  0.2602  0.1088
16458W        W33305   9.891  12.218  14.680 -0.0554  0.0372  0.4869
16459W        W33306   6.445  13.683  11.494 -0.2051 -0.2594 -0.0422
16460W        W33307   8.829  15.713   5.034 -0.0247  0.4216 -0.0178
16461W        W33308   7.306   9.811   1.203 -0.0967 -0.1155 -0.0182
16462W        W33309   6.881   7.862   1.631  0.0281  0.0917  0.1970
16463W        W33310  11.182  18.096   2.514  0.0426  0.3023 -0.1045
16464W        W33311   3.252   1.472   2.698 -0.0208 -0.0200  0.0004
16465W        W33312  18.257  16.425  12.210  0.1191 -0.0041  0.2567
16466W        W33313   4.016  10.801  14.451  0.4111 -0.1160  0.0566
16467W        W33314   1.251  12.538   0.005 -0.1511  0.0111  0.0859
16468W        W33315   4.068   9.916   5.394 -0.1096  0.0417  0.0211
16469W        W33316  13.766  11.765  11.420  0.0354  0.1553  0.0006
16470W        W33317   3.390  16.990   0.435  0.1781 -0.4484  0.0507
16471W        W33318   7.638  15.052   5.350 -0.2157  0.3858  0.2152
16472W        W33319  13.988   3.350   5.155  0.1486  0.1321 -0.0010
16473W        W33320   4.654   8.400  14.953  0.1384  0.1881  0.0282
16474W        W33321  11.953  17.828   1.405 -0.0051  0.0443  0.1615
16475W        W33322  10.975   6.555   3.055 -0.1068  0.0530  0.0214
16476W        W33323   7.283  17.300   2.423  0.1398 -0.0826  0.2042
16477W        W33324   0.871  16.077   3.955  0.1861 -0.0567 -0.1032
16478W        W33325   4.796   3.380  15.647  0.0368 -0.1383 -0.2966
16479W        W33326   7.467  16.110  11.449  0.0497 -0.1436 -0.1956
16480W        W33327   5.315   1.720   0.211  0.0924  0.5192 -0.2685
16481W        W33328  11.755  11.440  13.735 -0.2280 -0.1130  0.0383
16482W        W33329   2.547   7.750  13.630  0.2621 -0.2546  0.2838
16483W        W33330   2.328  12.811   2.188  0.0607  0.3401 -0.0309
16484W        W33331  14.312  12.808  15.503  0.3383 -0.1004  0.2895
16485W        W33332   9.698   4.371  10.740  0.1136 -0.1765 -0.2575
16486W        W33333  14.874   3.036   3.927  0.1512 -0.0939 -0.1341
16487W        W33334   3.137  10.950   2.529 -0.1999  0.0155  0.0720
16488W        W33335  15.920  15.270  12.114  0.0583 -0.1362  0.0189
16489W        W33336   6.023   4.240   2.879 -0.1560 -0.3145  0.0289
16490W        W33337  17.044   2.139   1.928  0.0584  0.0422  0.0986
16491W        W33338   4.786  14.745  15.752  0.1754 -0.1005 -0.1857
16492W        W33339   9.680   4.902   4.008  0.1618  0.2449  0.0689
16493W        W33340  13.529   1.671  12.189  0.2164 -0.0339 -0.0693
16494W        W33341   4.839   3.861  11.276  0.1263 -0.0431 -0.0138
16495W        W33342   3.422   0.201   6.039 -0.2089  0.0428 -0.0430
16496W        W33343  13.808   6.517   5.054  0.0295 -0.1066 -0.0238
16497W        W33344   2.683  14.401   1.027 -0.1992  0.3231  0.0735
16498W        W33345  18.005   0.831  15.493 -0.1357 -0.1196  0.0257
16499W        W33346  10.339   1.180   2.828  0.0987  0.2703 -0.2058
16500W        W33347  16.647  11.927   0.259  0.1454  0.0253 -0.0106
16501W        W33348  13.480  16.120  12.902  0.2032 -0.0487 -0.1502
16502W        W33349  18.220   1.209  14.451  0.0945  0.0378  0.0294
16503W        W33350  16.330  16.190   1.436  0.3439 -0.2442 -0.1595
16504W        W33351   1.817   7.902  14.056 -0.3409  0.1441 -0.0876
16505W        W33352   5.499   0.831   1.332 -0.0064  0.1641  0.0755
16506W        W33353   0.604  10.829  13.563  0.1405 -0.0848  0.1667
16507W        W33354   8.387  12.167  14.780  0.2235  0.2937  0.2297
16508W        W33355   7.400  16.663  14.076  0.0256  0.3074 -0.1268
16509W        W33356  16.660  13.713   1.231 -0.1223 -0.0104 -0.0305
16510W        W33357  10.540   5.430  11.505  0.2366  0.2075  0.1263
16511W        W33358   5.779   7.226  12.239  0.1209 -0.0312  0.2453
16512W        W33359   7.680   0.726  13.943  0.2203 -0.1926  0.1525
16513W        W33360   8.049   9.234  10.390  0.3261 -0.0410  0.0256
16514W        W33361   6.994  17.861   4.686  0.0114  0.3339  0.1320
16515W        W33362   8.222  18.240   2.876  0.1948 -0.2843  0.2442
16516W        W33363  11.640   6.986   4.221  0.0565  0.0132  0.3877
16517W        W33364  17.725   7.200  12.829 -0.1203 -0.0388  0.0853
16518W        W33365  18.121  14.155   2.828 -0.0117  0.0209 -0.0735
16519W        W33366   4.334  10.348   1.827  0.1842  0.2344 -0.0299
16520W        W33367  14.341   0.779   1.288 -0.2154  0.0472 -0.0363
16521W        W33368  12.282   8.151   4.417  0.3827  0.0704  0.0803
16522W        W33369   5.704   2.028  14.365  0.1608  0.0196  0.0630
16523W        W33370   6.102  11.528  12.666 -0.3669 -0.0731  0.2428
16524W        W33371  14.613  15.746   3.492  0.0306 -0.0685  0.2871
16525W        W33372   1.345  11.837   1.315  0.2347 -0.1122 -0.0759
16526W        W33373  16.198   9.899   0.415  0.0702  0.4106  0.0780
16527W        W33374  11.091  11.709   0.518  0.0072 -0.0403  0.0492
16528W        W33375   4.252   8.443   5.080  0.1157 -0.2532 -0.0324
16529W        W33376   9.010   4.038   5.750 -0.1605 -0.1779  0.1088
16530W        W33377   6.000  16.209   1.715 -0.1164  0.0587  0.0907
16531W        W33378   8.335  16.301  14.930  0.0727 -0.1242 -0.1292
16532W        W33379   1.698  12.275   2.555  0.0166  0.0475  0.0842
16533W        W33380  12.718  18.212  12.090  0.0564 -0.1464 -0.0306
16534W        W33381   3.354  14.727   3.896 -0.0179 -0.1434  0.0367
16535W        W33382  15.054   4.500   0.578  0.1671 -0.0888 -0.2412
16536W        W33383  16.473   7.519   1.526 -0.1762  0.2316  0.0192
16537W        W33384  11.193  17.933   2.046 -0.3660 -0.0329  0.1839
16538W        W33385  10.411   8.075   4.395  0.1966  0.1593 -0.1948
16539W        W33386   8.788   9.720  11.907 -0.2104 -0.1900  0.1436
16540W        W33387  17.906   6.083  15.435 -0.0511  0.1185 -0.0905
16541W        W33388  11.239   3.977  15.225  0.2220  0.1412  0.0233
16542W        W33389   4.181   7.706   5.400  0.1970  0.0614 -0.0178
16543W        W33390   9.555   9.876   4.849 -0.2540  0.3196 -0.2283
16544W        W33391   9.121   8.729   3.292  0.1224  0.1144 -0.1276
16545W        W33392   1.898  15.371  13.379 -0.0063 -0.0962  0.0886
16546W        W33393  17.552   1.249   4.219 -0.2051  0.3329 -0.1885
16547W        W33394   2.227   0.804  11.569  0.0566  0.0655 -0.0468
16548W        W33395  16.754  18.280  13.856 -0.1497 -0.0175 -0.2088
16549W        W33396  11.464   2.113   0.886  0.0394 -0.1252  0.3436
16550W        W33397  10.124   1.065  13.749  0.1606 -0.1166 -0.3331
16551W        W33398   6.410   6.255   4.424 -0.0428 -0.2130 -0.2144
16552W        W33399   1.911   2.726  13.986 -0.0138  0.1309  0.0898
16553W        W33400   2.431   3.114   3.469 -0.0709  0.0435 -0.1019
16554W        W33401   6.394   0.335   2.642 -0.2311  0.2079 -0.0042
16555W        W33402  13.151  10.946   0.364 -0.2348 -0.1721 -0.1037
16556W        W33403  11.325   6.057  11.305  0.2119 -0.0508  0.3973
16557W        W33404  15.421   0.786  13.490 -0.0464 -0.0228  0.0291
16558W        W33405   9.702   8.865   4.829  0.0881  0.0181 -0.1829
16559W        W33406  10.927   7.428  13.472  0.2317 -0.0292 -0.1682
16560W        W33407  11.646  10.372  12.435 -0.2103  0.1538  0.1207
16561W        W33408   0.317   8.743  15.721  0.1637 -0.0822  0.0483
16562W        W33409   1.657   6.497  15.188  0.2683 -0.0671 -0.0093
16563W        W33410   6.851  12.362  12.432  0.2266  0.0119 -0.0046
16564W        W33411   2.102  14.471  12.573 -0.0739  0.0344  0.0501
16565W        W33412   4.198  11.094   2.500  0.0288  0.0506 -0.1677
16566W        W33413   9.877  17.372  13.090 -0.1510  0.1564 -0.0211
16567W        W33414  12.156  10.079  11.621  0.1304  0.1080 -0.1677
16568W        W33415   5.602  13.610   1.532 -0.1547 -0.0054  0.2605
16569W        W33416  10.945  10.817  14.764 -0.1036 -0.0976  0.0655
16570W        W33417   7.517   8.718   1.728  0.1824 -0.2527 -0.2145
16571W        W33418   4.654  10.534   1.117  0.1656  0.1277  0.1330
16572W        W33419  16.604  14.757   4.073 -0.1822  0.0645 -0.0300
16573W        W33420   8.519   9.466  11.548 -0.0583 -0.2203  0.1143
16574W        W33421  11.230  14.434  12.268  0.1263 -0.1356  0.2782
16575W        W33422   5.506   0.359  13.621 -0.0910  0.0289  0.0916
16576W        W33423   0.476  10.973  14.878 -0.1951  0.2099 -0.1063
16577W        W33424   4.289   1.028   4.307 -0.1329 -0.1485 -0.1031
16578W        W33425  11.174  11.670  11.449  0.3611 -0.0456 -0.0269
16579W        W33426  12.269  12.613  13.868  0.0791  0.1158 -0.1480
16580W        W33427   4.816  11.323   4.967 -0.2974  0.0499 -0.1197
16581W        W33428   2.785   9.251   0.171  0.3401 -0.0961 -0.0320
16582W        W33429  15.999  11.830  11.737 -0.0308  0.0638  0.1858
16583W        W33430  12.596   1.783  15.166 -0.1616  0.0572  0.4322
16584W        W33431   5.086   2.902  15.472  0.0009 -0.0275  0.0192
16585W        W33432   3.106   9.006  12.098  0.0497  0.4579  0.0514
16586W        W33433  15.114  18.317   4.311  0.1030  0.2594 -0.4404
16587W        W33434  10.015   5.613   5.149  0.0074 -0.1661  0.0282
16588W        W33435   1.769  17.703  12.606 -0.4364 -0.0466  0.1230
16589W        W33436  10.437   8.017  13.718  0.0114 -0.2230  0.1007
16590W        W33437  11.575   6.874  13.426  0.2094  0.0886  0.1177
16591W        W33438  15.015  10.612   3.595 -0.1259  0.0226  0.2494
16592W        W33439   6.912   3.554  13.990  0.0509  0.0542  0.3808
16593W        W33440   3.019   4.108  13.243  0.1274  0.1876  0.0197
16594W        W33441  14.548  10.714  11.904  0.0798  0.2158  0.0341
16595W        W33442   5.910  14.862   0.928 -0.5198 -0.1488 -0.1070
16596W        W33443   9.082  12.470   5.612  0.0928 -0.0963  0.1691
16597W        W33444   5.882  14.927   5.105 -0.6029  0.2388 -0.0257
16598W        W33445   3.015  11.873   0.444  0.1408  0.0863 -0.1808
16599W        W33446   2.598  16.370   2.202 -0.0174  0.1212 -0.2293
16600W        W33447  13.329  10.270   5.033 -0.2521  0.2263 -0.0080
16601W        W33448  11.161   5.958   4.281 -0.0493 -0.1485  0.1665
16602W        W33449  10.530  17.375   3.453 -0.1777 -0.1036 -0.0358
16603W        W33450   5.346   7.024   5.114 -0.2906 -0.0169 -0.0221
16604W        W33451  10.461   7.129   4.328  0.1861 -0.2024 -0.3421
16605W        W33452  12.529   3.051   3.940 -0.2473 -0.2833  0.1407
16606W        W33453   3.764  14.527   2.012 -0.0835 -0.0506  0.1579
16607W        W33454   8.628  18.245   5.001 -0.1438 -0.1814  0.2494
16608W        W33455  15.439   0.579   0.478  0.2136  0.0145  0.3374
16609W        W33456  17.200   3.789   0.763  0.1768  0.3080  0.0349
16610W        W33457   5.073  11.401  14.711 -0.2173  0.1673 -0.1970
16611W        W33458   7.751   8.577   2.169 -0.0862 -0.0271 -0.0926
16612W        W33459  13.487  13.767   4.615  0.2966 -0.1904  0.0089
16613W        W33460  18.439   9.242   4.950 -0.1214 -0.0102  0.0853
16614W        W33461  15.704  11.007  15.728  0.4411  0.1854 -0.1367
16615W        W33462   5.778   4.766  14.629 -0.0217  0.1113 -0.1132
16616W        W33463   1.832   8.560  14.836 -0.1201 -0.2291 -0.1759
16617W        W33464   0.180   3.146   2.831  0.1149 -0.2338  0.0730
16618W        W33465  10.058  13.606  12.926  0.0428 -0.1496 -0.1375
16619W        W33466  15.024  11.102  13.861 -0.2671 -0.0312  0.0326
16620W        W33467  15.614   0.319   2.617 -0.0487 -0.0547  0.1360
16621W        W33468  15.721  15.711  15.233  0.1412 -0.0950  0.1278
16622W        W33469  10.166  18.279   5.752  0.2015  0.1376 -0.2279
16623W        W33470   9.054   6.594  13.327  0.1114 -0.1440  0.0887
16624W        W33471  16.272  16.215   3.901 -0.0914  0.1021 -0.0449
16625W        W33472  18.386   9.186   2.356  0.0880 -0.2513  0.0387
16626W        W33473  17.580  13.900   2.216 -0.2006  0.0247  0.0042
16627W        W33474   7.961   7.431   2.143  0.0004  0.0080  0.1674
16628W        W33475  15.479   5.288   2.274 -0.1618  0.0816 -0.1563
16629W        W33476  14.414   9.111  11.675 -0.1104 -0.1366  0.1415
16630W        W33477   8.232  16.287   5.783 -0.0982  0.0636  0.0302
16631W        W33478  18.345   8.459   1.080 -0.0254 -0.0805 -0.0992
16632W        W33479  17.357  11.353   3.038  0.0844 -0.1047  0.0322
16633W        W33480  14.146   1.604   3.390  0.1995 -0.0747  0.2069
16634W        W33481   4.492   9.110   0.662  0.2943  0.0229  0.1223
16635W        W33482  17.900  16.705  11.958 -0.2291 -0.0820  0.2511
16636W        W33483  12.605   0.915  13.819 -0.2028  0.0477  0.1270
16637W        W33484   3.053   2.083  13.914 -0.0809 -0.1839 -0.0219
16638W        W33485   7.829   1.259  10.533 -0.2502 -0.0043 -0.0371
16639W        W33486  11.380  14.916  14.300 -0.0232 -0.1475 -0.0671
16640W        W33487   1.110   5.783   5.104 -0.1821 -0.3438  0.1438
16641W        W33488  11.068   2.245  15.152 -0.3396 -0.2330 -0.1440
16642W        W33489  11.074   9.155   5.818 -0.0999 -0.4296 -0.1753
16643W        W33490   9.365   5.797  12.205 -0.0234 -0.1914 -0.0140
16644W        W33491   5.837  14.378   4.838 -0.0535  0.0315 -0.3657
16645W        W33492   5.315  14.770  14.384  0.0367 -0.2333  0.2175
16646W        W33493   5.165  10.713   5.543  0.1319  0.1305  0.1113
16647W        W33494  11.706  16.150   1.737 -0.2293 -0.0819 -0.0253
16648W        W33495   8.493  16.883  13.021 -0.1970  0.0242 -0.1314
16649W        W33496  12.176   9.644  11.329 -0.0326 -0.4235 -0.0427
16650W        W33497   0.397   1.726  14.248  0.1748 -0.3740 -0.0811
16651W        W33498   9.045  10.521   3.350  0.0187  0.3709  0.0091
16652W        W33499   9.813   0.640   1.266 -0.2327  0.3680  0.0579
16653W        W33500   6.893   8.963  15.667  0.0665 -0.2324  0.1992
16654W        W33501  10.875   8.296   2.240  0.1559  0.3877 -0.0488
16655W        W33502  12.679  14.914   3.391  0.3479  0.0614  0.0299
16656W        W33503  18.042  14.250  11.072 -0.3988  0.0636 -0.0232
16657W        W33504   1.231  12.977   5.037  0.0494 -0.1143 -0.3073
16658W        W33505  12.327   3.990   3.784  0.0680 -0.2086  0.0001
16659W        W33506   4.528  15.077   1.448  0.4500  0.0076  0.2126
16660W        W33507   5.288   2.186   4.364 -0.3040  0.1397  0.0165
16661W        W33508   7.092   8.609   5.437  0.0426 -0.0546 -0.0348
16662W        W33509   5.992  16.087  10.027  0.2799 -0.0850  0.0392
16663W        W33510  13.671   5.227   9.425 -0.1358  0.1303  0.1372
16664W        W33511  12.462   9.471   5.298 -0.1838 -0.0971  0.2080
16665W        W33512  10.418   3.650  14.405 -0.2862 -0.0653 -0.1405
16666W        W33513   7.971   8.682  11.234 -0.2566 -0.0083 -0.1853
16667W        W33514  14.405  18.045   1.506 -0.0664  0.1750 -0.2520
16668W        W33515   8.028  12.746  15.811 -0.2890  0.2369  0.1619
16669W        W33516   3.182  13.881   4.065 -0.0868 -0.0560  0.0118
16670W        W33517   9.329  17.473  13.851 -0.0959 -0.0365  0.0162
16671W        W33518  11.420   1.877   3.182 -0.3596  0.0704  0.2350
16672W        W33519   5.918   5.080  13.228  0.0322  0.2688 -0.0324
16673W        W33520  17.542   8.795   3.921 -0.0577 -0.0228  0.1380
16674W        W33521   6.052  17.659   2.615 -0.1514 -0.1145 -0.1095
16675W        W33522   8.384   4.233   4.935  0.3285  0.0342  0.0538
16676W        W33523   9.758   2.404   0.096  0.0795 -0.1010  0.0721
16677W        W33524   0.516  15.413  11.947 -0.0754  0.2073 -0.1179
16678W        W33525  16.909   2.034   5.158 -0.2475  0.3576 -0.1762
16679W        W33526   2.921  14.599  13.300  0.2989 -0.1652  0.5166
16680W        W33527  13.782   0.767  13.429  0.1649 -0.2770 -0.0500
16681W        W33528   2.378  11.809  15.270 -0.1889  0.2787  0.0315
16682W        W33529   4.973   1.522   1.193 -0.0192 -0.5337  0.0099
16683W        W33530  15.310   5.953  15.453  0.0696  0.2906 -0.2896
16684W        W33531   6.635   2.898  12.713 -0.1564  0.1750 -0.0802
16685W        W33532  10.774   0.809   3.539  0.1516  0.0748 -0.2423
16686W        W33533  12.695   1.179  10.776 -0.2352  0.2087  0.2464
16687W        W33534   0.840   1.119   0.621 -0.0521  0.0132  0.0408
16688W        W33535  12.032   0.310  14.517  0.0985 -0.0343 -0.0262
16689W        W33536  14.192  17.553  12.717  0.0465  0.2057  0.2725
16690W        W33537  13.323   4.839  13.550  0.1890 -0.1443  0.0248
16691W        W33538  14.340   7.267  12.267  0.0946 -0.1376  0.0659
16692W        W33539   9.087  14.459  14.367  0.4715  0.2592  0.2362
16693W        W33540   7.009  10.995  11.100 -0.3137  0.0018 -0.1140
16694W        W33541   4.900   3.400   2.870 -0.0255 -0.0333 -0.0362
16695W        W33542   4.139  13.070  13.057  0.0289 -0.0713  0.1854
16696W        W33543  14.507   8.078  11.050 -0.1039 -0.0125  0.2361
16697W        W33544   7.433  10.068  10.641  0.1048 -0.0566 -0.1104
16698W        W33545   3.261  17.590   5.173 -0.2053  0.1765 -0.0318
16699W        W33546  15.207   5.705  11.754  0.1018 -0.1555 -0.2083
16700W        W33547  15.574   3.124   1.510 -0.1817  0.2389  0.1165
16701W        W33548  14.901  10.311   3.196 -0.2232 -0.0866 -0.0942
16702W        W33549  14.519   6.583  14.360 -0.2904 -0.4388  0.1353
16703W        W33550  14.219   4.985  10.784 -0.0158  0.2261 -0.0168
16704W        W33551   4.326  17.007  13.196  0.2785 -0.0126 -0.1141
16705W        W33552   0.485  13.014  12.392 -0.1657 -0.0831 -0.2298
16706W        W33553  18.219  11.172  13.622  0.2984 -0.0605 -0.0155
16707W        W33554   2.816  17.169  12.344  0.3242 -0.3286 -0.1128
16708W        W33555   0.487   3.753  13.861 -0.0136 -0.0082 -0.1838
16709W        W33556  13.489   5.751   0.854 -0.0339  0.5381  0.0595
16710W        W33557   2.794   6.845   4.453 -0.0686 -0.3155  0.1950
16711W        W33558   5.196   6.784   1.107  0.1887  0.1833  0.0486
16712W        W33559   3.804   1.205  11.462 -0.2290  0.0164 -0.0126
16713W        W33560  17.814   0.831   1.764  0.0282 -0.2947  0.0636
16714W        W33561  18.456   0.414   4.615 -0.2186  0.1240  0.2559
16715W        W33562   7.113  18.378   9.797 -0.0189  0.1551  0.0414
16716W        W33563   9.527   6.852   4.256  0.2604 -0.0575  0.0574
16717W        W33564   7.124  11.552   1.927 -0.0024  0.0352  0.2551
16718W        W33565   0.652  14.525   1.115 -0.2504  0.3913 -0.1631
16719W        W33566  18.350   4.532   0.516  0.0308 -0.0311 -0.1324
16720W        W33567  12.621  13.185   4.732 -0.2826  0.1453  0.0694
16721W        W33568   6.559   5.373  15.898  0.0674  0.6368 -0.0335
16722W        W33569   8.806   8.718  12.679  0.1829  0.0372 -0.0768
16723W        W33570  12.257   9.663   1.588  0.3343  0.0746  0.0329
16724W        W33571   4.361   0.516  11.206 -0.2232 -0.4555  0.0008
16725W        W33572   3.313  17.683   2.350 -0.3898 -0.1755  0.3583
16726W        W33573   1.228  15.849  14.188 -0.0573 -0.0980 -0.1628
16727W        W33574   3.004   7.484   1.462  0.1437  0.4079  0.1144
16728W        W33575   0.361  11.756   3.099  0.2689 -0.1302 -0.0527
16729W        W33576   8.575  11.425  11.153  0.0657  0.1511 -0.2574
16730W        W33577   8.781  10.527   0.545 -0.1693 -0.1746 -0.1606
16731W        W33578   9.395   5.671  15.822  0.3989  0.1053  0.0091
16732W        W33579  10.015  18.126   2.341 -0.0651  0.0332  0.2273
16733W        W33580  10.470  10.746   3.339  0.0792  0.0336 -0.1219
16734W        W33581   4.037  14.207   2.255  0.1057  0.1990 -0.0341
16735W        W33582   2.114  14.983   2.853 -0.2560 -0.0027 -0.0888
16736W        W33583  13.456   8.287  13.316  0.0499 -0.2075 -0.1087
16737W        W33584  17.549   7.368  15.303 -0.1778 -0.3552  0.0483
16738W        W33585   9.356   8.052  12.247 -0.2259  0.1443  0.1320
16739W        W33586   4.471   1.397   1.094  0.2245  0.4998  0.0178
16740W        W33587   9.579  14.078  13.863 -0.1320 -0.1654 -0.0131
16741W        W33588  11.739   0.949  14.514  0.2882 -0.0324 -0.2320
16742W        W33589   8.327  10.332  14.429 -0.1350  0.0437 -0.3675
16743W        W33590   5.063   8.215  11.292  0.1882  0.0132 -0.1295
16744W        W33591  12.660  10.455  15.198  0.2679  0.0497 -0.4595
16745W        W33592   3.442   1.026  12.297  0.4311  0.2002 -0.4893
16746W        W33593  10.987   9.572   5.461 -0.1378  0.1189  0.0877
16747W        W33594   2.004  18.158   5.391 -0.0970  0.0529 -0.1525
16748W        W33595   6.017  12.323   4.747 -0.0658 -0.2443 -0.0110
16749W        W33596  13.894  17.623   2.170 -0.1309 -0.1519  0.7487
16750W        W33597  17.566   1.788  14.096  0.3922  0.0519 -0.0225
16751W        W33598  17.804   9.024  12.960  0.0022 -0.0025 -0.0690
16752W        W33599  16.534   2.481   4.143 -0.2060  0.1289 -0.1684
16753W        W33600  18.102  14.908  14.879  0.1896  0.0996  0.0690
16754W        W33601   9.838  12.886   5.150  0.0782  0.2051 -0.0696
16755W        W33602   8.700   5.228   0.480 -0.0431  0.1492 -0.0266
16756W        W33603  15.978  17.463   3.866  0.0264 -0.0675 -0.0853
16757W        W33604  10.538   6.631  14.975  0.0642 -0.0098  0.3913
16758W        W33605   5.122   0.268  11.430  0.1930  0.3870  0.1204
16759W        W33606   2.752   1.703   3.273 -0.1507  0.1084 -0.1717
16760W        W33607  14.813   5.030  12.777 -0.1236  0.2281 -0.0085
16761W        W33608  12.924   0.462  13.774 -0.1070  0.0562 -0.0459
16762W        W33609   8.199   2.802   1.261  0.2340 -0.0442 -0.2238
16763W        W33610   4.159   9.649   2.558  0.0911 -0.0369  0.3643
16764W        W33611   1.546   0.889  15.147 -0.1855 -0.0048  0.0711
16765W        W33612   0.472  14.900   3.360 -0.3586 -0.0345 -0.0582
16766W        W33613  11.531  18.375   3.148  0.1725 -0.2218 -0.0561
16767W        W33614   3.398  17.592  13.418 -0.1883  0.0337  0.0158
16768W        W33615   9.571  17.978  12.298  0.0483  0.0722  0.0869
16769W        W33616  15.029   5.592   4.879 -0.0121 -0.3265  0.3645
16770W        W33617   2.995  18.423  11.309  0.2105 -0.0561  0.1898
16771W        W33618  10.600  15.692   4.465  0.0339  0.0051  0.4152
16772W        W33619   0.763   0.026   3.067 -0.1434  0.0474 -0.2472
16773W        W33620  10.788   1.329   3.696 -0.1028 -0.0734 -0.1732
16774W        W33621  10.199   7.000   4.748  0.0607 -0.0045  0.0606
16775W        W33622   7.826   8.206   4.904 -0.0529  0.1605 -0.2853
16776W        W33623  10.286  16.722  15.709 -0.0280  0.3495  0.0229
16777W        W33624  17.842   3.335  15.854  0.4540 -0.1410 -0.3492
16778W        W33625  16.230  12.987   1.652 -0.0759 -0.0325  0.1778
16779W        W33626   8.660  10.717  11.810 -0.2811 -0.1450 -0.0088
16780W        W33627  12.879  13.891   0.539 -0.2140 -0.0120 -0.1186
16781W        W33628   0.014   5.455  13.875  0.0874  0.1535  0.2176
16782W        W33629   7.804  13.697  15.630 -0.3210 -0.0923  0.2177
16783W        W33630   5.258   0.950   2.261 -0.2674 -0.2596  0.0738
16784W        W33631  12.587   9.784   0.568  0.2960 -0.0303 -0.2518
16785W        W33632   9.767   4.058   1.865  0.0135  0.2623  0.0130
16786W        W33633   6.287  17.857  11.708  0.1434  0.3016 -0.0888
16787W        W33634   1.172   0.761  13.468 -0.1873 -0.0088  0.2449
16788W        W33635  11.175  16.916  15.533 -0.4748 -0.1627 -0.2305
16789W        W33636  12.375   3.908   0.345  0.0782  0.2555  0.0939
16790W        W33637  14.862  17.909   4.429 -0.2331 -0.0115 -0.2129
16791W        W33638   4.874  16.171   5.509 -0.0220 -0.2681 -0.1477
16792W        W33639   7.862  10.576  12.467 -0.5022  0.0369 -0.2857
16793W        W33640  17.824  10.323   0.485  0.1524  0.1925  0.2827
16794W        W33641  13.442  11.167   4.760  0.2395 -0.0608 -0.1887
16795W        W33642  15.967  11.555   3.181 -0.4939  0.1396  0.1795
16796W        W33643  12.210  14.443  15.662 -0.0683 -0.2154 -0.3498
16797W        W33644   1.347  14.566   2.349 -0.0564  0.0207 -0.1410
16798W        W33645   0.632  10.374   2.048  0.1996  0.0517 -0.0211
16799W        W33646  14.842   6.970   2.185 -0.1161 -0.1762  0.1023
16800W        W33647  16.986   2.188   0.941  0.2154  0.1869  0.1301
16801W        W33648   5.890  16.338  12.603 -0.2195  0.1311 -0.2195
16802W        W33649   9.244  11.723   2.687  0.0032  0.0453  0.2995
16803W        W33650   0.937  16.236   2.498  0.1246  0.0428 -0.1287
16804W        W33651   7.781  11.357  11.749 -0.1205 -0.0493  0.1021
16805W        W33652   8.796   5.197   4.402  0.0240  0.0096  0.0488
16806W        W33653   0.542   6.011   1.305  0.0291  0.0607  0.0835
16807W        W33654  16.581   6.593   4.293  0.1329  0.0490  0.0404
16808W        W33655   7.677  11.657  14.011 -0.0258  0.1731 -0.1035
16809W        W33656   3.202  12.593   4.756 -0.3233  0.0631  0.1458
16810W        W33657   3.348  17.680   0.089  0.0422  0.1735  0.2467
16811W        W33658  10.799   9.183   1.359  0.1043 -0.0372  0.1602
16812W        W33659   7.114   6.534   0.626  0.1526 -0.3772 -0.0870
16813W        W33660   1.578   3.513   4.711  0.0541  0.1759  0.1669
16814W        W33661  11.342  14.466   0.254 -0.0036 -0.0723  0.0631
16815W        W33662   2.368  12.979   3.781 -0.2659 -0.0792 -0.1139
16816W        W33663   6.409   9.558  14.796  0.1107  0.1842  0.1326
16817W        W33664  13.547  14.890  11.276  0.1909 -0.2620 -0.1302
16818W        W33665   2.586   0.356  14.175  0.0170 -0.1599  0.0622
16819W        W33666   4.663  17.343   2.690 -0.0420 -0.5751  0.1528
16820W        W33667  15.087  11.485  14.188  0.0755  0.0781 -0.1279
16821W        W33668   3.618   0.236  13.903  0.0379  0.0869 -0.1914
16822W        W33669   1.503   0.047   1.291  0.0439 -0.1670 -0.2515
16823W        W33670  13.850   0.469  15.356 -0.0980  0.1164 -0.1349
16824W        W33671  15.346   7.144  14.567 -0.2759  0.1984  0.0716
16825W        W33672  13.466   5.724  12.756 -0.0495  0.1985  0.0903
16826W        W33673   4.759   3.167  13.745  0.2295  0.0780  0.0629
16827W        W33674  14.720  10.938  12.303 -0.2233 -0.1501 -0.1935
16828W        W33675  15.621   7.715   1.882  0.2147 -0.1972 -0.0032
16829W        W33676  10.114   2.832  15.868  0.0334 -0.2772  0.0841
16830W        W33677  12.230   8.583   0.518  0.0807 -0.2376 -0.0292
16831W        W33678   1.173  10.838  14.197 -0.1698 -0.0193  0.0178
16832W        W33679  18.259   4.744  13.989  0.0940  0.0428  0.1580
16833W        W33680  16.748   1.160  13.313  0.2032  0.0555 -0.1374
16834W        W33681  12.842  10.965   2.188 -0.1739 -0.0115 -0.0164
16835W        W33682  14.450  17.160   3.256 -0.0686 -0.1204  0.0111
16836W        W33683   3.804   0.464   3.711 -0.1292  0.1312 -0.1674
16837W        W33684   3.015  17.257  11.861 -0.3047  0.0659  0.0468
16838W        W33685  16.997   9.704  15.053  0.0889  0.0824  0.0927
16839W        W33686  11.489   6.035   3.043 -0.3349  0.0572  0.0377
16840W        W33687  14.066   9.888   2.017 -0.2248 -0.2032  0.0145
16841W        W33688   3.842  17.599   3.803 -0.0516 -0.1252 -0.0723
16842W        W33689   0.025  12.096  11.493  0.3328 -0.2329  0.0673
16843W        W33690  13.968  11.480  13.309 -0.2058  0.0743 -0.3511
16844W        W33691  13.858   3.550   3.127  0.0031 -0.3513  0.2507
16845W        W33692   0.973   6.930  12.423  0.1813  0.1652 -0.0551
16846W        W33693   5.087   5.206   2.618 -0.2101 -0.2124 -0.1184
16847W        W33694   5.974   9.911  15.397 -0.3297  0.1371  0.1527
16848W        W33695  12.171   7.428   0.536 -0.0712 -0.1424 -0.3572
16849W        W33696   5.860  11.169  14.007 -0.0046  0.0088  0.1632
16850W        W33697  12.029   9.277   1.724 -0.0626  0.0898  0.0047
16851W        W33698   8.968   4.414  12.534 -0.0213 -0.0588  0.2119
16852W        W33699  14.873   7.029  11.445 -0.0418  0.0605 -0.3996
16853W        W33700   5.670   4.609   4.317  0.1471  0.0785 -0.0394
16854W        W33701   1.201   2.583   1.011  0.1804 -0.1185  0.0465
16855W        W33702   1.163   3.962  15.312  0.0630  0.1931  0.1769
16856W        W33703  14.408  17.334   2.225  0.2426 -0.1440  0.0634
16857W        W33704  14.019  17.773  12.274  0.3872 -0.0242  0.0214
16858W        W33705  11.038   8.762  13.865 -0.0831 -0.0989  0.2877
16859W        W33706  16.329   4.209  12.532  0.2215 -0.1225 -0.0183
16860W        W33707   9.223  12.408   0.357 -0.1921 -0.2072 -0.1798
16861W        W33708  11.250  12.931   5.177 -0.1173  0.0123 -0.1380
16862W        W33709   5.980   7.552  13.699  0.2470 -0.0569 -0.1456
16863W        W33710  15.013  12.207  11.182 -0.3072  0.0213 -0.0032
16864W        W33711   0.833  10.654   4.587  0.3855 -0.2712 -0.0148
16865W        W33712  12.650  16.015   2.190 -0.0622  0.1522 -0.2259
16866W        W33713   7.716   8.606  15.871 -0.1790 -0.0751 -0.4206
16867W        W33714   7.138   5.482  15.860 -0.0378  0.2802 -0.0647
16868W        W33715   4.691   4.091  10.723 -0.3531 -0.0760  0.2367
16869W        W33716   8.797  16.719   5.013  0.2244 -0.0637 -0.0999
16870W        W33717   6.760  10.961  11.507  0.3354  0.2350 -0.3312
16871W        W33718   1.140  17.548   0.142  0.1771 -0.1198  0.0177
16872W        W33719  18.295   2.077   3.544 -0.0987 -0.0438  0.1262
16873W        W33720   9.346   4.428  14.127  0.0083 -0.0481  0.3056
16874W        W33721   7.783   4.941  11.463  0.0179  0.0538  0.0130
16875W        W33722  18.453   2.046  13.005  0.2341  0.1631  0.0193
16876W        W33723  11.056  12.781   3.719 -0.1949 -0.2177 -0.0542
16877W        W33724   5.510  14.740   3.314 -0.0091 -0.3034  0.0036
16878W        W33725  11.411   4.427   5.306 -0.1021 -0.1021  0.1812
16879W        W33726   2.207  14.126  15.623 -0.3619  0.0524  0.0677
16880W        W33727  17.611   5.662  13.788  0.0824  0.1007  0.0267
16881W        W33728  15.274   0.025   3.336 -0.0756 -0.1981 -0.0634
16882W        W33729   9.463  14.912  15.192  0.0134 -0.4162  0.1042
16883W        W33730  14.321   9.692   5.481  0.0693 -0.0725 -0.1172
16884W        W33731   5.287  11.153  12.976  0.1710  0.0807  0.0464
16885W        W33732   1.322   3.661   0.796  0.0567 -0.0478 -0.0233
16886W        W33733  16.077   4.826  14.016  0.1511  0.0463  0.0852
16887W        W33734   7.141   9.036  11.680 -0.4441 -0.2162  0.1199
16888W        W33735   1.672   1.592   0.025  0.0704 -0.2280 -0.0587
16889W        W33736   1.670  14.272  14.588  0.3039 -0.0628  0.2143
16890W        W33737   2.750  15.975   2.583 -0.0226 -0.4222  0.0871
16891W        W33738  12.259  15.302  11.490  0.1185 -0.4829 -0.1295
16892W        W33739   5.808  10.381   2.405 -0.0055  0.0806  0.3043
16893W        W33740  13.253   5.536   4.708  0.1913 -0.2112  0.0871
16894W        W33741  17.400  14.109   1.752 -0.1100  0.0434 -0.2559
16895W        W33742   9.303   1.584  12.266 -0.1342  0.4150  0.2723
16896W        W33743  14.194   8.623   2.538  0.1876 -0.0080  0.0434
16897W        W33744   6.005   2.353   3.762  0.4598  0.1370 -0.1608
16898W        W33745  10.948   1.385   2.787 -0.2160  0.0361  0.0267
16899W        W33746  13.133  16.712  15.392 -0.1452  0.2647 -0.3137
16900W        W33747  12.207  15.721  14.060  0.0553  0.0666  0.0419
16901W        W33748  15.036   8.505   0.209  0.2273  0.1014  0.2389
16902W        W33749   8.265   3.798  11.716  0.0641 -0.1957 -0.0858
16903W        W33750   3.844   9.126  15.748  0.0968 -0.1666  0.2369
16904W        W33751   7.313  12.871   3.758 -0.2235 -0.0332  0.2100
16905W        W33752   7.538  16.005   4.925  0.1945  0.0494  0.0740
16906W        W33753   5.896   4.285  14.487  0.2871 -0.2844  0.1607
16907W        W33754   7.011   1.900  12.668 -0.1931  0.5481  0.2535
16908W        W33755  14.234   6.537   1.932  0.0876  0.0191 -0.1330
16909W        W33756   3.384   1.747   2.121  0.1283 -0.0754 -0.0423
16910W        W33757   8.654  18.140  12.601 -0.0379 -0.1283 -0.1150
16911W        W33758  14.877   1.079   0.301 -0.0778  0.2687  0.1792
16912W        W33759  11.272  15.309  14.885 -0.2803  0.0173  0.1474
16913W        W33760  11.640   9.963  15.890  0.0087  0.1102 -0.1582
16914W        W33761  14.782   1.878   4.787 -0.1853  0.3278 -0.0847
16915W        W33762  17.924   6.853   0.682 -0.3400  0.2379 -0.1886
16916W        W33763   2.518  17.105  15.352  0.1507  0.2332  0.0783
16917W        W33764   7.310   3.210   4.872 -0.0219  0.3114  0.0016
16918W        W33765  14.246  18.140   4.477  0.1364  0.1196  0.1547
16919W        W33766   5.690   9.352  15.343  0.0246  0.0122  0.0134
16920W        W33767  12.587  12.396   5.028  0.1939 -0.1624 -0.1956
16921W        W33768  16.464   0.059   4.190 -0.1348  0.0391 -0.0724
16922W        W33769  12.748  12.963   2.940 -0.0028 -0.0514 -0.0575
16923W        W33770   9.708  10.070  11.471 -0.2927 -0.1045  0.0112
16924W        W33771   6.557  17.562  15.270 -0.0663 -0.2059  0.0804
16925W        W33772   1.515  17.906   2.758 -0.2284  0.2344  0.0850
16926W        W33773  17.109   0.897   0.230 -0.1056 -0.1815  0.0564
16927W        W33774   0.097  17.020   3.469 -0.0928 -0.1450  0.0993
16928W        W33775  11.454  10.747  14.019 -0.2769  0.0059 -0.1971
16929W        W33776  13.769  10.967  12.536  0.1369 -0.2593 -0.0829
16930W        W33777   2.858   4.602   2.989  0.4755 -0.0889 -0.3145
16931W        W33778  12.918   5.703  10.859 -0.1798 -0.2377  0.3717
16932W        W33779  18.030   0.049  11.968 -0.2246 -0.2354 -0.2159
16933W        W33780  13.221   7.560  15.064 -0.0306 -0.1885  0.0268
16934W        W33781   1.634   5.843  10.429  0.2064  0.0871  0.1501
16935W        W33782   9.573  12.342   5.371  0.1927  0.0615  0.0229
16936W        W33783   8.331   8.393  11.014 -0.1942 -0.3162  0.0844
16937W        W33784   4.618   0.902  11.755 -0.0905 -0.0274 -0.0830
16938W        W33785  10.639  16.866  13.450 -0.3290  0.2533 -0.0331
16939W        W33786   7.189   5.503  14.409 -0.0866  0.3939  0.1465
16940W        W33787   4.648   3.981   3.397 -0.0925 -0.0119  0.1228
16941W        W33788   2.903   1.134   2.618 -0.4662  0.2475  0.1715
16942W        W33789   0.160  11.073   3.961 -0.0571  0.2329  0.0642
16943W        W33790  10.764  10.391   0.876  0.1521 -0.0256 -0.0676
16944W        W33791   0.396  15.887  11.853 -0.1378 -0.2343  0.0568
16945W        W33792  10.460   1.103  12.846  0.0557 -0.1475 -0.2385
16946W        W33793   6.677   9.382   3.608 -0.1391 -0.1027  0.7050
16947W        W33794   2.187   2.179   0.312 -0.2226 -0.0390  0.0057
16948W        W33795  17.903   1.593   1.221  0.0777  0.1054  0.2758
16949W        W33796   6.122  10.093  15.848 -0.0724  0.0875 -0.1079
16950W        W33797  16.400   8.698   2.433  0.0134 -0.2588 -0.1235
16951W        W33798   4.766   1.063  13.755 -0.0028 -0.2624 -0.3757
16952W        W33799  16.938  15.630  15.804 -0.2264  0.2152 -0.1718
16953W        W33800  16.490   9.598  11.834 -0.1874 -0.1013 -0.3795
16954W        W33801  17.377   0.405  14.147 -0.1944  0.1416 -0.6126
16955W        W33802  10.542   8.825  12.714 -0.0469 -0.4423  0.2115
16956W        W33803   5.309  12.888  12.514 -0.1786  0.0891  0.1046
16957W        W33804  17.700   9.387   2.284 -0.1372 -0.1089 -0.1395
16958W        W33805   3.186  11.421   1.781 -0.1589 -0.3003 -0.0002
16959W        W33806  10.854  15.936  14.409 -0.0598  0.1262  0.0544
16960W        W33807   4.618   4.394  11.564  0.2489  0.0924  0.1342
16961W        W33808  14.394   6.362   3.876 -0.0438  0.2053  0.2616
16962W        W33809   0.924  17.844   4.291 -0.0873 -0.0560 -0.2812
16963W        W33810  13.033   3.019  14.283 -0.1630 -0.2630  0.0575
16964W        W33811   3.779   2.373   1.091 -0.0259  0.4147 -0.0472
16965W        W33812  13.760  13.168  15.049 -0.1894 -0.2655  0.0544
16966W        W33813  10.307  15.553  13.345 -0.1888 -0.1490 -0.1093
16967W        W33814  12.188  13.073   1.992  0.0508  0.0833 -0.0773
16968W        W33815   6.102   6.674   1.682  0.0438  0.0167  0.3386
16969W        W33816  12.644  15.516   2.407 -0.0244 -0.1198 -0.0157
16970W        W33817  10.856  17.541   5.692 -0.0174  0.1235  0.0105
16971W        W33818  16.690   2.908   5.392 -0.1865 -0.0328 -0.0036
16972W        W33819   5.838  11.891   1.235  0.2820 -0.0428  0.0020
16973W        W33820  13.267   7.853   4.587  0.0696  0.1703  0.1208
16974W        W33821   3.084   5.749  13.771  0.1762  0.1124 -0.0178
16975W        W33822  12.193   9.407  14.251 -0.0679 -0.2498  0.0338
16976W        W33823  15.753   1.544   1.080  0.2102 -0.2453 -0.1121
16977W        W33824   0.846   0.090  15.523  0.2310  0.0855  0.2589
16978W        W33825  15.708  16.240   0.930 -0.3476  0.1640 -0.2420
16979W        W33826   2.575   6.454  14.658 -0.3740  0.0299  0.1657
16980W        W33827   9.947  12.480   2.418 -0.1760 -0.2729  0.0465
16981W        W33828   9.147  15.495   2.267 -0.2659  0.0261 -0.2143
16982W        W33829   4.099  12.527  11.583 -0.0615 -0.1819 -0.4065
16983W        W33830  14.154  14.890   3.857  0.0150 -0.0906 -0.0701
16984W        W33831   8.771   4.558   4.787 -0.4737  0.0641  0.1058
16985W        W33832  13.309   6.032  15.002  0.0077 -0.0419 -0.0348
16986W        W33833  14.596   3.666   3.113 -0.1220  0.0979 -0.2065
16987W        W33834   4.593   5.017   2.149  0.1199  0.3123  0.0309
16988W        W33835  17.365   0.443   5.299 -0.2114 -0.0901  0.0170
16989W        W33836   1.901  15.258   2.232  0.0398  0.2036  0.1513
16990W        W33837  18.308  15.656   2.547 -0.0250 -0.0560  0.1761
16991W        W33838  12.457   4.434  12.919  0.1592 -0.1625 -0.1528
16992W        W33839   2.719   2.192   2.790 -0.2048 -0.2487 -0.3021
16993W        W33840   0.471  16.798   2.625  0.3238  0.1171  0.0953
16994W        W33841  17.627   7.793   3.261  0.0658 -0.0915  0.0323
16995W        W33842   1.628   2.488   3.326  0.2111 -0.2201  0.0759
16996W        W33843   8.455   3.144   1.516  0.0996  0.0265  0.3671
16997W        W33844   8.756   8.038   4.468 -0.2609  0.2287  0.0681
16998W        W33845   3.776  17.844  14.176  0.1067  0.0458 -0.1757
16999W        W33846  14.737   0.787  12.370 -0.4333 -0.1310  0.1153
17000W        W33847  13.696   2.590   3.934  0.0652  0.0345  0.3111
17001W        W33848  16.852   0.078   2.622  0.1189  0.0413  0.1843
17002W        W33849   9.548   2.639   3.745  0.2830 -0.2313 -0.1553
17003W        W33850  13.607  16.385   5.295 -0.1837 -0.2486 -0.1055
17004W        W33851   8.876  11.839   4.375 -0.1065  0.1175 -0.5332
17005W        W33852  11.851   0.368   3.555  0.0552  0.1606 -0.0078
17006W        W33853   3.310  16.200  13.668 -0.0233 -0.1735 -0.0873
17007W        W33854  11.368  13.518  14.989 -0.1336 -0.2079 -0.1442
17008W        W33855   3.155   4.842  14.922  0.1958  0.2857  0.0093
17009W        W33856  16.751   9.923  13.093  0.0352  0.4402  0.1704
17010W        W33857   0.909   6.526   3.662  0.0169  0.0552  0.1202
17011W        W33858   1.561   9.088  15.754  0.0641 -0.1358  0.1983
17012W        W33859   9.580   3.250  12.345  0.0199 -0.1161  0.2930
17013W        W33860  13.956   3.539   1.282 -0.3413  0.1910  0.1170
17014W        W33861  14.341  12.301  15.539 -0.3457  0.0985  0.0659
17015W        W33862   0.931  12.172   1.300  0.1051 -0.1042  0.0976
17016W        W33863   0.279   5.436  13.476 -0.2580  0.2358  0.0493
17017W        W33864   7.857  14.090   3.875 -0.3244  0.1967  0.1362
17018W        W33865  17.067  15.079   5.372 -0.1593  0.2422 -0.1387
17019W        W33866   5.196   9.896  15.677 -0.2101  0.1901 -0.1086
17020W        W33867  14.900   2.365   0.787 -0.0171 -0.0628  0.0651
17021W        W33868   4.158  15.120   3.216  0.2035 -0.0911 -0.1213
17022W        W33869   5.061  14.017  10.508 -0.1110  0.1437 -0.2572
17023W        W33870   0.846  13.014  11.323 -0.2497 -0.1055 -0.2927
17024W        W33871  11.334  14.053  13.253  0.1920 -0.0946  0.0446
17025W        W33872  12.380  13.791  11.656  0.1669 -0.0653  0.0815
17026W        W33873   4.726  18.062   1.100 -0.2778  0.3362  0.0643
17027W        W33874   9.675  14.427   5.486 -0.0127 -0.1948  0.2388
17028W        W33875  15.942   2.068  11.268 -0.0821  0.0430  0.1574
17029W        W33876  13.801  17.667  13.053 -0.2295  0.1143 -0.3080
17030W        W33877  10.581   4.129   1.629  0.0238 -0.1527 -0.1336
17031W        W33878  15.017  17.603   0.752 -0.1324  0.5022  0.0734
17032W        W33879  11.037   6.638   4.953  0.1157  0.0044 -0.0629
17033W        W33880   9.065  10.990   0.562 -0.1231  0.1902 -0.0175
17034W        W33881   9.849   8.414   2.587 -0.1102  0.1257 -0.4579
17035W        W33882   4.181   0.848   3.682 -0.3538  0.3948  0.3227
17036W        W33883  17.026   4.447  14.020  0.0449 -0.0869 -0.3077
17037W        W33884  12.440   5.542  15.153 -0.0975  0.1314  0.2526
17038W        W33885   2.080  14.033   1.508 -0.2689  0.1428 -0.2924
17039W        W33886   3.817   7.187   3.512 -0.0363 -0.0397 -0.1513
17040W        W33887   7.210  11.686   5.513 -0.2346  0.0817 -0.0823
17041W        W33888   2.504  17.919   4.456 -0.1026 -0.1001 -0.0373
17042W        W33889   7.725   7.700   1.788  0.2830  0.1464 -0.1604
17043W        W33890  12.649   0.360   0.638  0.2211 -0.1544 -0.0041
17044W        W33891  15.682   8.238   1.914 -0.0844 -0.2334 -0.4317
17045W        W33892  12.984   5.283   0.727 -0.2612  0.1687  0.0886
17046W        W33893  17.064   7.593   3.198  0.3795 -0.1697  0.0039
17047W        W33894   4.989   6.250   2.913  0.1353  0.0464  0.0969
17048W        W33895   3.404   3.820  11.380  0.1552 -0.1426  0.0924
17049W        W33896   2.775  15.210  14.183 -0.1615 -0.3242 -0.0200
17050W        W33897   3.703  12.915  11.488  0.1841 -0.4018 -0.2409
17051W        W33898   4.402   5.873   3.823 -0.1213 -0.3790  0.0597
17052W        W33899   5.975   5.408  12.007 -0.2942 -0.5023  0.3004
17053W        W33900   0.288  13.649   1.971  0.1276  0.1123  0.1977
17054W        W33901   9.098   8.206  10.971 -0.1431  0.2544  0.0410
17055W        W33902   5.975   9.603   0.218 -0.1679 -0.0403 -0.1624
17056W        W33903   5.452   7.361  13.294 -0.2992  0.0584  0.1461
17057W        W33904  14.622  15.203   2.687  0.0731  0.2643  0.0598
17058W        W33905   0.631   2.135   0.891  0.0362 -0.0405 -0.1373
17059W        W33906   9.013  13.438  14.351 -0.3342  0.1612 -0.0199
17060W        W33907   9.786  18.484   3.100  0.1557 -0.1968  0.2302
17061W        W33908  17.311   9.324   4.691 -0.1234 -0.1333  0.0529
17062W        W33909   2.789   5.822  12.917 -0.1409 -0.4228 -0.1025
17063W        W33910  16.785   2.284   4.774  0.0942 -0.0720  0.0929
17064W        W33911   4.110   9.242   3.581 -0.1186  0.1857  0.1152
17065W        W33912  10.839   0.568   4.539  0.0717 -0.1721 -0.0560
17066W        W33913   1.402   3.778   2.646 -0.1627 -0.0419 -0.0286
17067W        W33914  13.898  15.415   1.981 -0.0374 -0.0117  0.1574
17068W        W33915  13.586  17.345  13.364 -0.0841  0.3799  0.0889
17069W        W33916  18.305  16.436  14.598 -0.1235 -0.0640 -0.1392
17070W        W33917   2.244  13.573  12.630  0.1443 -0.3001 -0.0205
17071W        W33918  16.369   6.006   2.247  0.1988  0.0624 -0.0699
17072W        W33919  17.327   4.155  13.119  0.1270  0.2046 -0.1229
17073W        W33920  11.334   5.305  13.427 -0.0710  0.1254  0.1855
17074W        W33921  12.830  14.848  13.424  0.0024 -0.1132  0.0856
17075W        W33922   8.754   7.507   0.903  0.2500 -0.1107  0.3242
17076W        W33923   9.370  14.605   2.376 -0.0841 -0.1631  0.2962
17077W        W33924  18.492  13.006  13.195  0.1994  0.2914  0.3300
17078W        W33925  16.090   8.170  14.044  0.1350  0.1819 -0.0088
17079W        W33926   9.595  12.670  14.114  0.3631  0.1532 -0.1333
17080W        W33927   7.608  10.383  14.591  0.0359  0.0651  0.0579
17081W        W33928   0.980  15.431   1.823  0.2544 -0.2181 -0.0963
17082W        W33929   2.380   3.672   5.585  0.1504 -0.1168 -0.0606
17083W        W33930  10.767  10.122  14.663  0.1555  0.0886 -0.3040
17084W        W33931   9.900   9.355  15.844  0.1462  0.1433  0.4048
17085W        W33932  13.966  13.818  15.734 -0.0728 -0.0048 -0.4460
17086W        W33933   5.352   7.901   1.521 -0.1267  0.2275  0.2054
17087W        W33934  16.983  14.709  15.147  0.0252  0.2093 -0.4384
17088W        W33935  16.986   0.030  11.237 -0.0076  0.0776 -0.1638
17089W        W33936   5.365   2.470   1.397  0.0474 -0.6419  0.0003
17090W        W33937   0.259   4.818   3.570  0.1131 -0.1764  0.1471
17091W        W33938  10.981  18.249  11.813  0.1587  0.0477 -0.3417
17092W        W33939   5.332   9.353   4.163 -0.1466  0.1715 -0.4214
17093W        W33940  10.731  12.514  13.198 -0.1205  0.1219  0.0504
17094W        W33941   6.382  14.131  11.756 -0.0771 -0.0594 -0.0670
17095W        W33942   9.345   2.186  11.531  0.0501 -0.3127  0.3979
17096W        W33943  13.617   3.142  15.477 -0.0576 -0.2472 -0.1187
17097W        W33944   9.521  15.158   2.367 -0.3151 -0.0936  0.3312
17098W        W33945   9.942   0.687  14.020 -0.2275 -0.0193 -0.1265
17099W        W33946   2.276   8.225   1.860 -0.0191 -0.3274  0.0147
17100W        W33947  13.489  16.855  10.283 -0.2346 -0.0189 -0.0818
17101W        W33948   7.882  17.586   4.272 -0.3361  0.0846  0.1443
17102W        W33949  17.759  16.623  15.515  0.1046 -0.2255  0.0719
17103W        W33950   4.601   6.603  12.427  0.1624  0.1148  0.2561
17104W        W33951  13.475   7.634  11.974  0.0393 -0.0592 -0.1539
17105W        W33952   8.000  12.870   1.194  0.2382 -0.0302  0.0481
17106W        W33953  12.896   9.320   5.896  0.2698  0.2843 -0.1137
17107W        W33954   3.827  11.726   3.562 -0.0441 -0.1484 -0.1893
17108W        W33955   9.856  13.618  15.571 -0.0667  0.0853  0.0268
17109W        W33956  10.739  18.422   1.357 -0.0942 -0.2470  0.0302
17110W        W33957  17.164  13.141   2.585 -0.0613  0.1945 -0.1026
17111W        W33958   1.650  16.731   3.132  0.0189 -0.0751 -0.1042
17112W        W33959   2.006  12.583  13.863 -0.2643 -0.0061  0.0673
17113W        W33960  16.055  11.472  12.096  0.1594 -0.1068 -0.0886
17114W        W33961   1.461   7.788   2.628 -0.0991  0.0312 -0.1186
17115W        W33962  15.146   8.808   1.088 -0.1823 -0.2861 -0.2754
17116W        W33963  13.797   1.099  11.431 -0.2049  0.1398  0.0216
17117W        W33964  18.436  17.990   4.498  0.2689  0.1482 -0.1448
17118W        W33965  14.575  17.912   3.135 -0.3588 -0.2057  0.2333
17119W        W33966   1.386   4.280  11.954 -0.0345 -0.4902 -0.2291
17120W        W33967  14.606   2.349   4.429  0.2931  0.2887 -0.2139
17121W        W33968   5.908   8.767  12.861 -0.0376  0.3566  0.1352
17122W        W33969  11.948   5.239   1.539 -0.0340  0.0179 -0.0690
17123W        W33970   8.039   8.112   3.695  0.1207  0.0432 -0.2410
17124W        W33971   5.751   5.556  12.437 -0.0952  0.1858  0.0240
17125W        W33972   8.665  10.163   0.150 -0.1972 -0.2426 -0.4040
17126W        W33973  16.317   8.050  13.616 -0.1783 -0.0176 -0.1483
17127W        W33974   7.675   7.217  15.516 -0.0067  0.1257 -0.0711
17128W        W33975   4.476  14.811  11.519  0.3508 -0.2424  0.0498
17129W        W33976   5.206   0.688   0.136  0.3927  0.2026  0.3332
17130W        W33977  15.660   3.872   6.044 -0.0986 -0.1956  0.0188
17131W        W33978  10.983  13.408   5.134 -0.0067  0.0021 -0.0649
17132W        W33979   2.234   4.764  11.093 -0.2081  0.1245 -0.0918
17133W        W33980   8.438   0.975  10.968  0.2056 -0.1877 -0.1616
17134W        W33981   1.148  17.903  14.618  0.1687 -0.1725 -0.0506
17135W        W33982   1.915   8.489  12.236  0.0129 -0.2517  0.0184
17136W        W33983  14.571  18.266  15.331  0.1147 -0.0770  0.2048
17137W        W33984  16.773   5.628   0.476  0.4709  0.2055 -0.0348
17138W        W33985   0.673  16.312  12.469  0.0047 -0.0752 -0.1598
17139W        W33986   0.563   7.661   2.703 -0.0706  0.2109 -0.1901
17140W        W33987  16.821   1.183   0.764  0.1553  0.1571 -0.0490
17141W        W33988   5.692   6.773   1.304 -0.2254  0.0463  0.0714
17142W        W33989  15.577  17.618   2.868 -0.3633 -0.1243  0.0328
17143W        W33990   9.372  12.141   5.801 -0.0285  0.2997 -0.0053
17144W        W33991   1.313  13.413  10.858  0.2102  0.1606 -0.2208
17145W        W33992  11.722  18.198  15.307  0.2827 -0.1129 -0.0384
17146W        W33993   0.862   1.972   5.570  0.1584 -0.2726 -0.1303
17147W        W33994  16.614  10.676  15.362 -0.1342  0.0307  0.1385
17148W        W33995  10.721   8.570  14.944  0.0129 -0.2393  0.0002
17149W        W33996  16.798   1.944  15.086  0.2143 -0.0656  0.2887
17150W        W33997   5.759  18.003  13.384  0.1294 -0.1330  0.1458
17151W        W33998   2.131   9.292   5.430  0.3473 -0.0304  0.1238
17152W        W33999  11.540  12.380   0.326  0.1705 -0.1992 -0.3453
17153W        W34000  13.789   2.099   5.008 -0.0176 -0.0573  0.2279
17154W        W34001  12.344   9.199  12.177 -0.1418  0.5487 -0.1311
17155W        W34002  15.168   2.215   2.042 -0.1093 -0.1602  0.0665
17156W        W34003  12.514   0.085  15.377  0.1721 -0.1722  0.1891
17157W        W34004  17.986  14.745   0.469  0.0591 -0.3734  0.0281
17158W        W34005   6.670   8.777  13.268 -0.0233  0.5030 -0.2463
17159W        W34006   4.301  17.597  14.961  0.1017  0.2266  0.0844
17160W        W34007   9.202   1.458   0.105 -0.1092 -0.1153  0.3656
17161W        W34008  12.673   5.003  14.405  0.1497  0.2422 -0.2690
17162W        W34009   8.922   8.811   5.579 -0.0836  0.0036 -0.2076
17163W        W34010  13.372   7.296  11.443 -0.1681 -0.0694 -0.3555
17164W        W34011  16.264  17.057   3.644 -0.1447  0.2037 -0.1023
17165W        W34012   6.726   1.926   0.701  0.0843  0.2014 -0.0509
17166W        W34013  13.848   4.226  14.600  0.1062 -0.0109  0.0909
17167W        W34014   3.419  17.157   4.809 -0.1621 -0.0671 -0.0900
17168W        W34015  12.735   9.594   4.796  0.2210 -0.3753 -0.0815
17169W        W34016   5.063  16.063  12.442 -0.0509  0.1656 -0.3191
17170W        W34017   7.840   1.170   0.262  0.2145  0.3233  0.0610
17171W        W34018  13.826   1.197   3.373  0.0693 -0.0815 -0.3100
17172W        W34019  14.174   2.372   3.946  0.1009 -0.1921 -0.0299
17173W        W34020   9.528   8.038   2.846  0.1399 -0.1963 -0.2705
17174W        W34021   9.613   6.620   2.916  0.2235  0.1173  0.0655
17175W        W34022  15.451   5.547   3.563 -0.0993  0.0353  0.0793
17176W        W34023   3.315  12.876   3.865  0.1521  0.0534  0.1048
17177W        W34024  17.712   1.052  15.114 -0.1376  0.0753 -0.3059
17178W        W34025   3.760  17.822  12.334  0.0684 -0.0153  0.1502
17179W        W34026   6.610   9.739   1.926  0.0694 -0.1809 -0.0990
17180W        W34027   2.505  10.413  14.690 -0.4739  0.1789  0.0915
17181W        W34028   5.309  11.824   3.439 -0.0976  0.2640  0.0855
17182W        W34029  14.958  12.394  14.097 -0.0047 -0.0891  0.0554
17183W        W34030  12.343   5.994  13.971  0.1066  0.2261 -0.0189
17184W        W34031  18.522  11.941   1.364 -0.0170 -0.1187  0.0597
17185W        W34032  16.071   1.947   3.644  0.0028 -0.3455 -0.4271
17186W        W34033  17.754  14.621  13.287  0.3934  0.2682 -0.0150
17187W        W34034  16.315  13.310  13.081 -0.1796 -0.0999 -0.4079
17188W        W34035   4.206  17.219  15.742  0.0935 -0.1375 -0.3496
17189W        W34036  14.752   7.613   1.228  0.1063 -0.1349 -0.2113
17190W        W34037   9.774  10.909  14.173 -0.1383  0.1833  0.2039
17191W        W34038   9.320   8.981  14.782 -0.2404 -0.1183  0.1008
17192W        W34039   3.491   3.409   0.797 -0.0103  0.2258  0.0633
17193W        W34040  17.662   2.719   4.092 -0.3553  0.1346  0.1814
17194W        W34041  10.764   4.370   5.323  0.3696  0.0493 -0.0261
17195W        W34042  11.527   0.786  15.725 -0.1835  0.0265 -0.2684
17196W        W34043  14.139  11.904  14.131  0.0973  0.0411 -0.0915
17197W        W34044  11.334  10.586  11.495  0.2584 -0.1034 -0.0503
17198W        W34045  13.367   8.915   0.712  0.0763  0.2878 -0.0911
17199W        W34046   7.082  13.518  14.930  0.0517 -0.1159  0.0411
17200W        W34047  11.242   6.164  13.265 -0.0380 -0.0841  0.1590
17201W        W34048  17.192  14.361   0.742  0.1622 -0.0368 -0.0372
17202W        W34049  15.538   0.525   4.662  0.0661 -0.0126  0.0940
17203W        W34050   4.185   1.822   0.242 -0.1103  0.2084 -0.0157
17204W        W34051   9.965   7.137   2.202  0.1803  0.3080 -0.1670
17205W        W34052   0.306   4.191  13.735 -0.1246 -0.0940  0.2604
17206W        W34053   0.611   5.298   2.835 -0.1709 -0.1065  0.1236
17207W        W34054   4.364   2.637   1.814  0.0792  0.0823 -0.0344
17208W        W34055   1.012  14.038  15.268 -0.1124 -0.0260 -0.0832
17209W        W34056   9.200   5.429   5.946  0.4274 -0.1236  0.1455
17210W        W34057  16.089   1.091   3.974 -0.2950 -0.1523 -0.0460
17211W        W34058   1.232  12.246  13.360 -0.0430 -0.0593 -0.1367
17212W        W34059   0.793   3.073   3.151 -0.2075 -0.0654 -0.1101
17213W        W34060   7.431  14.568  14.458 -0.2216 -0.0166 -0.1966
17214W        W34061   5.538   1.804  13.538 -0.0913 -0.2005  0.0068
17215W        W34062  14.286   8.191  15.568  0.1492 -0.0852 -0.1901
17216W        W34063  16.485   4.186   2.880  0.0835 -0.0653  0.2053
17217W        W34064  12.095   3.475  14.111 -0.1187  0.2116  0.1400
17218W        W34065  11.781   9.743   1.840 -0.0131 -0.1406  0.0864
17219W        W34066   2.317   8.653   1.573 -0.0043  0.1116 -0.0987
17220W        W34067  17.843  18.239  13.621  0.1491  0.0343  0.1842
17221W        W34068   9.605  16.304   0.916  0.1069  0.2134  0.0065
17222W        W34069   7.651  15.212   1.246 -0.0937 -0.2374  0.0783
17223W        W34070  15.778  12.948   4.351 -0.0453  0.0189  0.1484
17224W        W34071   2.487   0.461  14.698  0.0577  0.1673  0.2368
17225W        W34072   7.405  18.100   5.276 -0.4524 -0.1624  0.2047
17226W        W34073  10.102  14.229   3.019  0.0346  0.0958  0.2268
17227W        W34074  15.515  18.094   2.985  0.1475 -0.2224 -0.1268
17228W        W34075  13.381  11.729  13.083 -0.1036  0.0804  0.0979
17229W        W34076   4.381  15.721   3.035 -0.1068 -0.0239  0.0194
17230W        W34077   0.746   9.473   1.308  0.1606 -0.0743  0.1893
17231W        W34078  13.137  17.754   2.873  0.2983 -0.0985  0.1601
17232W        W34079   6.842  17.161   2.234 -0.1940 -0.0448 -0.3353
17233W        W34080  11.624  13.044   1.241 -0.2392 -0.0718 -0.1108
17234W        W34081   4.032   8.439   3.362 -0.1843  0.0891 -0.2690
17235W        W34082   2.883   0.724  10.733 -0.2224  0.1019 -0.1273
17236W        W34083  11.238   1.601   1.630 -0.2587 -0.0165 -0.2109
17237W        W34084   6.677   6.437  14.536 -0.1270 -0.0588 -0.0773
17238W        W34085  15.706   5.535  11.717 -0.2085 -0.0178 -0.1355
17239W        W34086   6.296   7.306   4.621 -0.0642 -0.4050 -0.2814
17240W        W34087   9.489   2.402  12.768  0.0423  0.1270 -0.3399
17241W        W34088  10.870  17.825   3.902  0.2372 -0.1319 -0.0672
17242W        W34089   2.455   4.603  13.165  0.2873 -0.0042  0.0623
17243W        W34090   0.262   3.998  15.106  0.0844  0.0464  0.0092
17244W        W34091   5.693   1.456   0.380 -0.0181  0.1507  0.0944
17245W        W34092  16.671   5.011   4.798  0.1488 -0.0672 -0.1582
17246W        W34093   8.946  18.179  15.520  0.0709 -0.0634  0.0671
17247W        W34094  15.006  15.883   4.678 -0.1166  0.0960  0.1700
17248W        W34095   8.349  10.012  14.012  0.2051  0.1689  0.0503
17249W        W34096  13.741  14.591  11.652 -0.0459 -0.2303  0.2970
17250W        W34097  14.603  18.133  13.400  0.0320 -0.0062  0.2214
17251W        W34098  14.017   0.359  11.767  0.1247  0.1596 -0.0974
17252W        W34099  14.091   0.531  14.928  0.0413 -0.1549 -0.0349
17253W        W34100   5.241  15.586   3.306  0.0993 -0.1757  0.1618
17254W        W34101   4.506  14.713  12.108  0.0750 -0.0684 -0.0428
17255W        W34102   1.233   1.805  14.215  0.4298  0.0125 -0.1747
17256W        W34103   7.476  16.137  13.028  0.2390  0.0822  0.1794
17257W        W34104   4.478  13.326   2.357 -0.1201 -0.0852  0.2525
17258W        W34105   7.625   9.071  11.902 -0.2086 -0.0855  0.3486
17259W        W34106  12.108  17.468   0.078 -0.3455  0.1666 -0.1367
17260W        W34107   3.815  11.675   2.098 -0.0797  0.1896 -0.0597
17261W        W34108   1.494   9.223   0.565  0.2382  0.2838  0.2543
17262W        W34109  12.562   4.493   3.020 -0.1636 -0.1768  0.0336
17263W        W34110  11.920  11.373   2.844 -0.0850  0.0497 -0.1844
17264W        W34111  15.772  11.679  15.206  0.1913 -0.0646  0.0096
17265W        W34112   7.579  14.084   4.854 -0.3062  0.1293 -0.0415
17266W        W34113   9.751  11.598   0.348  0.2619 -0.2571 -0.1569
17267W        W34114   9.345   3.568   4.566 -0.1496 -0.1792  0.0850
17268W        W34115  10.334   0.322   1.886 -0.0649  0.0146 -0.1438
17269W        W34116  17.975   9.690   2.889 -0.1284 -0.2600 -0.1465
17270W        W34117  14.496   5.935   4.247  0.2370 -0.2427 -0.3478
17271W        W34118  18.206   6.822  12.217  0.0301 -0.3302 -0.2140
17272W        W34119  14.152  11.930   3.085 -0.2956  0.0251 -0.1007
17273W        W34120  10.332  13.492  13.814 -0.3382  0.4761  0.1474
17274W        W34121  11.901   2.581  13.104 -0.1459 -0.1556 -0.1588
17275W        W34122   9.323   8.376  13.043  0.0748 -0.0768  0.0176
17276W        W34123   9.079  15.476  10.936 -0.1236  0.0135  0.2930
17277W        W34124  11.694  17.053  11.019  0.4155 -0.2710  0.2140
17278W        W34125  12.756   2.341   5.746 -0.0366 -0.2480  0.0816
17279W        W34126   0.107  11.784  14.118 -0.3149  0.0089 -0.0608
17280W        W34127  14.674   1.871  13.153 -0.0540 -0.2490  0.0257
17281W        W34128  12.872  13.409   0.382 -0.3693 -0.1268 -0.0112
17282W        W34129  14.711   3.153  10.035 -0.0789 -0.1963 -0.0090
17283W        W34130   6.507   9.827   5.115 -0.0710 -0.2802 -0.0685
17284W        W34131  14.426   3.219  12.552  0.0648  0.0396  0.2181
17285W        W34132   6.305  11.118   4.076  0.0485  0.0717 -0.0175
17286W        W34133  16.479  14.563  15.040  0.0740  0.0311  0.1027
17287W        W34134   8.158   4.434  13.601 -0.0663  0.1846  0.0494
17288W        W34135  10.374   4.225  14.184  0.0992  0.2793 -0.3415
17289W        W34136   6.476  17.501  14.630  0.0900  0.0546  0.1740
17290W        W34137   1.802   4.019  14.056  0.0236 -0.4621 -0.2090
17291W        W34138   7.480  14.139  14.204  0.1727 -0.2933 -0.3007
17292W        W34139   1.251  12.118   5.345 -0.1203  0.0571  0.0111
17293W        W34140  14.795   7.478   0.328 -0.4942 -0.2777  0.1893
17294W        W34141   5.356   3.868   5.169  0.0551 -0.2168  0.2842
17295W        W34142   4.636  12.657   0.611 -0.2503 -0.0438 -0.1575
17296W        W34143  13.082  18.186   0.716  0.3685 -0.0780 -0.1751
17297W        W34144   0.703  13.976   4.982  0.2203  0.1319 -0.0630
17298W        W34145  17.096   5.037   1.515 -0.2841  0.1119  0.1409
17299W        W34146  18.258   4.788   3.703 -0.3472 -0.0239 -0.1286
17300W        W34147  15.546   4.629  14.870 -0.1330 -0.0287  0.0365
17301W        W34148  11.638   3.287  11.171  0.1562 -0.1076  0.2025
17302W        W34149   9.749   6.998   3.808  0.3235 -0.0174  0.1623
17303W        W34150   7.077   9.014   2.455  0.0567 -0.0396 -0.0185
17304W        W34151   0.702  16.248   1.159  0.0312 -0.4478  0.1088
17305W        W34152   6.352   6.238   1.656  0.1291  0.0167  0.0104
17306W        W34153  18.029  13.960  15.630  0.1291  0.0955 -0.0051
17307W        W34154   9.519  11.210  11.896  0.0133 -0.3438  0.0749
17308W        W34155  11.506   0.864   2.203 -0.0284 -0.2058  0.0291
17309W        W34156  16.283  15.299  12.456  0.1472 -0.0759  0.1041
17310W        W34157   0.873  10.293  10.383 -0.2488 -0.2112  0.0145
17311W        W34158  10.434   6.574  12.873  0.1000 -0.0681 -0.0434
17312W        W34159  18.194  11.568   4.232  0.1839 -0.2051 -0.0159
17313W        W34160  12.938   8.086   2.150  0.1328  0.1012  0.0389
17314W        W34161  16.037  10.777   0.213  0.3792  0.0624 -0.1444
17315W        W34162   8.104   4.636   1.905 -0.0546  0.2438 -0.0004
17316W        W34163   5.865   1.214   4.760  0.0540  0.0573 -0.0487
17317W        W34164   0.589   8.614  12.362  0.0893  0.0536 -0.2359
17318W        W34165   5.666   0.981  14.401 -0.4140  0.1281 -0.0550
17319W        W34166   8.684  13.072  12.747 -0.1260 -0.3230 -0.1636
17320W        W34167   7.868   3.237  11.096  0.0082  0.1036  0.2605
17321W        W34168   7.838   9.019  14.670 -0.0218  0.0472 -0.1665
17322W        W34169  13.813  14.812   0.416 -0.2096  0.1089  0.0234
17323W        W34170   5.295  17.151   6.111 -0.1962  0.0789 -0.1921
17324W        W34171  15.883  12.712   3.943 -0.4321  0.1578 -0.0284
17325W        W34172   5.745  17.246   2.672 -0.0917 -0.0547  0.1170
17326W        W34173   0.916  12.318   3.297  0.0829  0.0110  0.1014
17327W        W34174   7.296  10.720   3.981 -0.0688  0.0181 -0.0212
17328W        W34175  11.148  10.524  13.327  0.0502  0.3184 -0.1494
17329W        W34176   9.348  16.283   1.673 -0.0208 -0.0093  0.0780
17330W        W34177   8.397   3.049   5.599 -0.0690  0.0972 -0.0280
17331W        W34178  13.025   6.578   2.454 -0.0325 -0.0060 -0.2894
17332W        W34179   2.296   0.902  12.550 -0.0960 -0.3171  0.2700
17333W        W34180   0.463  12.451   5.090  0.1682  0.0341  0.2112
17334W        W34181   5.145  10.912   3.656  0.1334  0.0062 -0.0454
17335W        W34182   0.323   0.884   5.496 -0.1936 -0.1776 -0.3407
17336W        W34183   9.512   5.622  11.028 -0.1612  0.2063  0.1341
17337W        W34184   2.837  13.776   0.204 -0.3316 -0.2000 -0.0984
17338W        W34185   0.729  12.076   2.616  0.1288  0.0145  0.1775
17339W        W34186  16.113   1.197  10.372 -0.0666  0.0930 -0.1644
17340W        W34187  14.602   1.783  14.748  0.0445 -0.2604  0.0026
17341W        W34188  13.866  13.217  13.303 -0.0237  0.2148  0.0153
17342W        W34189   9.209   8.439  13.492  0.2085  0.1118  0.0603
17343W        W34190  11.473   2.171  12.895 -0.2583 -0.1506  0.1489
17344W        W34191  13.291  17.106   0.626 -0.1675 -0.0291  0.1229
17345W        W34192   8.952  13.483  14.847 -0.3135  0.4242  0.1682
17346W        W34193  15.641   7.064  15.668 -0.1510  0.0167 -0.2047
17347W        W34194   8.162  12.585   4.631  0.0332 -0.1023  0.0403
17348W        W34195   2.987  14.425  11.175 -0.0920  0.1872  0.0384
17349W        W34196   9.693   9.607   3.434 -0.0845 -0.1160  0.2948
17350W        W34197  13.288   1.001   2.755 -0.2901 -0.1840 -0.2340
17351W        W34198   5.776  14.361   2.940 -0.1914 -0.2100  0.1033
17352W        W34199   4.671   1.938   0.965  0.1633  0.0525  0.2567
17353W        W34200   4.090   3.087  14.600 -0.2152  0.0636  0.0137
17354W        W34201   2.621   6.679  13.619 -0.1226  0.0420 -0.1091
17355W        W34202   4.089   4.267   2.679 -0.2784 -0.4523  0.0678
17356W        W34203   8.771   6.797  13.007 -0.1997  0.2395  0.0016
17357W        W34204  10.727   7.527  10.959 -0.1167  0.1996  0.1175
17358W        W34205  15.444   0.753  12.911  0.1613 -0.1866  0.2027
17359W        W34206  11.599   8.794  11.671 -0.0768  0.3599  0.1651
17360W        W34207   2.101   7.896  13.254 -0.1170 -0.2851  0.2667
17361W        W34208   5.602  11.611   4.622 -0.0638 -0.0969  0.1006
17362W        W34209  17.821  10.086  11.926  0.2168  0.0874 -0.1491
17363W        W34210   1.399  12.907  15.018 -0.0494  0.2565 -0.1381
17364W        W34211   5.140  14.212   0.973  0.2150  0.2304  0.0100
17365W        W34212   5.153   5.515   3.299  0.1211 -0.4019 -0.0262
17366W        W34213   2.714  12.459   5.115  0.0418 -0.3545 -0.0225
17367W        W34214   2.748   1.753   0.776  0.1731 -0.2538  0.1797
17368W        W34215   4.780  16.146  12.020 -0.2379  0.1567  0.0321
17369W        W34216   8.500   4.057   4.463 -0.1116 -0.3248 -0.0457
17370W        W34217   2.237  11.277   2.704  0.3358  0.0964  0.0703
17371W        W34218  12.501  10.453  14.699 -0.2555 -0.2647  0.2637
17372W        W34219  18.534  17.372   3.104  0.3367  0.0598  0.0605
17373W        W34220   7.165  17.895  13.808  0.2313 -0.0013 -0.2351
17374W        W34221  12.809  15.738  15.458 -0.2147 -0.2168  0.1089
17375W        W34222   6.517   0.469   4.807 -0.0206  0.0152 -0.1982
17376W        W34223   2.480   2.176  11.186 -0.1644  0.0790  0.2099
17377W        W34224   8.952   4.401   1.340 -0.0454 -0.1768 -0.1035
17378W        W34225  10.563   7.328  11.583  0.1623  0.0993  0.2373
17379W        W34226  16.946  16.816   1.136 -0.1262  0.1213  0.0087
17380W        W34227   6.260  11.369  15.338  0.3867  0.0099 -0.0223
17381W        W34228  12.128   3.536   3.776 -0.0237  0.1388 -0.1910
17382W        W34229  18.038  12.830  14.135 -0.3623  0.4533  0.1658
17383W        W34230  15.125  12.415   0.968 -0.1870 -0.1078  0.0089
17384W        W34231  14.875  17.284   1.308  0.2303 -0.0116 -0.0121
17385W        W34232   5.022  13.430   4.977  0.0152  0.1167 -0.4231
17386W        W34233   1.018   0.233   0.321 -0.1429 -0.0797  0.3532
17387W        W34234  15.243  14.111   5.082 -0.2757  0.1309  0.1414
17388W        W34235  13.534  15.925   5.399 -0.0273 -0.0091 -0.1389
17389W        W34236  12.385   7.894  12.921  0.3156 -0.2692  0.2621
17390W        W34237  11.713   5.598   4.700 -0.2687 -0.3358  0.3188
17391W        W34238   4.682   8.041  12.096  0.2224  0.0488  0.1828
17392W        W34239   4.701  12.322   3.081  0.3462 -0.2143  0.2411
17393W        W34240  15.674   1.739   3.758 -0.0945  0.3147 -0.1806
17394W        W34241   1.432  17.268  12.267  0.1937  0.2712 -0.0246
17395W        W34242   3.038  14.373   3.689  0.4639 -0.1478  0.0238
17396W        W34243   4.481   5.308   3.827 -0.0941  0.2098  0.0841
17397W        W34244   1.402   9.599   2.148 -0.0589  0.0010 -0.0006
17398W        W34245   0.005   2.159   4.476  0.2720  0.3960 -0.2673
17399W        W34246   0.098  14.065  11.818  0.0036  0.0804  0.0310
17400W        W34247   6.148  15.657   4.818 -0.2294 -0.2705 -0.0512
17401W        W34248   1.852  11.542   0.663 -0.0216 -0.3295  0.2020
17402W        W34249   9.972  12.500   3.675 -0.1848  0.0839 -0.4190
17403W        W34250  15.394   6.357  14.000  0.3667 -0.1586  0.3291
17404W        W34251   4.121   8.940   4.559  0.0660 -0.0911 -0.0719
17405W        W34252   7.577   2.065   0.160  0.1489  0.0935 -0.2973
17406W        W34253   5.321  16.384   5.571  0.0582  0.0619  0.1104
17407W        W34254  14.178   8.298   2.176 -0.2929 -0.1569 -0.1172
17408W        W34255   2.499  10.923  11.681 -0.1028 -0.1454 -0.0549
17409W        W34256  13.221   8.196   4.242 -0.1645 -0.1318 -0.0726
17410W        W34257  10.076   8.440  12.034 -0.1283 -0.0330  0.0036
17411W        W34258  12.235  11.367   4.680  0.2559 -0.1918 -0.4215
17412W        W34259   8.265   3.773  15.312  0.2165 -0.2896 -0.2101
17413W        W34260   1.166   5.951   3.023  0.1904  0.0713  0.1218
17414W        W34261   4.826  13.670  14.051 -0.1073  0.0864 -0.2156
17415W        W34262  18.193  15.926  14.864  0.0990 -0.0713 -0.2601
17416W        W34263   1.279   6.473   5.567  0.1495 -0.0749  0.0126
17417W        W34264  16.749   1.502  13.773  0.2987 -0.0143  0.0924
17418W        W34265  12.042   6.556   4.927 -0.3811  0.3622 -0.2390
17419W        W34266  15.393  16.252   5.476 -0.1743 -0.0862 -0.3917
17420W        W34267  11.288   5.978  12.160  0.1702 -0.0030  0.3380
17421W        W34268   4.553   5.863  14.191  0.0785  0.0971  0.1266
17422W        W34269   0.912   2.925   0.584  0.0251  0.2561  0.1311
17423W        W34270  12.852   8.824   0.597  0.0822  0.1740  0.0024
17424W        W34271  14.008  14.048   2.492  0.2636 -0.0872 -0.0105
17425W        W34272   0.215   7.732  13.450  0.0958 -0.0443 -0.1099
17426W        W34273  13.711   1.812  13.157  0.0327 -0.0675  0.5303
17427W        W34274   1.370  12.692  13.599 -0.1105 -0.0536 -0.3639
17428W        W34275  11.840   8.657   2.554  0.0887  0.4186 -0.0833
17429W        W34276   6.354  11.664  11.357  0.1348 -0.0873  0.4006
17430W        W34277  16.987  13.445  15.829 -0.1134 -0.1061 -0.1280
17431W        W34278  17.969   9.794  14.002  0.1103 -0.0729  0.2411
17432W        W34279  17.507  17.375   3.261  0.2368  0.0257  0.2210
17433W        W34280  17.636   7.408   0.951  0.1201  0.0433 -0.1573
17434W        W34281  11.641   9.594  11.224  0.0834 -0.0976  0.1005
17435W        W34282   5.521   2.674   3.250 -0.2015 -0.1976 -0.0579
17436W        W34283   0.061   8.534  15.340  0.1488 -0.3359 -0.2329
17437W        W34284   2.209  14.663  11.985 -0.1527 -0.1939  0.1412
17438W        W34285  10.890  13.815   4.031  0.3444 -0.0179 -0.1106
17439W        W34286   0.716   6.919   4.123 -0.0574 -0.0397 -0.0089
17440W        W34287   0.120   2.362  15.499 -0.1616 -0.2805 -0.0881
17441W        W34288   0.957   2.679   3.530 -0.3708 -0.2868 -0.0163
17442W        W34289   7.624  17.082  11.466  0.0866 -0.3252  0.0051
17443W        W34290   4.305   6.123   5.049 -0.3535  0.2647 -0.2403
17444W        W34291   7.032  17.412  13.624 -0.0682  0.3997  0.2126
17445W        W34292   1.129   8.447   2.744 -0.0335  0.0965 -0.2083
17446W        W34293   0.447   2.232   4.807 -0.0888 -0.1452  0.0802
17447W        W34294  11.489  10.067  10.956  0.0531  0.2670  0.1821
17448W        W34295  17.175   7.707  15.132  0.0792  0.0672 -0.1063
17449W        W34296   8.195  16.972  10.575 -0.2682 -0.0800 -0.0104
17450W        W34297   3.676   4.908   4.652 -0.1604 -0.0123  0.0120
17451W        W34298   0.727  17.963   0.236  0.2014  0.0235 -0.3052
17452W        W34299  12.817   6.175   3.735 -0.0528  0.3982  0.0785
17453W        W34300   9.888   4.473  14.246  0.0903  0.0336 -0.1467
17454W        W34301   6.170   1.252  14.376 -0.1554  0.3623  0.2198
17455W        W34302   7.624   8.948  11.415 -0.0800 -0.2498 -0.2186
17456W        W34303   1.661   8.168  14.552  0.1078  0.0119  0.0472
17457W        W34304  15.608  13.106  12.059  0.0055  0.1417  0.1165
17458W        W34305   2.159   0.683   3.334 -0.1910 -0.0458 -0.0299
17459W        W34306  15.350   7.988   3.697  0.3507 -0.1454 -0.2109
17460W        W34307  14.249   3.368  14.772 -0.2124 -0.1527  0.6674
17461W        W34308   6.009  10.447  15.401  0.0849 -0.2266  0.1663
17462W        W34309  12.029  14.487   3.166 -0.2069  0.0169  0.2898
17463W        W34310  14.276  14.838   5.927  0.0236  0.0014 -0.0925
17464W        W34311   4.486  13.938   0.152  0.1663 -0.1516  0.1764
17465W        W34312  12.812   0.326  12.700  0.1038 -0.0480 -0.0819
17466W        W34313   7.573  12.468   3.694 -0.1174  0.1373  0.1942
17467W        W34314  12.165   6.631   6.220 -0.1642  0.2938 -0.5545
17468W        W34315   6.869  15.737   3.020  0.1724 -0.0167 -0.2657
17469W        W34316   4.703  13.365   1.201  0.0562  0.2340 -0.1122
17470W        W34317  14.570   9.484  14.221 -0.1437  0.0273  0.2022
17471W        W34318  11.389  12.162  15.778 -0.3405 -0.1818  0.0678
17472W        W34319   3.110   0.395   2.998 -0.1260 -0.0818 -0.1170
17473W        W34320   4.163  18.109   1.154 -0.1999  0.2913  0.1899
17474W        W34321   5.761  13.813   4.908  0.1276  0.4872 -0.0672
17475W        W34322  14.300   1.471  13.300 -0.2238 -0.2731  0.0131
17476W        W34323   5.082   4.779   4.228 -0.1465 -0.2069 -0.0796
17477W        W34324   6.924  18.477  12.110 -0.3318  0.3858 -0.0137
17478W        W34325   2.427   7.912  15.788  0.1233  0.0569  0.1477
17479W        W34326  11.435  17.041  12.286  0.0816 -0.0274  0.0339
17480W        W34327  15.560   5.248   0.299 -0.0106 -0.0848 -0.1244
17481W        W34328   5.953   1.109  14.796 -0.0772 -0.0574 -0.1732
17482W        W34329  15.044  15.868  13.437 -0.0357  0.0542  0.2168
17483W        W34330  18.262  15.076   4.021 -0.0632  0.2758 -0.1062
17484W        W34331  11.953   6.765  15.550 -0.1623  0.1850  0.2794
17485W        W34332  16.417   7.741   4.254 -0.3177  0.1645  0.1744
17486W        W34333   4.940  16.330   2.623 -0.0888  0.0404  0.4606
17487W        W34334  11.909   6.784   5.729  0.1359 -0.0060 -0.0745
17488W        W34335  18.156   4.313   3.566  0.1837 -0.0585  0.0506
17489W        W34336   6.218   9.015  11.438 -0.0315  0.2068 -0.1435
17490W        W34337  15.322   2.117   4.792 -0.1938 -0.1945 -0.1220
17491W        W34338   3.042   4.259  15.210  0.1347 -0.1859  0.0325
17492W        W34339   3.937   3.246   2.656 -0.0298 -0.0303 -0.0211
17493W        W34340   6.601  11.299  14.234 -0.0708  0.2956  0.0313
17494W        W34341  14.876   7.214  13.145  0.3831 -0.1295  0.0496
17495W        W34342  16.105   5.441  15.615 -0.0289 -0.0268 -0.0054
17496W        W34343  13.091  12.607   4.919 -0.2165 -0.1202 -0.4042
17497W        W34344   2.645  18.467   3.770 -0.2592 -0.0096  0.2279
17498W        W34345  15.898   7.486   5.840 -0.2264  0.1114 -0.0126
17499W        W34346  11.290   4.401   4.492  0.2146  0.0124  0.1655
17500W        W34347   1.183  18.361   4.700 -0.1469 -0.1608  0.2242
17501W        W34348  10.701   8.320   0.084 -0.3474  0.2422 -0.1883
17502W        W34349   3.340  10.291   5.321 -0.0552 -0.2903  0.1962
17503W        W34350   1.829   8.835   2.183  0.0202 -0.0013  0.1190
17504W        W34351  14.098   2.706   0.217  0.0503  0.0182 -0.3274
17505W        W34352  10.436  12.109  12.341  0.0997 -0.0743  0.1655
17506W        W34353  11.553   3.986   4.392  0.0430 -0.1017 -0.0484
17507W        W34354  14.074   5.814  12.661 -0.0084 -0.0203 -0.0652
17508W        W34355   2.423   7.614   1.601  0.1999  0.1915  0.1903
17509W        W34356   1.333  10.559   2.668  0.1487  0.0610  0.2025
17510W        W34357  12.487   6.571   2.476 -0.2816  0.0010 -0.1361
17511W        W34358  14.379   0.759   3.422  0.1096  0.1104  0.0171
17512W        W34359  14.445   0.953   0.793 -0.0969 -0.1525 -0.0223
17513W        W34360   7.989  15.255   4.621  0.1154  0.1029  0.0566
17514W        W34361  12.344  17.198   1.018  0.1581  0.0576 -0.2456
17515W        W34362   6.293   2.149  15.852 -0.4373  0.1646 -0.0394
17516W        W34363  15.504  12.671  12.707  0.2800 -0.2001 -0.1576
17517W        W34364  13.633  16.562   0.733  0.0279  0.1905  0.0368
17518W        W34365   7.282  15.632  11.295 -0.2041 -0.0753  0.1943
17519W        W34366  12.638   9.081   4.504 -0.2276 -0.0792 -0.1287
17520W        W34367   6.179   2.235   4.982 -0.0244 -0.1449  0.1262
17521W        W34368  13.283   5.933   9.878  0.2639  0.1595 -0.3241
17522W        W34369  18.209   7.265   2.585  0.1020  0.0934 -0.3764
17523W        W34370  16.639   7.754  13.363  0.0816 -0.0807 -0.0773
17524W        W34371  13.381   0.098   5.084  0.0227 -0.0322  0.3087
17525W        W34372   5.413  18.500   5.972  0.1180 -0.1692 -0.2495
17526W        W34373  16.144   8.042  12.174  0.1486  0.0235 -0.0435
17527W        W34374   2.886   2.260  10.087  0.1807 -0.2352 -0.1079
17528W        W34375   7.344   7.568   4.169 -0.0913  0.3702  0.0633
17529W        W34376  17.476   3.089  13.575  0.1546 -0.1717  0.3253
17530W        W34377   7.854   2.660  14.643  0.0931  0.2763  0.1471
17531W        W34378  16.280  16.426  11.806  0.0285  0.0241 -0.1701
17532W        W34379  12.115   4.516   2.822 -0.2596 -0.0432  0.3015
17533W        W34380   0.151   1.435  15.157 -0.3871  0.1630  0.1264
17534W        W34381  12.815   9.444   3.790 -0.0174 -0.3163 -0.2128
17535W        W34382   7.581   7.340   4.689  0.4482 -0.0720 -0.0255
17536W        W34383  10.806  11.997  13.024 -0.0945  0.1864 -0.1062
17537W        W34384   0.163  16.323   2.834 -0.2002 -0.1721  0.0580
17538W        W34385  15.083   9.523   0.540  0.0585 -0.1272  0.0642
17539W        W34386   3.267   0.350  13.511  0.1580  0.0306 -0.2179
17540W        W34387   4.327  11.178   5.700 -0.1738 -0.1331 -0.2257
17541W        W34388   7.604  17.585  11.636 -0.1752  0.2369 -0.0011
17542W        W34389  10.581   6.784   2.159 -0.1877  0.0067 -0.0215
17543W        W34390   9.388  14.536  12.135 -0.1904 -0.1517 -0.1847
17544W        W34391  12.337   8.523  14.371 -0.0018 -0.0037 -0.0055
17545W        W34392   0.303  14.705   4.355 -0.1580 -0.0966 -0.1239
17546W        W34393   7.392  18.129   2.815  0.1699 -0.0053  0.1862
17547W        W34394  15.876  12.994   0.293  0.2982 -0.1843  0.0883
17548W        W34395  16.905  18.089   2.746 -0.1592 -0.0785  0.1613
17549W        W34396   6.484   5.649   2.433  0.0127  0.4611 -0.1352
17550W        W34397   4.075   1.173   1.569 -0.3944  0.0436  0.3691
17551W        W34398   8.890   1.970  14.651  0.3099  0.0476  0.0746
17552W        W34399  11.562   8.151   0.361 -0.0766  0.0398 -0.0611
17553W        W34400   2.832   5.903  14.151  0.1427 -0.1713 -0.1700
17554W        W34401   1.997  12.075   3.970  0.0963 -0.1820  0.1268
17555W        W34402   9.992   8.615   4.479 -0.1632 -0.2926 -0.4433
17556W        W34403  14.598   5.266   5.048  0.0604  0.2469  0.1588
17557W        W34404  13.394   9.470   5.567 -0.2267  0.2833  0.0114
17558W        W34405  16.800  11.305   5.338  0.0172 -0.1872  0.0785
17559W        W34406   8.211  12.084   1.535  0.0708 -0.0266 -0.0519
17560W        W34407   8.592  17.413  11.956 -0.1316 -0.2170  0.0735
17561W        W34408   0.712   5.782   2.841 -0.0040  0.1529 -0.0607
17562W        W34409   3.349  15.492   0.498 -0.0941 -0.2960  0.1115
17563W        W34410  10.529  14.052  11.277  0.0497  0.4118  0.3057
17564W        W34411   7.688  12.460  13.339  0.3393 -0.2854 -0.1706
17565W        W34412   1.269   8.335  15.780  0.0653  0.2528 -0.1894
17566W        W34413  14.622   9.569   0.286  0.2458 -0.2213  0.2208
17567W        W34414  14.792  13.127   0.196  0.0214  0.1439  0.3204
17568W        W34415  12.529  11.390   2.099  0.0454  0.0466  0.0987
17569W        W34416   0.428   5.902  13.329 -0.0884  0.1949 -0.0366
17570W        W34417  14.797  16.541  12.964  0.0561 -0.2354  0.0627
17571W        W34418  17.683  14.182  11.957  0.1319 -0.0479  0.1272
17572W        W34419  13.626   9.328   4.864  0.0855 -0.3085  0.1756
17573W        W34420   6.849   2.375   4.766 -0.0520  0.4688  0.0587
17574W        W34421  11.645  10.839   4.022 -0.0345 -0.2006  0.1052
17575W        W34422   0.491  17.207   3.201 -0.1145  0.1052 -0.4544
17576W        W34423   4.840   0.957   1.229  0.1560  0.1590  0.0160
17577W        W34424  17.371  13.579   1.800 -0.1372 -0.3862 -0.0816
17578W        W34425   6.593   9.426   4.816 -0.2968 -0.0038 -0.0589
17579W        W34426   8.006  16.398   1.299  0.0654 -0.2385 -0.1129
17580W        W34427  14.103  17.738  14.627  0.2508 -0.3183 -0.1632
17581W        W34428  17.164  14.268   2.236 -0.1596 -0.1985 -0.0487
17582W        W34429  17.608   8.937  14.227 -0.0887 -0.0424 -0.3806
17583W        W34430  15.762   1.331  13.319 -0.0072  0.0599  0.0103
17584W        W34431   9.944  12.803   2.842  0.1392  0.1709 -0.2169
17585W        W34432   6.693   5.483  13.527 -0.0400 -0.0059  0.2282
17586W        W34433   6.008  13.182   5.519 -0.2419 -0.0070  0.1707
17587W        W34434  10.736  11.313  14.895  0.0557 -0.2042 -0.1083
17588W        W34435   1.119  18.476  12.695 -0.3895 -0.0218 -0.1824
17589W        W34436   7.163  11.341  15.404 -0.2135 -0.2299  0.1034
17590W        W34437  17.082  17.489  12.430 -0.1964 -0.0757 -0.1895
17591W        W34438  13.303  13.556  15.148  0.0803 -0.1221 -0.0655
17592W        W34439   7.546   0.316  11.414 -0.0640 -0.0421  0.0266
17593W        W34440  17.314   9.451   0.328  0.0981  0.0174 -0.1510
17594W        W34441  17.769  11.944  14.386  0.2468  0.2862 -0.1698
17595W        W34442   5.715   7.497  14.144 -0.1881  0.0315 -0.1236
17596W        W34443   3.067   5.600   3.012  0.1848  0.2586  0.4705
17597W        W34444  13.357  10.118  14.576  0.0271 -0.1070  0.0812
17598W        W34445   1.346   6.833  10.756 -0.1584  0.4171 -0.1848
17599W        W34446   1.127   4.245   0.657  0.0309  0.1517  0.2166
17600W        W34447   4.367   0.488  15.448  0.2236 -0.0322 -0.1653
17601W        W34448  18.301  16.968   1.388 -0.1059  0.1041 -0.1112
17602W        W34449  16.367   6.227  15.086  0.4018  0.2384 -0.0971
17603W        W34450  10.125   4.663   4.008  0.0231 -0.2062 -0.2988
17604W        W34451   4.209  17.914  11.256 -0.1518 -0.0418 -0.2205
17605W        W34452   0.276  17.364   0.517  0.0313  0.4242  0.0106
17606W        W34453  10.609  13.468   4.731 -0.2674 -0.2461  0.1499
17607W        W34454  12.029  15.537   4.005  0.1234 -0.1676  0.0799
17608W        W34455  17.076   8.010   1.530 -0.1010 -0.3772  0.3724
17609W        W34456  18.027   7.004   5.411 -0.2238  0.0324  0.0559
17610W        W34457   6.735  17.462   1.820 -0.1401 -0.0956  0.2426
17611W        W34458   1.411   6.238  13.268 -0.2320 -0.3382 -0.0333
17612W        W34459  13.560   1.115  15.624  0.0290  0.1308 -0.0966
17613W        W34460  17.245   5.984  15.065  0.0834 -0.0131  0.4369
17614W        W34461   2.007   6.716  11.477 -0.0170 -0.2862  0.1126
17615W        W34462   7.598  14.117   0.010  0.3717  0.0240 -0.3807
17616W        W34463   4.033   5.790   2.499 -0.1710 -0.0243  0.1212
17617W        W34464  15.482   2.941   0.795 -0.2914  0.0967 -0.1294
17618W        W34465   8.510  17.563  12.789 -0.4593 -0.3670  0.1700
17619W        W34466   1.376  17.803  12.239 -0.1115 -0.0394 -0.1383
17620W        W34467  11.118   0.071   3.052 -0.2152  0.0018 -0.1724
17621W        W34468  17.464   8.459   2.763  0.3600 -0.1683 -0.0493
17622W        W34469   0.048  17.646   4.080 -0.2876 -0.1761 -0.1361
17623W        W34470   6.316  12.255   2.249  0.0487 -0.1677  0.0557
17624W        W34471  18.334  14.730   1.585  0.2352 -0.1941  0.0122
17625W        W34472   1.728  14.775   2.677  0.0550  0.1891  0.0997
17626W        W34473   6.376  18.314   5.880  0.2429  0.2022  0.3514
17627W        W34474  10.357  17.618   1.501  0.0031 -0.1581 -0.2617
17628W        W34475  13.086   5.426  14.254  0.0535 -0.1442 -0.1553
17629W        W34476  14.884  17.294   2.414 -0.0358 -0.1152  0.1467
17630W        W34477  13.332   4.336   2.048 -0.0350 -0.0288  0.1326
17631W        W34478   0.139  13.789   3.912  0.0672  0.0428  0.2319
17632W        W34479   6.106   6.229   0.322  0.0891 -0.2540  0.0080
17633W        W34480   3.353   3.762  14.279  0.1426  0.1947 -0.3544
17634W        W34481   2.948   8.949   0.985  0.2047  0.0083 -0.0786
17635W        W34482   9.839  18.006  11.730  0.1048  0.0865  0.0812
17636W        W34483   1.014   6.369   0.414 -0.0602 -0.1588 -0.1443
17637W        W34484   9.066   6.063  11.228  0.1334  0.0840  0.0979
17638W        W34485   9.469  17.721   1.862  0.1702  0.2250 -0.0388
17639W        W34486   3.415   9.286  14.211 -0.3120 -0.1926 -0.1772
17640W        W34487   3.884  11.510  12.667  0.0179 -0.2075 -0.1505
17641W        W34488   7.363  12.419  14.390  0.0814  0.1435 -0.1575
17642W        W34489   9.409   6.074  14.953 -0.1427 -0.2050  0.1955
17643W        W34490   5.701  13.629  14.496  0.0377  0.1299  0.0164
17644W        W34491   9.271  12.955   1.521  0.1622 -0.0648  0.0639
17645W        W34492  17.659  16.806  15.057  0.4429 -0.1269  0.2012
17646W        W34493   8.003  15.588  12.363  0.5249  0.0500  0.0566
17647W        W34494   6.100   6.333  11.998  0.0495  0.0380  0.3216
17648W        W34495   1.952   1.955   1.250  0.2243  0.1455  0.0477
17649W        W34496   6.676   3.629   5.047  0.2643  0.4728  0.0913
17650W        W34497  17.486  12.740   0.093  0.0518  0.1537 -0.0029
17651W        W34498   7.102   7.235   3.774 -0.0244  0.1779 -0.1072
17652W        W34499  18.069   6.782  12.709  0.0139 -0.3652  0.1178
17653W        W34500  12.488   2.706  14.344  0.1344 -0.1514  0.1696
17654W        W34501   4.661  17.608  14.440  0.3115 -0.2752 -0.1995
17655W        W34502  11.967   2.232   3.496  0.2871 -0.0828 -0.0057
17656W        W34503   5.323  16.127  11.246  0.0724 -0.2276 -0.1916
17657W        W34504  10.576   2.778   2.017  0.0198  0.4001 -0.3504
17658W        W34505  15.993  16.329   1.812 -0.0654  0.0537 -0.0265
17659W        W34506   4.194   3.054   5.884 -0.2837  0.0648  0.0629
17660W        W34507   0.029   3.415  12.862  0.1534  0.1621 -0.0384
17661W        W34508   5.996  11.735   5.331 -0.2888 -0.1258 -0.1025
17662W        W34509   1.886  17.921   3.746  0.0594  0.0060 -0.0628
17663W        W34510   0.936   5.361  14.426 -0.0517 -0.1453  0.5031
17664W        W34511   3.788  11.231  14.811 -0.2531  0.0248 -0.1037
17665W        W34512  11.491   7.023  14.770 -0.0885  0.1382  0.0472
17666W        W34513  13.642   8.310   1.855  0.3126 -0.1094 -0.2148
17667W        W34514   8.806   8.294  14.650 -0.1493  0.0281  0.3139
17668W        W34515   7.388   1.560  11.006 -0.1232 -0.0495  0.3266
17669W        W34516   0.010   8.328  14.880 -0.1305 -0.1973  0.0758
17670W        W34517   2.246   3.594   1.783  0.0397 -0.0513 -0.1426
17671W        W34518  11.853   9.348  13.902 -0.0829 -0.0960 -0.0292
17672W        W34519  16.696  17.941  15.111  0.0154  0.2967  0.3016
17673W        W34520   2.143  17.663   2.285  0.1819  0.1403  0.0692
17674W        W34521  12.802   8.266  14.377  0.0297 -0.0104 -0.2922
17675W        W34522  17.102  12.802  11.758  0.0422 -0.1266  0.1280
17676W        W34523  10.205   7.136  13.167  0.2717  0.2002  0.0655
17677W        W34524   1.410   7.416   1.167  0.0892 -0.0152  0.0620
17678W        W34525   2.716  11.220   0.495  0.0836  0.0581  0.0258
17679W        W34526  15.776  13.972  12.562 -0.1597  0.0671  0.1859
17680W        W34527   0.995   7.814   1.897 -0.1371 -0.1789 -0.0500
17681W        W34528   6.385   6.981   3.074  0.3407 -0.2803 -0.2098
17682W        W34529  16.769  13.920  15.928  0.1690 -0.0135 -0.1135
17683W        W34530  14.383  11.566  15.830  0.4796 -0.0428 -0.0233
17684W        W34531   6.546   6.104  12.512  0.1035  0.0153 -0.0803
17685W        W34532  17.323  13.798  14.243  0.2770 -0.0570 -0.0301
17686W        W34533  17.447   1.321   5.381  0.0654  0.0575 -0.0904
17687W        W34534  10.041   9.860   5.415 -0.0294  0.2404 -0.3253
17688W        W34535  16.872   1.422   3.675 -0.0607 -0.0006 -0.2674
17689W        W34536   9.714   5.056   5.024  0.0333 -0.0754 -0.2085
17690W        W34537  17.770   4.926  14.121  0.0315 -0.2611 -0.0719
17691W        W34538   0.730   5.994  14.688 -0.0916 -0.0549 -0.2940
17692W        W34539  11.067   8.220   3.909 -0.1516  0.1047 -0.2754
17693W        W34540   9.281   8.502   5.018 -0.1382 -0.1456 -0.1399
17694W        W34541  11.773  15.322  14.776  0.0428  0.2088  0.2864
17695W        W34542   9.359  11.664  13.855  0.2753  0.0619  0.0187
17696W        W34543   3.237   3.728  12.966  0.1451  0.0660  0.3196
17697W        W34544   3.274   5.237   4.759 -0.0870  0.0492  0.2358
17698W        W34545  17.679  16.110   3.082  0.1405 -0.2403  0.3272
17699W        W34546  11.351   5.231  15.853  0.1046  0.4022 -0.0442
17700W        W34547   4.005   1.007  12.471  0.2124  0.1856 -0.3483
17701W        W34548   0.088   8.741  12.503 -0.0180  0.0307 -0.1339
17702W        W34549  17.789   2.969  14.396 -0.1269  0.2309 -0.2454
17703W        W34550  10.915   7.747  14.396 -0.1193 -0.1122 -0.0214
17704W        W34551   9.163   6.605   1.080  0.2592 -0.0194  0.1032
17705W        W34552  15.843  14.468  11.755 -0.2014 -0.1665 -0.2761
17706W        W34553  15.408  16.403  14.773 -0.0398 -0.0068 -0.0324
17707W        W34554  16.273   3.658   1.071  0.0926 -0.1901 -0.0028
17708W        W34555  10.345  15.143   2.549  0.1106 -0.0062  0.2297
17709W        W34556   2.742  16.774   4.331  0.0271  0.2855 -0.0215
17710W        W34557   8.568   2.690   0.785  0.0739  0.1569  0.1348
17711W        W34558  16.796  13.949  13.516 -0.3746  0.2535 -0.0322
17712W        W34559  13.093   8.095  11.177  0.0836  0.1088 -0.0726
17713W        W34560   5.591   3.372   0.185 -0.1814  0.0012 -0.0638
17714W        W34561   5.610  15.876   3.045  0.2211  0.1951 -0.0157
17715W        W34562   1.182   2.742  14.135  0.1297  0.1957  0.1521
17716W        W34563  10.512   2.071  13.288  0.0320  0.2430 -0.0959
17717W        W34564   3.265   4.292   3.045 -0.0165 -0.0344  0.2240
17718W        W34565   5.066  15.950   4.166  0.0447 -0.0347 -0.0474
17719W        W34566   2.545  14.408   4.289  0.0464  0.0745  0.3433
17720W        W34567  12.720  16.682   0.250 -0.1146  0.0554  0.0568
17721W        W34568  14.681   0.264   0.202 -0.0113  0.3117  0.0181
17722W        W34569   9.668   6.518   5.669 -0.1021 -0.0067 -0.1141
17723W        W34570   7.651  18.292  11.176 -0.0654 -0.0323 -0.0094
17724W        W34571  12.751   6.208   2.237  0.1569  0.2199  0.0001
17725W        W34572  17.380   0.076  10.993  0.2192 -0.2250  0.2730
17726W        W34573  16.141   2.317   1.151 -0.1109  0.0070  0.1326
17727W        W34574   6.200  11.249  12.153 -0.1330  0.0820 -0.0698
17728W        W34575   0.693  14.375  10.657  0.0342  0.1763 -0.0567
17729W        W34576  14.932   1.390   0.723 -0.0913 -0.0459 -0.3750
17730W        W34577   2.248  12.016   3.556 -0.1301 -0.0812  0.2649
17731W        W34578  14.943   5.182   1.213 -0.1642  0.0291  0.1866
17732W        W34579  18.184  10.156   4.319 -0.1223 -0.1392  0.1730
17733W        W34580   3.672  12.494  14.586  0.2251 -0.0339 -0.4241
17734W        W34581  14.114  16.222   2.885 -0.1105  0.2478  0.0348
17735W        W34582   8.181   1.618  11.751 -0.1114  0.3671 -0.2309
17736W        W34583  15.883   0.872  13.196 -0.0414 -0.2480 -0.0800
17737W        W34584  16.735   7.267   3.011 -0.2379 -0.0174  0.0378
17738W        W34585   3.453   9.688   4.065  0.3547  0.1217 -0.0846
17739W        W34586   9.886  12.676  11.811  0.0369  0.0180  0.2455
17740W        W34587  14.181   2.132  13.967 -0.1262 -0.2359  0.1014
17741W        W34588   5.872   8.461   4.325  0.0788  0.1567 -0.1255
17742W        W34589  11.761   6.206   3.720 -0.3160  0.0374 -0.2862
17743W        W34590   4.456  10.294   2.301 -0.0768  0.2380 -0.1003
17744W        W34591   0.495   8.961   3.596  0.0100 -0.0424  0.2875
17745W        W34592   3.498   8.297   4.286 -0.0316 -0.1250 -0.3145
17746W        W34593   3.834   8.288  13.598 -0.2962 -0.2062 -0.2017
17747W        W34594  17.546   8.319   4.176  0.3766  0.1101  0.3043
17748W        W34595   7.135  12.965  13.903  0.0590 -0.1146  0.2767
17749W        W34596   4.633   7.506   4.760  0.0708 -0.1025  0.1693
17750W        W34597  17.080  13.288   2.111  0.4520  0.1914 -0.2214
17751W        W34598   2.242   3.991  13.749  0.0280  0.2162  0.0815
17752W        W34599   6.428   2.014  14.408  0.0568  0.0179 -0.0229
17753W        W34600   4.205   7.795  12.911 -0.3576  0.0993  0.0741
17754W        W34601  11.474   7.224  10.090  0.3722  0.0376 -0.0168
17755W        W34602   0.613   5.232  12.117  0.1445 -0.0717 -0.0222
17756W        W34603   1.743  17.916   2.020 -0.1888 -0.1196 -0.2560
17757W        W34604  11.971   2.578  13.599  0.0689 -0.0990  0.1063
17758W        W34605   1.722   7.041   3.274  0.1248 -0.1639  0.1305
17759W        W34606   0.735  12.583   4.631  0.0411 -0.0453 -0.0536
17760W        W34607  13.165  15.737   0.670  0.0402 -0.1914  0.5300
17761W        W34608   5.577   9.246   0.229 -0.2205  0.0854  0.0634
17762W        W34609  17.514   9.661   4.213 -0.2097 -0.3823  0.0088
17763W        W34610   9.222  17.703  12.782 -0.0088  0.0536  0.0350
17764W        W34611   0.316   4.036   4.904 -0.0226  0.2808  0.2100
17765W        W34612   3.399   1.713  13.818 -0.0190  0.1767  0.4257
17766W        W34613   8.119   5.002   2.265  0.1467  0.2724 -0.0372
17767W        W34614   7.968  11.458   5.263 -0.0756 -0.0131 -0.0754
17768W        W34615   5.685   1.208  12.166  0.0614 -0.0629 -0.1589
17769W        W34616  18.252   0.840  12.332 -0.2607 -0.7529 -0.2560
17770W        W34617   9.617   7.402  13.289  0.1478  0.2394  0.1598
17771W        W34618  13.731   0.714   4.598 -0.0714  0.0073 -0.0241
17772W        W34619   3.634  15.817  12.254 -0.1177  0.3772 -0.2500
17773W        W34620   6.458   5.987  14.884 -0.0134  0.1464 -0.3777
17774W        W34621   5.868  16.977  14.938  0.0373  0.1999 -0.0276
17775W        W34622   2.041  17.842  14.826 -0.1396 -0.1169 -0.0719
17776W        W34623   1.987  10.183  13.303 -0.1532 -0.2537  0.2479
17777W        W34624   5.938  16.891  14.114  0.1404 -0.0759  0.1377
17778W        W34625   7.608   0.142  13.111 -0.1044 -0.2958  0.3683
17779W        W34626  15.685  18.446  13.372  0.4693  0.0087 -0.0788
17780W        W34627   4.692  16.889  10.170  0.0122 -0.0563 -0.1243
17781W        W34628  14.860   9.833   3.045  0.0246 -0.2194  0.4305
17782W        W34629  16.012   4.994   4.052 -0.0136 -0.4492  0.0542
17783W        W34630  12.239  16.020   3.985 -0.2683  0.0844 -0.0403
17784W        W34631   6.273   7.487   2.303  0.1507  0.1767  0.0988
17785W        W34632  10.367  17.214   6.087  0.0175 -0.1591  0.0822
17786W        W34633   5.043  16.568   4.829  0.1941  0.1099 -0.3885
17787W        W34634   1.834  14.646   4.991  0.0639 -0.3169 -0.0699
17788W        W34635   3.151   9.575   6.987 -0.1482 -0.1815  0.2058
17789W        W34636  17.715   6.333   5.767  0.1903  0.1251 -0.1166
17790W        W34637   5.631   3.788  12.877  0.2070  0.1456  0.1294
17791W        W34638   3.465  14.190  14.330  0.3206  0.2735 -0.0031
17792W        W34639   4.852   1.972  15.545 -0.1920 -0.0099  0.1352
17793W        W34640   9.614   5.223   2.536 -0.2053 -0.1138 -0.1514
17794W        W34641  10.569  17.509  12.193 -0.2624  0.1051  0.0781
17795W        W34642   8.266   0.292  14.147 -0.2024 -0.3761 -0.0503
17796W        W34643   0.734  13.012  12.848 -0.0180 -0.0265  0.1992
17797W        W34644   5.926   7.064   3.267  0.1355  0.1406  0.1547
17798W        W34645  14.039  16.938   4.463 -0.2860  0.0827 -0.2036
17799W        W34646  10.854  13.315   4.259 -0.1611  0.1139 -0.0927
17800W        W34647   5.982  11.918   2.991  0.1127  0.2664  0.2035
17801W        W34648   0.550  11.057   0.637  0.2786 -0.2258  0.3645
17802W        W34649  17.819   6.154   2.187  0.0313 -0.0441  0.0171
17803W        W34650   9.540  14.627  14.720  0.1489 -0.0165  0.3568
17804W        W34651  13.333   7.739   2.255 -0.0807  0.0470 -0.0192
17805W        W34652   3.667  17.811   3.334  0.3319  0.1061 -0.0431
17806W        W34653   6.653   4.123  12.013  0.1060 -0.1203 -0.4779
17807W        W34654  10.172   4.390   1.796  0.1173 -0.3796 -0.2667
17808W        W34655  16.295   6.101   1.655  0.3017 -0.1905 -0.0979
17809W        W34656  18.066  11.190  12.266 -0.0322 -0.1741  0.0941
17810W        W34657  10.505  17.727   5.250  0.0121  0.1619 -0.1956
17811W        W34658   8.982   2.233   5.754 -0.0236 -0.0419 -0.5702
17812W        W34659   6.052   0.847  13.071  0.0044 -0.1171  0.1273
17813W        W34660   8.663  11.717   2.774 -0.0399  0.0563 -0.2317
17814W        W34661   2.424   4.439  12.735 -0.1710 -0.1684  0.1441
17815W        W34662  12.610   3.279  10.878  0.0319 -0.3436 -0.1107
17816W        W34663   8.757  10.568   3.866  0.0405 -0.0807  0.3571
17817W        W34664  15.567  17.205  11.128  0.1282  0.2007 -0.0740
17818W        W34665   0.455  13.463   1.168 -0.0980 -0.1707 -0.0917
17819W        W34666  17.504  14.456   3.748  0.0914  0.3223  0.0174
17820W        W34667  15.905   6.835   4.986 -0.0883  0.0216 -0.0791
17821W        W34668   2.375   2.920   3.004 -0.2192  0.1549 -0.0110
17822W        W34669  10.325   1.076   3.487 -0.0883 -0.4958 -0.0130
17823W        W34670   1.323   7.905  15.260  0.4334 -0.1884 -0.2062
17824W        W34671  17.971   5.952  14.975  0.2690  0.0621  0.0017
17825W        W34672   8.021   9.179   3.142 -0.4656  0.2608 -0.0567
17826W        W34673  18.117   9.350   3.263 -0.1991 -0.3186 -0.2334
17827W        W34674  13.300  10.461   0.953 -0.2264  0.3031  0.3918
17828W        W34675  13.862  10.440  11.273  0.2099  0.0958 -0.1441
17829W        W34676  11.420  13.666  13.015 -0.0358 -0.1300  0.2271
17830W        W34677   0.143  13.669   0.325  0.1359 -0.2237 -0.1711
17831W        W34678  10.461  11.687   4.691 -0.0067 -0.0146 -0.2455
17832W        W34679   8.147   9.879   4.278 -0.1767 -0.0577 -0.3776
17833W        W34680   6.963   5.809   2.313  0.1313  0.4221  0.1736
17834W        W34681   2.622  18.234  10.949  0.0368  0.2819  0.0279
17835W        W34682  13.533   2.914  11.087  0.0268 -0.2192  0.0760
17836W        W34683   1.792  10.089  12.787  0.2025  0.1818  0.1030
17837W        W34684  12.486  17.541  10.983 -0.1748  0.1319 -0.0583
17838W        W34685   5.497  12.652   3.832 -0.4130  0.1256  0.0108
17839W        W34686  15.615   6.275  15.861  0.1984  0.1000 -0.0871
17840W        W34687   1.127   3.458   1.824 -0.1466  0.0422  0.0445
17841W        W34688   3.914   8.678   5.345 -0.1362 -0.1405  0.1128
17842W        W34689  10.733   4.537  13.030 -0.0871  0.1280  0.1052
17843W        W34690   5.656  10.290   1.027  0.3506 -0.0197 -0.0760
17844W        W34691   0.840  13.185  11.975 -0.1331  0.0913 -0.1541
17845W        W34692   9.236  14.984  14.244 -0.0657  0.2260 -0.0695
17846W        W34693   1.991  14.836  14.635  0.0199  0.0270  0.3242
17847W        W34694   8.914   4.260  11.991 -0.2554  0.1757  0.1519
17848W        W34695   4.554  16.096   1.773 -0.4693  0.1157  0.0205
17849W        W34696   6.577  15.745   0.199  0.0838 -0.0412  0.0454
17850W        W34697   5.533   1.933   0.688 -0.0175  0.1155 -0.0192
17851W        W34698  13.165  17.636   1.496 -0.1943 -0.1169  0.0944
17852W        W34699  14.816   5.745  13.994  0.0622 -0.2172 -0.1006
17853W        W34700  15.021   0.514  11.382 -0.1451  0.2758 -0.0072
17854W        W34701  17.741  14.281  14.499 -0.2483 -0.1348  0.4871
17855W        W34702   8.394   1.684  12.509 -0.2260  0.2258  0.0469
17856W        W34703   8.074  12.793   2.845  0.2630  0.2477  0.1827
17857W        W34704  14.215  14.559  11.482 -0.0203 -0.0721  0.0519
17858W        W34705  14.486   7.582   3.340 -0.3424  0.1441  0.0201
17859W        W34706  11.908  11.680   4.961 -0.0499 -0.1182  0.2811
17860W        W34707   4.790   2.839  14.135  0.1458  0.2910  0.0122
17861W        W34708   9.986  11.344  11.486 -0.2996 -0.2692 -0.3211
17862W        W34709   1.738   0.898   3.732 -0.0651  0.1711 -0.1471
17863W        W34710   6.846   9.439   2.509  0.0469  0.1763  0.2526
17864W        W34711  10.741  12.445  14.648  0.1218 -0.1683 -0.0065
17865W        W34712  15.907   2.946   1.144  0.0173 -0.0410  0.0775
17866W        W34713  13.890   7.937   3.023  0.0353  0.0469 -0.0080
17867W        W34714   5.910  14.937  10.339  0.3973 -0.1386 -0.0747
17868W        W34715   1.253   6.675  14.979 -0.1327 -0.2400  0.0961
17869W        W34716  12.113  16.593   3.750 -0.1973 -0.1520  0.1727
17870W        W34717   2.611   0.550   3.149  0.2759 -0.0443  0.1921
17871W        W34718   8.248   2.596  13.464  0.3272  0.0094 -0.0759
17872W        W34719  15.025   2.118  12.913 -0.3026  0.0442 -0.0610
17873W        W34720   0.102   6.755   2.356 -0.1851 -0.2919  0.0317
17874W        W34721  17.752   5.915   4.497 -0.4085 -0.0619 -0.0342
17875W        W34722  18.511   6.280  12.635 -0.1750  0.4035  0.2775
17876W        W34723   4.303  15.679  12.926  0.0031  0.1057 -0.4131
17877W        W34724   3.016  17.896  11.307 -0.0762 -0.1474  0.0081
17878W        W34725  12.332  13.396   4.346 -0.1062  0.3361  0.0516
17879W        W34726   4.682  11.196  15.595 -0.2917  0.0505 -0.1317
17880W        W34727   7.495  13.780  14.976  0.0117 -0.0350  0.0006
17881W        W34728  17.306   7.186   1.379 -0.0789  0.3176  0.0416
17882W        W34729   3.370  11.831  13.510 -0.0179  0.0640  0.1890
17883W        W34730  17.782  13.034   4.851  0.2004  0.0047 -0.5572
17884W        W34731  16.883  16.993  14.504  0.2212 -0.0502  0.0580
17885W        W34732  17.815   2.951   5.805  0.2915 -0.2684 -0.0982
17886W        W34733   1.041  16.637  12.606 -0.1353  0.4446  0.0715
17887W        W34734  14.024   2.888  10.986 -0.1127 -0.1130 -0.2491
17888W        W34735   7.060  18.032   0.409 -0.2035  0.3192  0.0720
17889W        W34736  16.087  14.029   3.266  0.0514  0.1783 -0.2476
17890W        W34737  11.633   6.005  11.754  0.1375  0.1850 -0.0048
17891W        W34738   7.900   5.736   4.222 -0.1782 -0.0107 -0.0323
17892W        W34739   5.991   0.466  12.215 -0.3252  0.3003 -0.0053
17893W        W34740   4.047   3.543   3.117 -0.0501  0.1530  0.0971
17894W        W34741   5.326  14.769   1.500  0.0079 -0.0795  0.1362
17895W        W34742   5.571   6.128  10.926 -0.2994 -0.4721  0.0309
17896W        W34743  10.432   1.053   3.950  0.0821 -0.0333  0.0832
17897W        W34744  14.523   0.902   4.047  0.0656  0.0456  0.2325
17898W        W34745   0.065  12.380   1.644  0.0765  0.0717 -0.2236
17899W        W34746   7.583   0.993  13.096 -0.0316 -0.1980  0.1682
17900W        W34747   3.021   9.527   4.258 -0.2116 -0.0675  0.1196
17901W        W34748  16.887  14.505  15.616 -0.1962  0.0534 -0.0800
17902W        W34749  13.882   6.350  11.961  0.2168 -0.3293 -0.0050
17903W        W34750   4.849  15.427   3.042 -0.0663 -0.0315 -0.0078
17904W        W34751  14.336   6.425  12.038 -0.2036  0.0655 -0.3711
17905W        W34752  16.792   2.765  10.202  0.1952  0.0072  0.1889
17906W        W34753   4.229  16.126   2.780 -0.0524 -0.1243  0.2892
17907W        W34754   8.621   5.843   2.749 -0.0276  0.2856  0.2368
17908W        W34755   9.209   6.005  10.260 -0.0123  0.2025  0.0663
17909W        W34756   1.776  17.070   0.818 -0.0144 -0.1964 -0.1901
17910W        W34757   2.121   2.282  15.702  0.0539 -0.0606  0.2036
17911W        W34758  13.786  12.330   3.133  0.0885 -0.3922  0.1778
17912W        W34759   5.549  14.529   0.986 -0.3718  0.0827  0.2008
17913W        W34760   8.390   1.538  13.494  0.2907  0.2393 -0.1709
17914W        W34761   6.217   5.136  12.789  0.1813  0.1546 -0.0397
17915W        W34762  12.258   7.009   1.483  0.2792 -0.0507 -0.0830
17916W        W34763  14.146   8.756  11.457  0.0326 -0.3125  0.2266
17917W        W34764  16.468  16.218  14.303  0.2486  0.1376 -0.1355
17918W        W34765   8.071   2.016  15.282 -0.4847  0.5114 -0.1642
17919W        W34766  18.272   3.770  13.191 -0.2666  0.3855 -0.3695
17920W        W34767   4.900  12.352   1.154  0.2477 -0.3400 -0.2660
17921W        W34768  12.330   7.180   3.134  0.1492 -0.0088 -0.1815
17922W        W34769   5.156  10.063  14.273  0.0298 -0.0308 -0.0350
17923W        W34770  12.861  10.844   2.744  0.1134 -0.0537  0.1869
17924W        W34771   2.903   3.116   0.498 -0.1558  0.0319 -0.0091
17925W        W34772  13.080   7.062  15.600  0.1196  0.2436 -0.0948
17926W        W34773   8.830   6.181  15.543  0.1146  0.1317  0.0169
17927W        W34774  17.965  11.132  14.048 -0.1094  0.2702  0.0405
17928W        W34775   9.915   0.190  13.887 -0.1937 -0.2296 -0.1597
17929W        W34776  13.866  17.173   3.482 -0.2263 -0.1426  0.0999
17930W        W34777  11.222  13.512   0.399  0.1283 -0.3304  0.1408
17931W        W34778   7.167  11.059  12.502  0.0102 -0.0181  0.0644
17932W        W34779  17.853   2.438   0.752  0.0374 -0.0905 -0.0666
17933W        W34780   8.956   9.353  12.823  0.0577  0.1228  0.0839
17934W        W34781  13.523   2.424   3.256  0.0345 -0.3948 -0.1259
17935W        W34782   4.433   5.554   3.385  0.2580  0.0869 -0.0195
17936W        W34783   3.460   4.629  12.507  0.1358  0.1489 -0.2265
17937W        W34784   7.177   4.373  13.399  0.1852 -0.1747 -0.0594
17938W        W34785  10.471   7.351  14.234  0.3325  0.1600 -0.2018
17939W        W34786   7.996  12.478  13.842 -0.2412 -0.0736  0.0264
17940W        W34787   5.423   8.438  14.873  0.1170  0.0178  0.0984
17941W        W34788  17.752  17.724  13.923 -0.2156  0.1403 -0.0579
17942W        W34789  11.615  12.519  14.467 -0.1072 -0.2525 -0.1533
17943W        W34790  11.621  15.365  14.121 -0.1265  0.1062  0.0382
17944W        W34791  15.831   1.509  13.866  0.3240 -0.0215  0.0631
17945W        W34792  12.362   8.052  15.281  0.1635  0.1350 -0.1603
17946W        W34793  17.043  13.684   4.822  0.0996 -0.1177 -0.1361
17947W        W34794   3.186  16.606  15.148  0.0766  0.1296  0.2618
17948W        W34795   1.367  10.125   2.930 -0.2056  0.1950  0.0303
17949W        W34796  18.076   2.349   2.800 -0.0829 -0.0951  0.1272
17950W        W34797  13.947  12.109   0.388 -0.2952 -0.0719 -0.0809
17951W        W34798   1.342  12.625  14.434  0.1428  0.3442  0.2307
17952W        W34799  15.357   8.353  11.216  0.2485 -0.0219 -0.1335
17953W        W34800   2.199   5.105  15.482 -0.1940  0.1681 -0.0985
17954W        W34801   9.660  18.408   5.363 -0.2898 -0.3135  0.0234
17955W        W34802   0.439   9.112   4.386 -0.0186  0.0744 -0.0925
17956W        W34803  16.522   6.310   5.254 -0.1566 -0.3397 -0.3728
17957W        W34804  18.356   3.445  12.401 -0.1139  0.3544  0.0943
17958W        W34805  14.349   5.447  14.076 -0.0372  0.2557 -0.1622
17959W        W34806  14.661   9.897  15.867  0.0065  0.2143  0.4803
17960W        W34807   2.389   8.698   2.078 -0.1896 -0.2965  0.1199
17961W        W34808  10.289  15.769   0.645  0.2823 -0.0686 -0.0510
17962W        W34809   2.282  11.740  12.408 -0.1783  0.0732 -0.3693
17963W        W34810  18.199   5.730  11.891 -0.1516 -0.0916 -0.1351
17964W        W34811   2.146   9.301  13.349  0.2964  0.3194  0.3342
17965W        W34812   4.793   1.719   3.236  0.1307 -0.0299  0.0662
17966W        W34813  13.213   4.255   5.042  0.1491 -0.2679 -0.1597
17967W        W34814   5.152   3.652  12.208  0.0714 -0.4593  0.1066
17968W        W34815  13.373  12.287   3.506 -0.1535  0.2963 -0.1531
17969W        W34816   2.430  14.640   1.472  0.0577  0.1853 -0.1856
17970W        W34817   2.978  10.885   0.835  0.1933  0.1991  0.0132
17971W        W34818  14.133   0.457  13.057  0.1408  0.0777 -0.1651
17972W        W34819   0.609   4.160  11.668  0.1023 -0.0928  0.2394
17973W        W34820   0.657   1.930  12.452  0.0417  0.0608 -0.1030
17974W        W34821  13.800   3.343  14.929 -0.0925  0.1685 -0.0207
17975W        W34822   7.169   0.617   2.968 -0.4205  0.1197 -0.5290
17976W        W34823   9.271   7.549   5.014 -0.0625 -0.1169 -0.3684
17977W        W34824  14.168   6.462   4.305 -0.2137  0.0233  0.2767
17978W        W34825  15.540  11.643  14.525  0.0631 -0.0689  0.0075
17979W        W34826  18.487  18.408  11.725  0.0628 -0.0885  0.1262
17980W        W34827   8.399   5.828  15.245  0.2751 -0.0064 -0.1656
17981W        W34828   3.332  12.306   4.330 -0.1586  0.0003  0.2091
17982W        W34829  11.281  11.583  15.730  0.0764  0.1530 -0.0061
17983W        W34830   1.397  13.741  11.193 -0.1947 -0.0237 -0.1813
17984W        W34831   4.154  16.757  15.057  0.0773 -0.2367  0.1389
17985W        W34832   2.829   1.196   3.254  0.0315  0.1003  0.0872
17986W        W34833  12.683  18.309   4.648 -0.2247 -0.4040 -0.0251
17987W        W34834  13.411  15.127   0.755  0.1494 -0.1118 -0.3683
17988W        W34835   4.210  17.848  13.696 -0.1057 -0.0283 -0.0010
17989W        W34836   9.878   7.773  14.289 -0.0361  0.1706  0.0177
17990W        W34837   1.282   0.992   2.315 -0.1915 -0.1673  0.0137
17991W        W34838  14.902   9.325   1.867  0.1135  0.2590  0.0019
17992W        W34839  11.540   3.479   2.969 -0.3191 -0.0991  0.0207
17993W        W34840   1.069  12.341  12.610  0.0142  0.0347 -0.0381
17994W        W34841  14.708   1.565  12.414 -0.1761 -0.0892  0.1826
17995W        W34842   6.198  14.041   4.924 -0.0793 -0.1001 -0.0661
17996W        W34843   0.937  18.201   3.367  0.0712 -0.0302 -0.2210
17997W        W34844  13.883   7.116   0.380 -0.0692 -0.1178  0.0135
17998W        W34845   6.201  16.807   4.719 -0.1195  0.3387 -0.1097
17999W        W34846   0.961  11.317   2.947 -0.0768  0.0241 -0.0246
18000W        W34847  16.063   8.733  12.618 -0.1063 -0.2458 -0.0461
18001W        W34848  17.811   1.199   2.758  0.1462  0.1374 -0.1491
18002W        W34849   6.777   1.555  13.693 -0.3367  0.2037 -0.2371
18003W        W34850  11.075  16.740   4.466  0.1053 -0.0257 -0.0179
18004W        W34851   1.184   3.361   2.457  0.2607 -0.2309  0.1558
18005W        W34852  16.438  15.054   3.014  0.0039 -0.2162 -0.1766
18006W        W34853   1.839  17.529  11.363  0.2214  0.0965  0.1362
18007W        W34854   0.514  10.113   4.476  0.2267 -0.0202  0.2545
18008W        W34855  10.594   2.293   3.060 -0.1632  0.1448 -0.1577
18009W        W34856  17.927   1.404  15.631 -0.1948  0.2251 -0.0779
18010W        W34857  13.316  10.701  15.839  0.1525  0.3029  0.2666
18011W        W34858   1.094   6.460  12.422  0.0665 -0.2307  0.0864
18012W        W34859   2.679  12.644   4.552 -0.0100  0.1549 -0.0795
18013W        W34860   9.713   2.639  10.765 -0.1587  0.3603  0.3495
18014W        W34861   7.718  16.025  15.338  0.1625 -0.1922  0.0066
18015W        W34862  15.359   6.659  15.686 -0.1956  0.2384  0.0147
18016W        W34863  10.105   7.555  13.925 -0.3638 -0.1590 -0.0329
18017W        W34864  14.700   0.304  11.063  0.1170  0.0093  0.5455
18018W        W34865   3.253   8.824   1.850 -0.0521 -0.1119  0.1827
18019W        W34866   0.179  10.969  15.717 -0.4942 -0.2277 -0.0236
18020W        W34867  10.035  11.038  11.050  0.1359  0.0029  0.2195
18021W        W34868   8.404   2.387   4.384  0.1217  0.1737 -0.3695
18022W        W34869   2.389   1.347   3.283  0.5740 -0.0089  0.0638
18023W        W34870  16.684   6.389   2.590 -0.0696  0.0927  0.0390
18024W        W34871   6.359   6.560  11.185  0.0252 -0.1108  0.0831
18025W        W34872  16.072  18.392   5.398 -0.0671 -0.0775  0.0628
18026W        W34873  10.116   5.165   5.432 -0.0998  0.0599 -0.2547
18027W        W34874  11.948  10.823  15.762 -0.0049  0.2670 -0.1545
18028W        W34875   5.680   8.496  15.398  0.3601 -0.2219  0.0345
18029W        W34876   5.738  13.840  15.704  0.0474  0.0127  0.0999
18030W        W34877  17.021  17.025  11.689 -0.0212 -0.1202  0.1593
18031W        W34878   4.501   0.195  14.172  0.3983 -0.4328  0.2181
18032W        W34879   9.870   0.704   3.584  0.0971  0.1627  0.0146
18033W        W34880   2.893   4.688  13.904  0.1612  0.1773 -0.5394
18034W        W34881   9.699  12.097  14.175 -0.1711 -0.0172  0.0581
18035W        W34882   6.539  12.764   2.194  0.2876 -0.1776 -0.1603
18036W        W34883   4.781  12.862  15.651  0.0897 -0.2265 -0.2252
18037W        W34884   9.932   0.575   1.785  0.3373  0.1473 -0.0696
18038W        W34885  15.605   5.412  15.616 -0.0937  0.0800  0.0848
18039W        W34886   5.119   3.489   5.389  0.0199 -0.0104 -0.0612
18040W        W34887   2.574   8.051   4.019 -0.1713 -0.1309  0.0199
18041W        W34888   6.873   9.755  12.759  0.1614 -0.1664  0.2285
18042W        W34889   7.947  14.974   4.059  0.2574 -0.0126  0.1623
18043W        W34890  10.274   8.041   2.840 -0.0037  0.1199 -0.0487
18044W        W34891   3.997  14.491  15.094  0.0434  0.1113  0.0017
18045W        W34892  15.389  10.949  15.187  0.0313 -0.1118 -0.1525
18046W        W34893  12.620   4.900  14.983 -0.1129  0.1296  0.2149
18047W        W34894  11.823   8.819  11.099  0.0434 -0.0961 -0.3821
18048W        W34895   0.890   8.236  11.475  0.0580 -0.2938 -0.0384
18049W        W34896   7.838   2.380   1.649  0.2502 -0.0299  0.0443
18050W        W34897  13.870   9.429   0.297  0.0045  0.1668 -0.2630
18051W        W34898   0.213   9.763  13.393  0.2942  0.0205 -0.2085
18052W        W34899   8.175   6.554  12.275 -0.2122 -0.0937 -0.3428
18053W        W34900   0.713   0.412   3.996  0.2790 -0.0825 -0.1162
18054W        W34901   1.889   7.075   2.192  0.0712  0.2057 -0.0561
18055W        W34902   5.895   1.699  15.094 -0.0871  0.1780  0.4556
18056W        W34903   5.904   2.137  12.123  0.0067  0.0893 -0.0436
18057W        W34904   1.269   1.300  12.022 -0.2816  0.0162  0.1443
18058W        W34905   0.454  16.757   2.051 -0.3605  0.1495  0.1623
18059W        W34906   3.274  10.223  13.884  0.3237 -0.0044 -0.1441
18060W        W34907  15.190   1.474  11.528  0.4847  0.1006 -0.0387
18061W        W34908   9.257  10.025  11.688  0.0698 -0.1618  0.3056
18062W        W34909  18.290  18.289   5.892 -0.1100 -0.0444  0.1870
18063W        W34910   8.565   2.475  11.157  0.2200 -0.0739  0.0125
18064W        W34911   3.283  13.502   5.016 -0.1818  0.1797  0.0257
18065W        W34912   7.611  14.342  10.610  0.0828 -0.1047  0.2897
18066W        W34913  17.883  11.172  15.184  0.0381 -0.1832  0.0371
18067W        W34914  14.439   3.505  12.080 -0.1658 -0.2296 -0.0752
18068W        W34915   8.464  11.387  13.441 -0.1859  0.3526  0.1962
18069W        W34916   3.196  11.064   1.277 -0.1691  0.1496 -0.0688
18070W        W34917   2.341  16.952  12.355  0.0833  0.1311  0.3775
18071W        W34918   4.049   9.007  10.910 -0.2384 -0.1052 -0.0087
18072W        W34919  14.668   6.346  10.724  0.2142  0.0933  0.0070
18073W        W34920   3.800  12.839   5.090  0.0928  0.0648 -0.1450
18074W        W34921   1.736  17.569   1.541  0.1801 -0.1415  0.2571
18075W        W34922   5.182  13.040  15.226  0.0150  0.1585  0.1881
18076W        W34923   7.553   8.435  12.559  0.2634  0.0649  0.0681
18077W        W34924   2.258   6.728   2.510 -0.0155 -0.1475  0.1060
18078W        W34925  16.473   7.442  15.054 -0.1057 -0.2625  0.1970
18079W        W34926  15.222   5.306   4.366  0.0684  0.0391 -0.2000
18080W        W34927  13.315  12.594  13.541  0.2980 -0.0645  0.3140
18081W        W34928  13.844  11.644  15.123  0.2610 -0.2691 -0.3751
18082W        W34929   5.019   4.328   9.995 -0.2562 -0.1984  0.2699
18083W        W34930  11.744   6.036  13.132 -0.3519 -0.0972  0.0943
18084W        W34931  13.345  10.026   4.112  0.1310 -0.1056  0.1192
18085W        W34932   7.783  14.072  13.385 -0.2015 -0.1634 -0.1576
18086W        W34933   4.951   7.919   4.825  0.0433  0.0359  0.4180
18087W        W34934   1.110   5.076  13.081 -0.1137  0.0094  0.0367
18088W        W34935   6.660   3.018   2.756 -0.1087 -0.5201  0.1310
18089W        W34936   6.716  17.580   3.214  0.1992 -0.1186  0.1255
18090W        W34937  11.351   7.170   2.353 -0.2405 -0.2782  0.2924
18091W        W34938  17.567   5.894   0.388 -0.2326  0.0993  0.0534
18092W        W34939   6.207  10.239   1.066  0.2003  0.0271 -0.0936
18093W        W34940  14.918  16.808   4.725 -0.1015 -0.1599 -0.3697
18094W        W34941   8.859   0.033  14.576 -0.0273 -0.1495  0.0208
18095W        W34942   3.605   5.185   3.546  0.0713  0.1262 -0.2440
18096W        W34943  13.552  14.668   0.970  0.3058 -0.4500 -0.0452
18097W        W34944   3.561  14.147  15.095 -0.1932 -0.1564  0.3397
18098W        W34945  10.184   9.843   3.506  0.0141 -0.0837  0.2955
18099W        W34946   5.884  16.136   1.231 -0.0987  0.0823 -0.0114
18100W        W34947   1.178   2.108  12.159 -0.2888 -0.1418 -0.1165
18101W        W34948   9.460  15.858   1.299 -0.0717  0.0859  0.1306
18102W        W34949   3.798  13.357   5.091  0.2016  0.1218 -0.0470
18103W        W34950  12.059   1.694  12.838  0.2296 -0.1041  0.0884
18104W        W34951  17.118  12.506  12.205 -0.3248  0.0701 -0.2811
18105W        W34952  14.231  17.580  15.524 -0.2980  0.0228 -0.1196
18106W        W34953   2.628  16.963   2.711 -0.1654 -0.0433  0.0149
18107W        W34954   3.703   1.695   3.457  0.0017 -0.3626  0.0025
18108W        W34955   2.725  17.463  11.309  0.2110  0.1595  0.1136
18109W        W34956   9.551  12.086   4.496 -0.1370  0.2415 -0.0053
18110W        W34957  18.249   8.045   0.717  0.2744 -0.2504 -0.2594
18111W        W34958   8.711   4.099   3.569 -0.0936  0.0381 -0.0205
18112W        W34959  14.260   8.229  12.402  0.0125  0.1820  0.0701
18113W        W34960   1.800   5.175   4.921 -0.2938  0.0831  0.2510
18114W        W34961  12.233   0.905   3.755 -0.1718 -0.1620  0.1284
18115W        W34962  13.957   7.983  14.670  0.1778 -0.0619 -0.0269
18116W        W34963  13.831   0.716   2.045  0.2348 -0.0904  0.0102
18117W        W34964  18.171  12.271  15.664 -0.2193  0.0125 -0.0892
18118W        W34965   0.439  16.699   3.233  0.0805 -0.0063 -0.2287
18119W        W34966  12.370  16.530  15.814 -0.2208  0.0474  0.0262
18120W        W34967  16.411   9.096  14.349 -0.1476  0.2186 -0.1078
18121W        W34968   4.196   7.765  15.300  0.1624  0.3744 -0.0437
18122W        W34969  13.679   2.919  15.905  0.1713  0.1645 -0.2417
18123W        W34970   8.906  11.360   1.455  0.0375  0.4560  0.1555
18124W        W34971   6.310   4.996   3.725 -0.2043  0.1964  0.0507
18125W        W34972  14.398  18.285   1.071 -0.4153 -0.0038  0.2473
18126W        W34973   5.321  11.248   4.908  0.0415 -0.0940  0.0507
18127W        W34974   0.075  15.265  13.754  0.1075  0.0963 -0.1009
18128W        W34975   4.333  15.806  11.049 -0.0894 -0.2104  0.2585
18129W        W34976   7.423   2.165   2.485 -0.2708  0.1547 -0.2013
18130W        W34977   3.966  12.699   0.745 -0.0480  0.1959  0.0602
18131W        W34978  10.950   2.115  12.047 -0.0648  0.0074 -0.0849
18132W        W34979   6.979   5.874   3.818  0.0174 -0.1990  0.1992
18133W        W34980  10.290  18.509   0.129 -0.5225  0.2113  0.1626
18134W        W34981  11.847  15.247   4.385  0.1853 -0.0352 -0.0424
18135W        W34982  16.257  15.670   0.558  0.0305  0.1273 -0.2236
18136W        W34983  17.345  15.141   3.040  0.0543  0.2361 -0.0416
18137W        W34984  15.185   7.234  14.102  0.0314 -0.0610  0.2517
18138W        W34985   7.930   0.338  12.165 -0.1524 -0.4352  0.0990
18139W        W34986   4.421  12.729  12.865 -0.2301  0.3652  0.0032
18140W        W34987  16.818  10.833  13.936 -0.0886 -0.0653  0.3202
18141W        W34988  11.206   0.142  12.792  0.1933 -0.1059  0.0428
18142W        W34989  16.105   0.064   0.104  0.1643 -0.1264  0.2376
18143W        W34990   8.092   5.864   4.692  0.0022  0.2551  0.0647
18144W        W34991   2.431   6.782   1.024 -0.1595  0.0991 -0.1610
18145W        W34992  17.365   5.877  12.556  0.0005 -0.0987 -0.1104
18146W        W34993   1.227  10.560   1.296 -0.0579 -0.3353  0.3029
18147W        W34994   6.879   5.212  15.125 -0.1460 -0.2310 -0.0607
18148W        W34995   3.605  10.144   4.251 -0.1497 -0.0009  0.0390
18149W        W34996   4.930   7.613  11.504 -0.3557  0.2212  0.0824
18150W        W34997   9.663   5.652   0.541  0.2782  0.0893  0.0504
18151W        W34998  14.081   3.465  13.287  0.3634 -0.1106  0.0116
18152W        W34999  14.859   1.541  12.881  0.1757 -0.1706  0.2216
18153W        W35000  16.159   0.049  13.254 -0.1064 -0.1977  0.0951
18154W        W35001  14.491   2.039  11.643  0.3003  0.0568 -0.0783
18155W        W35002   5.652  14.665  11.192  0.2719 -0.0787 -0.2905
18156W        W35003   0.291   7.982   1.859  0.3064  0.2237 -0.3813
18157W        W35004   8.178  15.057  13.342  0.1118 -0.1110  0.0792
18158W        W35005  13.686  15.020  15.105  0.0303  0.0519 -0.1440
18159W        W35006  18.288  14.144   3.292  0.1933 -0.1475 -0.0944
18160W        W35007  11.723  14.946   1.481  0.0484  0.0916 -0.1308
18161W        W35008   1.035  18.481  11.804  0.3131 -0.4789 -0.1674
18162W        W35009  13.607   6.834  15.020  0.1162  0.2518 -0.0719
18163W        W35010   0.429   9.908  12.542 -0.0074 -0.2280  0.1007
18164W        W35011   5.099  12.822   3.567  0.1699 -0.0865  0.2112
18165W        W35012   5.189   3.883   2.455 -0.3414 -0.2248 -0.0155
18166W        W35013  17.697   1.119   1.351 -0.0009  0.3830 -0.4377
18167W        W35014  12.196  15.539   0.103 -0.2442  0.1397  0.3171
18168W        W35015   4.138  16.414  12.583 -0.0759  0.1408  0.2066
18169W        W35016  15.765   7.920   4.787  0.0560 -0.1769  0.1429
18170W        W35017  11.844   7.617   1.794  0.1528 -0.2528 -0.2097
18171W        W35018   4.021   7.657   4.850 -0.0806 -0.1646  0.0504
18172W        W35019   8.636  12.118   5.211  0.5218  0.3661  0.2091
18173W        W35020  13.200  17.697  13.536  0.3607  0.1466  0.0019
18174W        W35021  18.372  12.409   1.088  0.2803  0.4316 -0.1010
18175W        W35022   5.164  10.430  11.661  0.0727  0.1771  0.2714
18176W        W35023   1.381  16.303  15.368  0.1444 -0.1932  0.0406
18177W        W35024  10.451  15.762  12.295 -0.0326 -0.0349  0.1067
18178W        W35025  10.335   5.769   0.444 -0.0406 -0.0430  0.1671
18179W        W35026  11.754   5.188   3.397 -0.2632 -0.0153 -0.1708
18180W        W35027   4.192   4.413   0.221  0.1582 -0.1839  0.0402
18181W        W35028   9.402   9.134   0.514 -0.1138 -0.1569 -0.3198
18182W        W35029   6.292  18.394  11.203 -0.1201 -0.0014 -0.1284
18183W        W35030  17.744   4.940  13.569  0.2119  0.2162 -0.0992
18184W        W35031   4.861   4.049  13.102  0.0946  0.0461 -0.2018
18185W        W35032  14.811   1.558   2.709 -0.1277 -0.0148  0.4853
18186W        W35033   8.978   9.200   0.257 -0.3631  0.0162 -0.1568
18187W        W35034   6.559  17.849   5.610  0.0273  0.0924  0.0278
18188W        W35035   5.396  17.299  11.624 -0.2115 -0.2939  0.2073
18189W        W35036   3.115   1.891  15.381 -0.1885  0.2955 -0.0277
18190W        W35037  11.207  11.712  12.296  0.0320 -0.1689 -0.0798
18191W        W35038  11.804  11.655  15.786 -0.1206 -0.0094 -0.2009
18192W        W35039   1.432   7.960   2.077 -0.0266  0.1239  0.0717
18193W        W35040   3.522   4.235  11.148  0.0033 -0.1378  0.0733
18194W        W35041  17.852  11.308  15.705  0.2397 -0.2592  0.1692
18195W        W35042   2.365   3.840  15.436 -0.1797  0.2958  0.1106
18196W        W35043  10.762   1.020   3.081 -0.0127 -0.0731 -0.0109
18197W        W35044  14.172   6.647  13.496  0.0395  0.1024 -0.2986
18198W        W35045  11.489  10.562   1.761 -0.0947 -0.1182 -0.0796
18199W        W35046  18.436   4.811   2.662  0.1667 -0.2027 -0.2069
18200W        W35047  14.812  14.061   0.885  0.3496 -0.1389  0.0225
18201W        W35048   9.933  17.082   2.989  0.0012 -0.2490 -0.0571
18202W        W35049  11.537  13.540  14.498  0.1001  0.0686 -0.0986
18203W        W35050   6.820   2.973  15.305  0.0091 -0.0460 -0.3137
18204W        W35051  15.093  16.045  14.631 -0.2207  0.0543  0.0215
18205W        W35052   9.013  10.770  13.543  0.5092 -0.4081  0.1504
18206W        W35053   0.608  17.908   0.805  0.2582  0.1661 -0.0624
18207W        W35054  13.699  11.882  12.235 -0.2231 -0.0151 -0.1642
18208W        W35055  11.177   4.928  10.545  0.0365  0.2106 -0.2630
18209W        W35056   8.913  14.980  11.784 -0.1465  0.2719 -0.1224
18210W        W35057   4.442   2.304   4.936 -0.0042 -0.1943  0.2375
18211W        W35058  12.206   8.363   2.772  0.1261  0.0555  0.1057
18212W        W35059   9.427  11.760   3.150  0.0955 -0.0548  0.0725
18213W        W35060  11.807  10.485   4.378 -0.3065  0.1433 -0.0908
18214W        W35061  11.696   9.035   4.331 -0.1502  0.0176 -0.1139
18215W        W35062  11.797   1.810   1.886  0.0446  0.0113 -0.1690
18216W        W35063  11.333  11.734   1.917  0.2421  0.2891 -0.1610
18217W        W35064  13.977  13.105  11.904 -0.0877 -0.0299 -0.0086
18218W        W35065   1.421   9.434  11.485  0.0673 -0.2682  0.0707
18219W        W35066   4.026  11.259  15.887  0.0426 -0.1937 -0.2177
18220W        W35067   7.131   7.627  12.354 -0.1029  0.1237 -0.1527
18221W        W35068   2.935  14.140   0.573  0.2798 -0.1486  0.2485
18222W        W35069   8.867  12.186   0.723  0.5390 -0.0065 -0.0523
18223W        W35070  16.139  18.247  13.666  0.3937 -0.1757 -0.1232
18224W        W35071   3.902   7.992   2.877 -0.2683 -0.2178 -0.1333
18225W        W35072  16.832   5.977   1.428  0.1219 -0.2171  0.1231
18226W        W35073   4.605   2.988  14.710 -0.2443 -0.1069  0.0828
18227W        W35074  11.348   4.863  15.229 -0.2465 -0.0746 -0.1002
18228W        W35075   3.466   2.667  10.350 -0.1441 -0.1040  0.0642
18229W        W35076  17.289   3.800  12.806  0.0284  0.1033  0.2877
18230W        W35077  13.753  15.686   0.584 -0.0593 -0.0288  0.2848
18231W        W35078   0.101   8.221   5.413 -0.0089 -0.0351 -0.0288
18232W        W35079   9.201  17.706  15.656  0.1357  0.1122 -0.1196
18233W        W35080  11.109   9.617  11.117 -0.0965 -0.0573 -0.0206
18234W        W35081   8.674   2.032   2.115 -0.0428 -0.0848  0.1131
18235W        W35082  18.337   5.119  11.681  0.1050  0.0278  0.2977
18236W        W35083   6.523   1.544   3.990  0.1314  0.0315  0.0640
18237W        W35084  13.064   1.233  10.333 -0.0484  0.4464  0.0482
18238W        W35085  17.579  12.546   4.782 -0.0786 -0.4423 -0.2227
18239W        W35086   5.338   6.830   2.142  0.1917 -0.1662 -0.0025
18240W        W35087  11.697  11.717   2.357  0.1976 -0.1932 -0.1784
18241W        W35088   3.729  12.885  13.313 -0.4238 -0.1441 -0.1852
18242W        W35089   3.003   0.846   0.368 -0.1361  0.0439  0.2646
18243W        W35090  10.626   2.878   1.526  0.1221 -0.0730 -0.0917
18244W        W35091   8.200  18.223  14.888 -0.1264 -0.3516 -0.0381
18245W        W35092  14.482   5.982  15.232  0.0814 -0.1707 -0.3639
18246W        W35093  12.397  11.576   2.993  0.0008 -0.2281 -0.3071
18247W        W35094  13.126  18.010   1.806 -0.0790 -0.1957 -0.3224
18248W        W35095  10.229  17.646  11.768  0.2806 -0.1606  0.2348
18249W        W35096   9.861  14.763   1.532 -0.1562  0.1234  0.1423
18250W        W35097  13.301  10.723   3.231  0.1025 -0.1283 -0.0968
18251W        W35098   1.179   7.326   3.306  0.0751 -0.0141 -0.0447
18252W        W35099   0.760   7.684   5.238  0.0170 -0.0694  0.0227
18253W        W35100   7.516  12.529   1.980  0.1285 -0.3764 -0.2069
18254W        W35101  16.400   8.444  10.793 -0.1206 -0.0406 -0.0280
18255W        W35102  14.932   1.445  14.998 -0.0233  0.2563  0.1475
18256W        W35103  13.441   8.710  15.734  0.2828 -0.1971  0.0866
18257W        W35104  15.908   4.485   0.806  0.0945  0.2662  0.1861
18258W        W35105   6.519  16.026  12.004  0.2945 -0.2591 -0.0807
18259W        W35106   2.912   0.398  13.163 -0.0200 -0.0105  0.1004
18260W        W35107   0.740  18.169   3.874 -0.2160 -0.1416  0.2203
18261W        W35108  12.652   3.867  14.804 -0.4603 -0.3826  0.0890
18262W        W35109   6.614   7.872  15.272  0.1472  0.2665 -0.0218
18263W        W35110   3.700  12.512   4.686 -0.0559  0.0066 -0.1053
18264W        W35111  17.470   8.286  13.543  0.2329  0.1579 -0.0081
18265W        W35112   4.088  14.452   3.751  0.0421 -0.2467 -0.0485
18266W        W35113   7.910   4.386   3.565  0.2677  0.3171  0.5088
18267W        W35114  17.390   4.088  11.393  0.0810  0.0484 -0.1844
18268W        W35115  10.451   6.287   0.508 -0.0909  0.2866 -0.2448
18269W        W35116   4.402  11.365   5.250 -0.1136  0.1129 -0.0721
18270W        W35117   7.063  12.459   2.812  0.1431 -0.2318 -0.0096
18271W        W35118  16.468  16.478  13.392  0.0085 -0.2863  0.0751
18272W        W35119   5.141   5.616  11.986  0.0171  0.0113  0.1502
18273W        W35120   6.053   1.554   6.047  0.1275  0.1903  0.2684
18274W        W35121   5.657   2.492   4.360 -0.1489  0.0825  0.1119
18275W        W35122  10.056  16.565   3.104  0.0342 -0.0554 -0.2484
18276W        W35123   9.906  12.331   3.128  0.2237  0.1149 -0.0962
18277W        W35124  14.979  11.839   4.298 -0.0055  0.1528 -0.1669
18278W        W35125   4.148  13.966  14.749 -0.2971  0.0778  0.0273
18279W        W35126  15.450  12.137  12.459 -0.1501 -0.3779 -0.1328
18280W        W35127   2.202  12.296   5.259  0.1695 -0.0636  0.2805
18281W        W35128   4.515   3.578   0.736 -0.1306 -0.0952  0.0405
18282W        W35129  17.635   3.645   3.042 -0.2985 -0.1590  0.2472
18283W        W35130   9.158  14.304   2.736  0.0439 -0.4528  0.1180
18284W        W35131  14.716  10.723  14.038  0.0030  0.3112 -0.1815
18285W        W35132   4.217  17.374   5.152 -0.0118 -0.0139  0.0288
18286W        W35133   3.269   6.572  14.112 -0.4739  0.2797  0.0776
18287W        W35134  11.010  18.454   3.913 -0.1713 -0.0859 -0.1330
18288W        W35135  12.922   1.729  14.039  0.3365  0.0647 -0.2495
18289W        W35136   1.712   9.745   3.926 -0.0498  0.0997  0.2517
18290W        W35137   5.710   7.827   2.474  0.2298 -0.2565 -0.1762
18291W        W35138  16.310  10.599   4.144  0.1912 -0.0343  0.0656
18292W        W35139   8.101   3.587  15.747 -0.0733 -0.2738  0.1286
18293W        W35140  11.455   6.692   1.130  0.2098 -0.2117 -0.1556
18294W        W35141   3.321  14.870   3.402  0.0129  0.2097 -0.0218
18295W        W35142  15.302   9.064  11.247 -0.0715 -0.2703 -0.2534
18296W        W35143  12.228   7.726   4.090  0.2320  0.0771  0.2856
18297W        W35144   1.036   1.130   4.719  0.0719 -0.0813 -0.3583
18298W        W35145  10.588  16.718   4.365 -0.3086 -0.3646 -0.0079
18299W        W35146   3.727   2.624   0.339 -0.1264  0.0963 -0.0779
18300W        W35147   8.562   6.633  15.486  0.0698  0.0885 -0.1311
18301W        W35148   9.156   5.781  14.552 -0.2558 -0.1881 -0.1771
18302W        W35149  15.649   8.445   2.374  0.1254  0.1353  0.3017
18303W        W35150   4.734   1.635   0.482 -0.1305  0.0403  0.1618
18304W        W35151   6.040  15.827   6.082 -0.0059 -0.3448 -0.0069
18305W        W35152  10.945   0.829   4.959 -0.1982  0.1271 -0.0613
18306W        W35153   9.068   6.567  11.692  0.1551 -0.0882  0.3239
18307W        W35154  13.651   6.454  10.683  0.4002  0.1531 -0.0720
18308W        W35155   3.772   4.065  15.039 -0.1675  0.1685 -0.1329
18309W        W35156   8.581   0.330   0.290  0.0681  0.0135 -0.2464
18310W        W35157   1.038   1.745   6.104 -0.0478 -0.1035  0.0848
18311W        W35158  16.921  18.123  15.710 -0.2349  0.2946 -0.1101
18312W        W35159  15.829  10.414   2.238 -0.2529 -0.1429  0.1690
18313W        W35160  11.204   8.363  13.338  0.0415 -0.1055 -0.2655
18314W        W35161  12.271   8.636  12.349 -0.0633  0.2222 -0.2474
18315W        W35162  10.648   6.417  15.799  0.1337 -0.0350  0.0144
18316W        W35163  14.245   7.523  13.021  0.0239  0.0425 -0.2220
18317W        W35164   1.033   0.690  15.015 -0.1274 -0.0585  0.1897
18318W        W35165   8.138   4.817  14.053  0.1432  0.0556 -0.0129
18319W        W35166  10.359  17.975   1.978 -0.1002  0.0561 -0.1004
18320W        W35167   0.764   4.043  14.989  0.2316  0.0247  0.3066
18321W        W35168  15.066  17.869   2.692 -0.3336  0.0751 -0.1379
18322W        W35169   5.068  10.032   5.545  0.3736  0.0321  0.2381
18323W        W35170   4.471   2.504  14.653 -0.0201 -0.0261 -0.0423
18324W        W35171   8.224  10.035   3.347  0.3768  0.0434 -0.5917
18325W        W35172   1.682  17.524   4.774 -0.1365  0.0405  0.3460
18326W        W35173  16.057   8.449  15.757 -0.2180  0.1707  0.0120
18327W        W35174  10.908   3.278   0.091  0.0840  0.1944  0.1655
18328W        W35175   6.495   4.626   5.673  0.1886 -0.0911 -0.0981
18329W        W35176  17.197   3.683  13.353  0.1085  0.1006 -0.0639
18330W        W35177   1.024  16.059   2.973 -0.1902  0.2490 -0.0707
18331W        W35178   1.663   3.017  12.306 -0.2064 -0.1372  0.2704
18332W        W35179   1.886  13.825   3.573 -0.0870  0.0937 -0.0225
18333W        W35180  15.283  17.631   4.296  0.0458  0.1036 -0.0532
18334W        W35181  10.340   4.843   9.767  0.2619 -0.0967  0.2063
18335W        W35182  15.466   5.966   3.256 -0.3364  0.0798 -0.1574
18336W        W35183  12.459   4.457   4.605  0.4329 -0.1251  0.1414
18337W        W35184  16.211   1.925  15.210  0.1648  0.0053  0.2863
18338W        W35185   3.826  16.949   3.458 -0.1299  0.2467  0.2101
18339W        W35186   7.557  11.146  11.261  0.1656 -0.0492 -0.2424
18340W        W35187   3.621  15.196   3.096  0.1172 -0.1035  0.1033
18341W        W35188   8.737   6.948   3.943  0.1396  0.0643 -0.2436
18342W        W35189   1.769   4.859  11.603 -0.3150 -0.1645 -0.2195
18343W        W35190   0.587   4.055  12.511 -0.1802  0.3151 -0.1403
18344W        W35191  15.805  10.103   1.435  0.1124  0.0271 -0.2442
18345W        W35192   2.908  11.864  11.628  0.1164 -0.1145 -0.1908
18346W        W35193  13.723   4.364   0.308 -0.0522  0.2837  0.3323
18347W        W35194  18.500  15.813   3.449 -0.0383 -0.0005  0.0540
18348W        W35195   4.552   9.642   3.742  0.0929  0.0429 -0.0615
18349W        W35196   2.980   3.606  11.528  0.0056  0.0808  0.0101
18350W        W35197  12.562   0.401   1.739 -0.4190  0.1074 -0.1844
18351W        W35198   8.143  11.914   1.048 -0.0699  0.1226 -0.1624
18352W        W35199   4.098   7.423   1.362  0.0411 -0.0362 -0.2439
18353W        W35200   2.177  14.774  15.145 -0.0853 -0.0076 -0.1635
18354W        W35201  12.735  16.055   4.208  0.2207  0.3569  0.0376
18355W        W35202   7.108  16.666  14.896 -0.1157 -0.1018 -0.0557
18356W        W35203  14.893  14.020   2.507  0.0901 -0.0220 -0.0567
18357W        W35204   0.651  18.053  14.853 -0.0995 -0.0030  0.0453
18358W        W35205  13.911   8.909   4.268 -0.2010 -0.1750 -0.0405
18359W        W35206   5.615   7.382   5.680 -0.4151  0.1909 -0.1847
18360W        W35207   8.112   1.870   2.428 -0.4664 -0.2583 -0.2371
18361W        W35208  12.252   7.988  11.060 -0.0369  0.1335 -0.3433
18362W        W35209   4.340  11.449   2.858 -0.0650 -0.0395  0.1351
18363W        W35210  12.474  16.322  13.325 -0.0040  0.2461 -0.1561
18364W        W35211  14.619  10.110   2.706  0.2445  0.1063  0.2604
18365W        W35212  17.484   9.422   1.842 -0.1435  0.2178  0.0123
18366W        W35213   2.479  14.289  15.232 -0.0104  0.2191  0.2710
18367W        W35214   2.081   3.736   5.972  0.0278  0.2417  0.3702
18368W        W35215   0.230   8.137  14.191  0.1455 -0.0571  0.1120
18369W        W35216  10.666   4.094  13.817 -0.1121  0.0193 -0.1116
18370W        W35217  10.730   2.752  14.585  0.2347 -0.0858  0.0195
18371W        W35218  12.269   6.656  10.856  0.0718 -0.1815 -0.0221
18372W        W35219   0.417   0.654  11.000  0.1491  0.0037 -0.2285
18373W        W35220  17.655   7.494   4.736  0.2299  0.4777 -0.1143
18374W        W35221   9.649   0.324  10.312  0.0528 -0.3287 -0.0903
18375W        W35222  11.321   7.906  13.425  0.2074 -0.1508 -0.0805
18376W        W35223   5.448  16.611  14.969  0.2422  0.1011 -0.0328
18377W        W35224   5.265  14.512  13.908 -0.2129 -0.4188  0.2509
18378W        W35225   8.839  13.893  11.701  0.2104 -0.0892  0.1839
18379W        W35226   4.174   0.769  11.991  0.0590  0.4002 -0.0230
18380W        W35227  15.278  11.860   3.025  0.2235  0.2327 -0.1242
18381W        W35228   9.416  13.035   2.628 -0.1535 -0.1032  0.0390
18382W        W35229   3.450   8.129   2.581  0.1722 -0.2240 -0.1063
18383W        W35230   9.835  10.326  15.006 -0.4714  0.3214  0.1038
18384W        W35231  17.619  14.679   4.293  0.0671 -0.1426 -0.1115
18385W        W35232   3.695   3.733   3.692 -0.4180  0.1173 -0.0863
18386W        W35233   9.053   5.809   3.216 -0.0394  0.2417 -0.0142
18387W        W35234   4.920  13.239   1.654  0.1588 -0.1291  0.2235
18388W        W35235   9.981   7.751  13.361 -0.1032  0.2628 -0.0657
18389W        W35236   0.546  10.673   3.932 -0.0054 -0.1582  0.0245
18390W        W35237   0.001  14.929   3.008  0.1415  0.2028 -0.2562
18391W        W35238   7.814  10.804  13.001 -0.2467 -0.0973  0.2135
18392W        W35239   3.659  17.994  13.537  0.0035  0.0704 -0.0047
18393W        W35240   2.688   7.630  11.006 -0.0330  0.0212  0.1798
18394W        W35241   7.405   8.858   0.982  0.1693  0.0659  0.0125
18395W        W35242  10.631   5.049   1.983 -0.1995 -0.2323 -0.2437
18396W        W35243   5.093   2.447  15.904  0.2480 -0.0913 -0.1263
18397W        W35244   3.694   7.564   5.275 -0.1298  0.0921 -0.0452
18398W        W35245   8.810   6.666   2.938 -0.2382  0.1157 -0.0360
18399W        W35246  13.263  12.999  12.822  0.1086  0.0224  0.0268
18400W        W35247  16.035  17.052  12.588 -0.2028  0.0882  0.0628
18401W        W35248   9.232   7.467   0.878 -0.0813 -0.0590  0.1370
18402W        W35249  11.444   3.115  15.156  0.2239 -0.1586 -0.3522
18403W        W35250   4.491   3.761   2.939 -0.1042 -0.2589  0.0620
18404W        W35251   9.364  13.696  13.627  0.0738  0.0454 -0.1501
18405W        W35252   0.968   6.382  10.620  0.2540 -0.2732 -0.2591
18406W        W35253  16.724  17.599   2.780 -0.2845  0.0662 -0.1150
18407W        W35254  13.346   2.186   1.893 -0.2038  0.2148 -0.2915
18408W        W35255  11.280   9.755  12.936  0.0576 -0.3032 -0.0026
18409W        W35256  16.980  10.069   2.906 -0.0514  0.0941 -0.0103
18410W        W35257   0.388  16.278   4.234 -0.1000  0.1855 -0.2266
18411W        W35258  13.129  12.163   1.038 -0.0962 -0.2320 -0.0654
18412W        W35259  17.366   1.420  14.326 -0.0431 -0.0208  0.3312
18413W        W35260   7.154  13.904   0.090 -0.2111 -0.6287 -0.2152
18414W        W35261   7.972  11.719   0.589  0.0029  0.1546 -0.0108
18415W        W35262  17.989   2.764  11.909  0.2417 -0.0659  0.2589
18416W        W35263  12.575  12.335  11.664  0.1080 -0.0259 -0.1716
18417W        W35264  11.221  12.703  12.009  0.1051  0.3263 -0.5329
18418W        W35265  10.291   8.140  11.670  0.1733  0.0688  0.2956
18419W        W35266   4.594  11.535  13.971 -0.0599  0.1881  0.0783
18420W        W35267  14.468  18.232   2.715  0.0312  0.2221 -0.1033
18421W        W35268   2.289  10.922   4.232 -0.2535 -0.1252 -0.1256
18422W        W35269  14.783   5.409   0.838 -0.0409 -0.0373  0.0767
18423W        W35270  17.712   0.339   2.300 -0.0172 -0.4151 -0.0158
18424W        W35271  14.055  11.903  13.620 -0.1793  0.2032  0.1739
18425W        W35272  12.195  16.096   1.952  0.0462  0.0574  0.1260
18426W        W35273   4.087  12.448   5.374 -0.0435 -0.4723  0.0675
18427W        W35274  10.670   2.568   0.707  0.1781 -0.0473  0.1063
18428W        W35275   3.206  14.077  13.215 -0.1398  0.2528 -0.0289
18429W        W35276   7.326   0.651  11.114  0.0680 -0.3320 -0.2212
18430W        W35277   5.045   4.536   1.946 -0.2825  0.2582 -0.2524
18431W        W35278   1.676  17.995  11.715 -0.0835  0.0707 -0.1798
18432W        W35279  13.781  17.355  14.305 -0.1407 -0.0297 -0.0782
18433W        W35280  14.563   2.827  15.461 -0.0806 -0.1216  0.1754
18434W        W35281  18.354   2.734  15.521 -0.2088  0.1204  0.0281
18435W        W35282  14.361   1.146   0.021 -0.1478 -0.1517 -0.0520
18436W        W35283  11.214  18.030   3.028  0.0580  0.0405 -0.0951
18437W        W35284   5.324   1.253  11.261 -0.0521 -0.1514 -0.0336
18438W        W35285   7.511  16.654   1.143 -0.1450  0.4347  0.0604
18439W        W35286   3.791  15.337   0.734 -0.1610 -0.1866  0.0439
18440W        W35287  18.085   2.409   5.443 -0.1830 -0.0712 -0.0240
18441W        W35288  18.225   3.735  15.695  0.2280  0.1908  0.0250
18442W        W35289  18.275   9.426  11.809  0.0934 -0.1573 -0.0584
18443W        W35290  15.647  10.877  14.465  0.2278 -0.0062  0.4143
18444W        W35291  16.989  15.676  13.737 -0.1859 -0.3364  0.3208
18445W        W35292  14.320   7.700   1.966 -0.1147  0.2139  0.3997
18446W        W35293   3.684   6.376   4.153  0.0198 -0.1632 -0.2969
18447W        W35294   9.775   2.807  12.663  0.2584 -0.1401 -0.0224
18448W        W35295  15.749   2.534   0.893 -0.2676 -0.0968 -0.0547
18449W        W35296  18.425  16.370  14.028 -0.2542  0.1260 -0.2098
18450W        W35297  15.614   9.135   1.397 -0.0566  0.0277  0.4358
18451W        W35298  14.604   3.792   4.593  0.2370  0.0493 -0.3108
18452W        W35299  14.753  12.600   3.282 -0.0743  0.0583  0.1161
18453W        W35300   3.998   2.399   4.205  0.0175  0.2666 -0.1885
18454W        W35301  10.194   9.359   2.738  0.2334  0.2354 -0.1213
18455W        W35302   0.564   9.498  12.020  0.2167 -0.0136 -0.3346
18456W        W35303  10.838  18.401  13.025 -0.1533  0.2552 -0.1547
18457W        W35304   2.873   0.954   5.334  0.0583  0.1785 -0.1873
18458W        W35305   1.514  13.974  15.063 -0.3379  0.0525  0.3433
18459W        W35306  14.118   8.652   0.835 -0.2541  0.1781 -0.2243
18460W        W35307   6.671  14.182  13.125 -0.0801  0.2428 -0.1922
18461W        W35308   5.945  13.122  14.546 -0.0488  0.2066 -0.1731
18462W        W35309  14.528   3.544  14.144  0.0597  0.4146  0.0992
18463W        W35310  15.009   2.245   5.235 -0.3480 -0.1279 -0.2561
18464W        W35311   2.580   7.373   3.386  0.0767  0.2092  0.2442
18465W        W35312  17.232   8.740  11.340  0.0970  0.0848 -0.0278
18466W        W35313  12.723   7.779   4.274 -0.0050 -0.0439 -0.0196
18467W        W35314   3.342  15.392   2.636 -0.0772 -0.1475  0.0663
18468W        W35315   9.687  10.678   4.833 -0.0311 -0.0394 -0.0748
18469W        W35316   1.969  14.105  13.037 -0.2939  0.1477  0.0826
18470W        W35317  14.729   2.370   2.353  0.0371 -0.1084 -0.3318
18471W        W35318   8.078   1.256  14.935 -0.0962  0.0872  0.1510
18472W        W35319   4.766  16.093  15.406  0.2434 -0.1626  0.1386
18473W        W35320  12.867  17.935   4.076 -0.3176 -0.0404  0.0540
18474W        W35321   1.829  18.442   1.993  0.2311  0.1558  0.0381
18475W        W35322   3.486  11.668  12.284  0.1538 -0.1181  0.2572
18476W        W35323   0.468   2.863   1.918  0.0220 -0.0800  0.1584
18477W        W35324  16.932   6.317  15.622 -0.0584 -0.0913  0.0073
18478W        W35325   8.833  13.109   4.920 -0.1117 -0.3606 -0.2661
18479W        W35326  13.198  17.505  11.547 -0.0522  0.1626 -0.0296
18480W        W35327   3.146  16.965   2.859 -0.0657  0.0567 -0.0141
18481W        W35328  11.193   4.757  15.737  0.1727  0.1128  0.2267
18482W        W35329   8.980   2.811  11.275 -0.1140  0.4634 -0.1470
18483W        W35330   4.060   4.995   4.991  0.0375  0.0510  0.1071
18484W        W35331  16.421   5.633   1.387 -0.3317 -0.1304 -0.0396
18485W        W35332   7.695   1.614   4.026 -0.0733  0.0649  0.1650
18486W        W35333  11.434   6.321  14.120  0.1287 -0.1095 -0.0733
18487W        W35334   5.147  17.746  11.690 -0.2220 -0.1091  0.1215
18488W        W35335  16.147  15.663   5.259  0.0527  0.0220  0.0386
18489W        W35336   7.114   8.160   1.116  0.1991  0.0360  0.0585
18490W        W35337   3.417  15.890  14.543  0.0825  0.1953  0.0264
18491W        W35338   0.291   2.727  13.709  0.3558 -0.5554  0.0833
18492W        W35339  15.138   2.045   0.393  0.1310 -0.1477 -0.0316
18493W        W35340  14.117  17.638   1.348  0.0968 -0.0122  0.1667
18494W        W35341   0.402   7.988   4.423  0.0276 -0.0772 -0.0898
18495W        W35342   5.053  11.542   0.421  0.1696 -0.0311 -0.2688
18496W        W35343   3.288  12.905  14.637 -0.0980  0.0469  0.3314
18497W        W35344   6.581  14.386   3.473  0.2356 -0.0099  0.1452
18498W        W35345  14.000  13.626  13.644 -0.0486 -0.2371  0.1971
18499W        W35346   0.257   9.777   3.634  0.0046  0.2123 -0.1195
18500W        W35347   6.368   5.269   4.137 -0.2298  0.1986  0.1120
18501W        W35348   4.864   9.407   4.891 -0.2594  0.0875  0.0008
18502W        W35349   0.455  14.557   3.854 -0.0176  0.0589  0.2526
18503W        W35350  16.733   9.620   2.629  0.0327  0.3055  0.1278
18504W        W35351  13.649   1.219   1.831  0.0538 -0.2123  0.1193
18505W        W35352  16.742   7.923   4.588 -0.0202 -0.0883  0.0026
18506W        W35353   8.734   3.627   0.686  0.2504 -0.1584  0.0997
18507W        W35354  13.513  16.123   4.848 -0.0708 -0.1115 -0.0690
18508W        W35355   6.235   2.969   5.021 -0.0088 -0.1473  0.0073
18509W        W35356  15.401  14.028   0.272  0.0545 -0.0751 -0.1181
18510W        W35357   9.478   2.816   3.030 -0.1339  0.4694 -0.0873
18511W        W35358  12.583   4.111   1.199  0.0430  0.1567  0.0010
18512W        W35359  16.704   2.484   3.513  0.0011 -0.0467 -0.0581
18513W        W35360   5.154   9.859  12.695 -0.2077 -0.1859  0.2539
18514W        W35361  13.961   9.328  11.722 -0.1920 -0.0860  0.0600
18515W        W35362   5.028  11.948   3.052 -0.0949  0.3064 -0.0360
18516W        W35363  16.443   2.041   4.480  0.1600  0.0063  0.1389
18517W        W35364   2.088  11.238   0.337  0.0907 -0.0842 -0.0476
18518W        W35365  15.099   8.232   4.043 -0.1883  0.0802  0.2440
18519W        W35366   6.956  10.428  13.825 -0.3028 -0.1457  0.0624
18520W        W35367  11.094  12.008  11.779  0.0959 -0.0326 -0.0057
18521W        W35368  12.048   8.445   0.997 -0.0978  0.3563  0.0752
18522W        W35369  18.220   8.390  14.506 -0.2675 -0.1325  0.2035
18523W        W35370  13.182   1.206  12.906  0.2062 -0.1234 -0.1389
18524W        W35371  15.889  16.731   2.628  0.1521 -0.1093 -0.0601
18525W        W35372   7.828  15.334  15.542 -0.0213  0.1642 -0.0088
18526W        W35373  12.883  15.424   3.382 -0.2449  0.1195  0.3173
18527W        W35374  13.075   5.043   4.722  0.0114  0.3652  0.0466
18528W        W35375   6.455   2.980   0.356  0.0676  0.2094  0.0028
18529W        W35376   4.007  12.707   4.297 -0.0222 -0.1343 -0.0563
18530W        W35377   1.427   5.578  13.180  0.2207  0.1943 -0.2097
18531W        W35378  15.640  11.287   1.681  0.0063 -0.1245  0.0077
18532W        W35379  17.256  12.891   4.558  0.0455 -0.0279 -0.0937
18533W        W35380   5.490  17.262   5.269  0.0878  0.0123  0.0968
18534W        W35381  16.452  15.997  13.070  0.2843  0.2640  0.1610
18535W        W35382  16.315   9.305   3.396 -0.1915  0.2340 -0.1260
18536W        W35383  10.499   5.020  15.657  0.0504  0.3042 -0.1346
18537W        W35384   5.367  15.096  11.268  0.0448 -0.1654  0.4333
18538W        W35385  10.309   7.969   3.373 -0.1460  0.2720 -0.2162
18539W        W35386  11.156  11.837  10.956  0.0336 -0.0754  0.0758
18540W        W35387  13.977  15.130  15.491 -0.0767  0.1993 -0.1200
18541W        W35388   1.115   0.781   0.110 -0.1073 -0.1014 -0.1335
18542W        W35389   3.690   1.219  12.828 -0.1564 -0.0749  0.1205
18543W        W35390  16.204  13.406   1.097 -0.0582  0.1508 -0.1161
18544W        W35391   1.274  11.688   3.353 -0.2052 -0.2581 -0.0237
18545W        W35392  17.471   5.032   4.783  0.0513  0.2959  0.2122
18546W        W35393   8.683  16.459  14.222  0.4302  0.0259  0.2902
18547W        W35394   2.931   3.745  15.642 -0.0683  0.2982  0.2544
18548W        W35395  12.652   0.157  11.315  0.0243 -0.2002  0.0514
18549W        W35396  14.618   5.343   1.806  0.0605  0.2406  0.2150
18550W        W35397   7.628   4.794   1.455  0.3261 -0.0980  0.0614
18551W        W35398  17.221   1.094   1.868  0.0545 -0.1520  0.0109
18552W        W35399  12.599  13.283   3.905  0.0212 -0.0788 -0.0535
18553W        W35400   3.292   3.021  13.419 -0.1473  0.0167 -0.1557
18554W        W35401   1.214  15.380  13.310  0.3090  0.3406  0.0237
18555W        W35402   9.299   1.978   1.558 -0.0534 -0.1474 -0.1347
18556W        W35403   6.862  11.994   5.313  0.1058 -0.0479 -0.0717
18557W        W35404  14.700   8.296   2.593  0.1875  0.0957  0.0757
18558W        W35405  18.453   8.073   1.516  0.1793 -0.2882  0.0341
18559W        W35406   5.840   2.275   2.697  0.2545  0.0364 -0.1316
18560W        W35407   5.103   9.782  13.476 -0.0650  0.1548  0.0831
18561W        W35408  17.494   5.906  13.363 -0.1211 -0.3706  0.2324
18562W        W35409  15.821  16.871   4.934 -0.0744 -0.1904  0.0601
18563W        W35410  15.080  18.323  15.536 -0.2149  0.1266 -0.3291
18564W        W35411  15.607  12.439   4.361 -0.1071 -0.1764 -0.0783
18565W        W35412   7.947   5.610   5.714  0.1102 -0.3107 -0.0331
18566W        W35413  11.475   4.167  11.041 -0.1852  0.0145  0.2540
18567W        W35414   6.254  10.042  14.836 -0.2329  0.0093  0.1955
18568W        W35415   4.527  18.396   0.344  0.0736 -0.0049 -0.0689
18569W        W35416   4.592   9.923   5.314 -0.0097  0.2158  0.0594
18570W        W35417  11.464  16.617  10.582 -0.0111 -0.4615 -0.1728
18571W        W35418   2.290  16.839  14.546 -0.2658 -0.0659  0.3810
18572W        W35419  15.851   4.183  10.903 -0.2784  0.0723 -0.2439
18573W        W35420  10.884   6.989   2.537  0.0091 -0.1334  0.0318
18574W        W35421   6.208  14.491  12.062 -0.0662 -0.1704  0.0796
18575W        W35422   4.708  15.796   3.473 -0.1702  0.0527 -0.5012
18576W        W35423  14.760  16.201   3.778  0.0360 -0.1459  0.1614
18577W        W35424  10.058  17.869   0.031 -0.0874 -0.1365 -0.2752
18578W        W35425   0.878   7.527  14.392  0.0049 -0.2196  0.1127
18579W        W35426   1.299  15.279  11.368  0.0262 -0.4161 -0.2944
18580W        W35427   6.553  16.737   2.341  0.0141 -0.0237  0.1326
18581W        W35428  14.308  12.559  13.497 -0.0372 -0.1254 -0.4266
18582W        W35429  11.604   9.812   3.262  0.0968 -0.2579  0.0378
18583W        W35430  15.492   6.261  12.680 -0.2575 -0.0115 -0.1576
18584W        W35431  18.375   6.393   4.108  0.3616 -0.1729 -0.2754
18585W        W35432  17.225   6.139   0.061  0.1675  0.0059  0.0785
18586W        W35433  11.912   6.654   1.726 -0.0588  0.0083 -0.1120
18587W        W35434   4.616  12.255   4.819 -0.1083  0.0443 -0.1353
18588W        W35435  18.399  10.626  15.480  0.0514 -0.0372 -0.0503
18589W        W35436  15.960  14.188  14.854  0.1692 -0.2686  0.1523
18590W        W35437  11.929  16.512  11.922 -0.3126  0.0392 -0.0223
18591W        W35438  17.671  16.808   4.592 -0.0362  0.3320  0.2499
18592W        W35439  12.031  13.061   4.569  0.1607  0.1059  0.0972
18593W        W35440   6.383  14.001   3.767  0.1475  0.0611 -0.0054
18594W        W35441  15.752  13.525  14.571  0.0126  0.1004  0.1624
18595W        W35442   9.707  11.393  14.191 -0.0357 -0.1382 -0.0514
18596W        W35443  17.322  17.992  13.768  0.3089  0.0626 -0.1237
18597W        W35444  17.304   2.517  15.875  0.1199  0.2466 -0.6402
18598W        W35445   2.128   1.117  13.497 -0.2537  0.2075  0.0532
18599W        W35446  11.719  10.574  13.212  0.1672  0.0464  0.0682
18600W        W35447  13.087   3.914   2.246 -0.0061  0.2747 -0.0929
18601W        W35448  15.016   0.603   0.263 -0.1086  0.0309  0.1601
18602W        W35449   1.822  10.972   4.599  0.0854 -0.1783 -0.1432
18603W        W35450   7.546   7.775   4.969 -0.2754  0.0973 -0.0861
18604W        W35451  10.101   4.342   5.857 -0.2070 -0.1287 -0.1297
18605W        W35452  17.924  10.756  11.316 -0.1955 -0.0746 -0.0117
18606W        W35453  17.394   7.910  13.852  0.2567  0.0875 -0.1140
18607W        W35454   2.795  13.904  15.029 -0.1836 -0.0733  0.0514
18608W        W35455   9.027   3.224  14.901 -0.2143 -0.1783 -0.1559
18609W        W35456  10.132  16.485  15.136 -0.0404  0.1487  0.0519
18610W        W35457  11.131   6.601   0.006  0.0197 -0.1760 -0.0590
18611W        W35458  12.167  18.422   4.959  0.2698  0.3084 -0.2592
18612W        W35459   9.695  13.883  12.262 -0.0345 -0.0067 -0.0206
18613W        W35460  17.795   5.099   2.869 -0.1201 -0.0815 -0.0006
18614W        W35461   5.896   0.668   3.845  0.0486 -0.1963 -0.0318
18615W        W35462  12.944  16.809   2.701 -0.0980 -0.1571  0.2132
18616W        W35463  18.213  13.984   3.812 -0.0225 -0.0576  0.0948
18617W        W35464   7.197  11.499  14.235  0.2712  0.1419 -0.0852
18618W        W35465  16.612  17.838   0.391 -0.6069  0.2675 -0.0132
18619W        W35466   3.756   5.696  12.514  0.3613 -0.3109  0.1626
18620W        W35467  13.004  10.630   5.312 -0.1824  0.1068 -0.3628
18621W        W35468   7.526  13.067   4.484  0.0296 -0.0107 -0.0174
18622W        W35469  16.836  17.004  15.053  0.0400  0.4093  0.2690
18623W        W35470  16.993   7.590   1.242 -0.3108 -0.0020 -0.1901
18624W        W35471   4.494   5.969  15.106 -0.4490  0.1504  0.2040
18625W        W35472   6.466   9.876  15.227  0.0659  0.2225 -0.1794
18626W        W35473   5.003  17.720   3.648 -0.2056  0.1039 -0.0050
18627W        W35474  18.039   8.927   0.384 -0.1144 -0.1627 -0.0938
18628W        W35475   4.926  15.201  12.298 -0.1564  0.2260 -0.4252
18629W        W35476  11.132   3.174  12.877 -0.0219  0.0637 -0.1361
18630W        W35477  13.007   4.507   3.918  0.1321 -0.0916  0.1377
18631W        W35478   5.616   7.517   5.097 -0.0301 -0.1464  0.0500
18632W        W35479  15.071  11.723  14.633 -0.3658  0.3813  0.0418
18633W        W35480   1.901  17.572  15.183  0.0042 -0.0841 -0.0955
18634W        W35481   1.565   7.367   2.945  0.1768  0.2813 -0.1461
18635W        W35482   5.493  11.569   1.306  0.1756 -0.2399 -0.2056
18636W        W35483   3.076   6.243  13.769  0.0093  0.1582 -0.1492
18637W        W35484  15.987   7.521   4.168  0.0896  0.1567 -0.0327
18638W        W35485   1.494  16.620  11.501  0.1684 -0.1427  0.2607
18639W        W35486   7.824  10.084  15.821 -0.1401  0.0910 -0.0514
18640W        W35487  14.260  14.518   5.106 -0.1516  0.2199  0.0879
18641W        W35488   3.495  18.154  12.008 -0.1770 -0.2094  0.1510
18642W        W35489   6.993  11.250   1.416 -0.1126 -0.0003 -0.1568
18643W        W35490  16.194  13.832   1.937 -0.0539 -0.0991  0.3768
18644W        W35491  10.433  18.455   2.299  0.0052 -0.2093 -0.0939
18645W        W35492   8.007  14.815  14.334 -0.0240  0.0644 -0.1618
18646W        W35493   5.107  15.483  13.229 -0.0027 -0.1918  0.1205
18647W        W35494   0.334   5.748  11.772 -0.0873  0.0099 -0.1412
18648W        W35495   7.374  17.699   1.774  0.3400 -0.0434 -0.2667
18649W        W35496   2.856   8.060  15.606 -0.1515 -0.0392 -0.2859
18650W        W35497   6.332   8.548  11.588 -0.1360  0.2964 -0.2474
18651W        W35498   8.493   5.005   3.098  0.1579 -0.1961 -0.0498
18652W        W35499   5.390   8.860  12.714  0.0432 -0.0960  0.1923
18653W        W35500  12.803  18.148   3.000 -0.0321 -0.0938 -0.1119
18654W        W35501  18.380   8.549   3.873 -0.0358 -0.0920  0.1098
18655W        W35502  18.057  17.549   4.786 -0.2539  0.1703  0.1146
18656W        W35503  17.677  15.033  12.914 -0.1594 -0.4020 -0.0919
18657W        W35504  12.567  14.072   1.459 -0.2380 -0.0429  0.2132
18658W        W35505   1.767  15.852   4.015  0.2248 -0.0797  0.1413
18659W        W35506  15.023  14.127   5.484 -0.2158  0.0948  0.1749
18660W        W35507   2.140  16.612   0.147 -0.0460  0.3812 -0.0441
18661W        W35508   7.585   3.888   4.367  0.2384  0.0981  0.0716
18662W        W35509   3.074   2.811   2.056 -0.1302  0.1950 -0.0146
18663W        W35510   0.709   4.841  14.398 -0.0386  0.2529 -0.0499
18664W        W35511  14.665  10.597   3.937 -0.1528  0.0238  0.0351
18665W        W35512   2.000  16.911  15.236  0.1908  0.0591  0.3200
18666W        W35513   5.157   8.471   2.671 -0.2586  0.1732  0.4860
18667W        W35514   8.729  12.558   0.372 -0.0691  0.0486  0.1707
18668W        W35515  10.310   7.050   1.834 -0.1745  0.0140  0.0950
18669W        W35516   3.624  16.427  12.776  0.1308  0.1800  0.1230
18670W        W35517  11.805   3.895   2.998  0.1937 -0.2149  0.0588
18671W        W35518  16.046   0.566  15.279 -0.1095  0.1035 -0.2140
18672W        W35519   9.381   3.057  11.952 -0.0889 -0.2287 -0.3104
18673W        W35520   4.316   9.298  11.397 -0.2583 -0.0728  0.1453
18674W        W35521   1.157   3.962   1.633 -0.4171  0.1316 -0.3551
18675W        W35522  17.900   6.331   1.646  0.1607  0.0179 -0.1895
18676W        W35523   5.490   6.783   4.383  0.1446  0.0444  0.1667
18677W        W35524  11.653   2.499  14.929  0.2204 -0.3590  0.1225
18678W        W35525   7.163   5.504  11.907 -0.1501  0.0678 -0.1994
18679W        W35526  15.943  13.157  11.765 -0.2250  0.1116  0.0637
18680W        W35527   6.652  14.671  13.112  0.0394 -0.0209  0.1274
18681W        W35528   8.885  16.168   2.899  0.2120  0.2805 -0.2403
18682W        W35529   2.765   4.646  11.593  0.1116 -0.0327  0.1927
18683W        W35530   8.288  15.891  11.795 -0.1131  0.1899  0.1491
18684W        W35531  15.215  15.108   1.475 -0.3766 -0.1351 -0.0452
18685W        W35532  10.913   2.032   4.798 -0.2352 -0.0867 -0.0576
18686W        W35533   8.606  12.682  13.182 -0.2438  0.0114  0.1041
18687W        W35534  11.016  14.979  15.392  0.1106 -0.2799  0.2280
18688W        W35535   4.234  12.747   3.334 -0.1518 -0.1849 -0.0289
18689W        W35536   6.605  14.746  13.704 -0.2311  0.1460 -0.2291
18690W        W35537   2.277  16.715   2.338  0.0509  0.0144 -0.2737
18691W        W35538   0.513  13.312  11.526  0.1315 -0.5227 -0.0431
18692W        W35539   5.860  17.830   1.431 -0.2219 -0.1411 -0.2621
18693W        W35540   6.685  16.704  10.866  0.5179 -0.1063  0.1642
18694W        W35541  11.100  17.171   4.988  0.1053  0.0991  0.0579
18695W        W35542  16.122   6.200  15.499 -0.1542  0.1542  0.0285
18696W        W35543   3.830   4.195   1.697 -0.2078 -0.1771  0.0275
18697W        W35544  14.748   3.408   0.292  0.0299 -0.0161 -0.0601
18698W        W35545  14.098  14.361  12.486  0.0317  0.0331  0.0735
18699W        W35546  11.492   2.655   0.363  0.0217  0.0487 -0.0414
18700W        W35547   3.900   3.946  11.226 -0.3547  0.0872  0.2932
18701W        W35548  10.596  16.651   0.161 -0.1198  0.3144 -0.3900
18702W        W35549   2.226  12.404   1.847  0.1387 -0.3244  0.0883
18703W        W35550   7.711   3.715  11.669 -0.0123  0.2579 -0.0620
18704W        W35551  13.829  10.159  12.773  0.2682 -0.1615  0.0746
18705W        W35552  12.207   8.947  13.770 -0.1414 -0.1805  0.3512
18706W        W35553  10.896   7.949   4.659 -0.2362 -0.0493 -0.3370
18707W        W35554   2.208  11.457   1.648  0.2824 -0.0358  0.0041
18708W        W35555   4.369   9.822  11.142  0.2191  0.2165 -0.0115
18709W        W35556  11.094   6.966  13.313  0.2383 -0.1327 -0.0816
18710W        W35557  12.611   5.985  13.515 -0.0545  0.1284  0.0267
18711W        W35558  11.301   6.739   2.614 -0.3248  0.0593  0.3518
18712W        W35559   4.414  16.942  11.492 -0.2688  0.1413  0.1306
18713W        W35560  16.284   2.839   4.444 -0.0694  0.2042  0.0639
18714W        W35561   6.175   2.680  13.379 -0.2051  0.2972 -0.2324
18715W        W35562   2.538  13.236   4.688  0.1046 -0.1972 -0.0236
18716W        W35563  13.392   8.082   0.562 -0.1071  0.2182  0.4591
18717W        W35564  11.298  11.358  13.969 -0.0764 -0.0070 -0.2140
18718W        W35565   8.039   5.403  13.843  0.0108 -0.1496 -0.3225
18719W        W35566   2.654   8.906  14.850 -0.0782 -0.0837 -0.2434
18720W        W35567   9.870  10.968  13.391  0.1872 -0.2980 -0.1396
18721W        W35568  15.007   3.635  15.861  0.0054 -0.2019  0.0748
18722W        W35569   2.375  18.309  14.113 -0.3605 -0.5682  0.3309
18723W        W35570  17.910   9.268  15.521  0.0490  0.1476 -0.0673
18724W        W35571   8.011   9.541  14.250 -0.0968  0.0628 -0.0451
18725W        W35572  17.959  18.513  15.310  0.0537 -0.1009  0.1200
18726W        W35573   4.140  12.169  14.016 -0.1844 -0.1892  0.1223
18727W        W35574  14.346   7.568  15.915  0.2377  0.3007  0.0836
18728W        W35575  11.530   6.573   4.945 -0.0016 -0.1867 -0.2249
18729W        W35576  10.533  17.307   4.039 -0.1270 -0.0652 -0.1299
18730W        W35577  14.400   9.195  12.237 -0.0286 -0.0608  0.1491
18731W        W35578  15.078  14.065  15.352 -0.2500 -0.2173 -0.2540
18732W        W35579   6.857  10.147   0.363 -0.2605  0.0576  0.2454
18733W        W35580  14.430   4.044  14.314 -0.0760 -0.0258  0.2423
18734W        W35581  13.336   1.903   3.045  0.1624  0.0925 -0.1576
18735W        W35582  18.014   5.245  13.846  0.1532  0.0560  0.0561
18736W        W35583   9.092   9.299   3.448 -0.0295 -0.0009 -0.1392
18737W        W35584   0.009   0.787   0.435  0.2721 -0.2569 -0.1628
18738W        W35585   0.552  15.385  15.001 -0.0261  0.1648  0.0988
18739W        W35586   4.837   3.526   0.263  0.2376  0.0132  0.0956
18740W        W35587  12.292   8.665   4.798  0.0522 -0.0920  0.0017
18741W        W35588   9.577  15.948  12.445  0.3255  0.1264 -0.1245
18742W        W35589  15.882  16.033  12.516 -0.2538  0.1586  0.2464
18743W        W35590  11.514  12.651   0.761  0.0401 -0.2121 -0.0528
18744W        W35591  17.461   5.037   0.624 -0.0951 -0.1782 -0.0923
18745W        W35592  11.557   2.032  13.713 -0.0946  0.0741 -0.1692
18746W        W35593  11.950   9.113  12.527 -0.2307  0.0857 -0.2293
18747W        W35594   7.177   1.910   3.653  0.1721  0.1676  0.1350
18748W        W35595   0.065   9.708   2.339 -0.0790  0.2676 -0.0163
18749W        W35596  12.039   7.256  10.358  0.2220 -0.0345 -0.1711
18750W        W35597  15.981  11.458  15.642  0.1311  0.0792  0.2319
18751W        W35598   0.835   2.210   4.408  0.0249 -0.2548 -0.1687
18752W        W35599   6.115   5.085   0.364 -0.0543  0.2235 -0.2002
18753W        W35600   4.033  11.658  13.201  0.0875 -0.3489  0.0322
18754W        W35601  13.618  15.515  15.699 -0.1863 -0.2531  0.1253
18755W        W35602   0.242   4.335   4.429  0.0195 -0.0769 -0.0238
18756W        W35603  12.887  15.641  11.803  0.3799 -0.0333  0.2173
18757W        W35604  10.039   9.344   0.954  0.1316  0.0787  0.2385
18758W        W35605  17.667   9.191   4.253  0.1032 -0.0861 -0.1023
18759W        W35606   3.796  15.610  14.515 -0.4491 -0.1723  0.2088
18760W        W35607  10.834   1.774   2.403 -0.5154 -0.1065  0.0893
18761W        W35608   3.035   5.483   4.384 -0.0593  0.1672  0.2036
18762W        W35609   2.966   8.173  13.750 -0.0931 -0.1998  0.3083
18763W        W35610   0.238   0.956   1.686 -0.0290 -0.2154 -0.0064
18764W        W35611  17.512   1.510  12.142  0.1039 -0.1613 -0.2420
18765W        W35612  14.294  16.015  14.783 -0.1652 -0.1287 -0.3604
18766W        W35613  15.380   5.729   0.052  0.0056  0.3638 -0.2210
18767W        W35614  14.315  11.789  15.319  0.0476  0.0270  0.1149
18768W        W35615   0.383  10.967   4.904 -0.1021  0.1882 -0.0757
18769W        W35616   4.271   8.417  12.139 -0.2591  0.3759 -0.1958
18770W        W35617   8.220  16.367  13.549 -0.1306  0.0767  0.2071
18771W        W35618  11.392  10.216   2.081 -0.0409  0.2588 -0.2086
18772W        W35619   0.845  16.930   2.900  0.3322  0.0039  0.0687
18773W        W35620  10.458  12.715  14.230 -0.0865  0.0864 -0.0511
18774W        W35621   1.578   7.381  12.667  0.0582 -0.3339 -0.0044
18775W        W35622   7.072  15.076  10.575 -0.1353 -0.1929  0.4126
18776W        W35623  16.473   6.291  10.874  0.0792  0.2605  0.0627
18777W        W35624   6.310   9.288   4.388  0.0998  0.3107  0.1658
18778W        W35625   9.738   6.434   3.739 -0.0202 -0.1038  0.3035
18779W        W35626   7.422  17.712  12.851  0.1342  0.0481 -0.1700
18780W        W35627   2.955  13.402  15.847 -0.1480 -0.2505  0.2481
18781W        W35628   3.151  15.798  12.001  0.1266 -0.2637  0.0273
18782W        W35629   7.046   2.075  11.100 -0.2365 -0.0114 -0.1934
18783W        W35630  11.068   9.186   5.166 -0.1440 -0.1011  0.0592
18784W        W35631   7.145   4.975   2.187 -0.3830  0.0112  0.1047
18785W        W35632  10.978  15.577   5.226  0.0005 -0.0031  0.1302
18786W        W35633  15.290   8.548  13.635 -0.0399 -0.0097 -0.0728
18787W        W35634  18.201  13.000  15.777 -0.1296 -0.1167  0.2036
18788W        W35635  16.090  16.440  14.680  0.1349  0.0089 -0.1306
18789W        W35636  11.719   8.096  13.012 -0.0966  0.0675 -0.0297
18790W        W35637  13.441   9.408  13.138  0.1578  0.0546 -0.1393
18791W        W35638   4.539   3.109   3.748 -0.1124  0.1121  0.1826
18792W        W35639   3.427  12.418  15.824 -0.0899  0.0866  0.0340
18793W        W35640  18.344   4.699   0.089  0.2762 -0.4015 -0.1016
18794W        W35641  13.488   9.951  11.227 -0.2583  0.4192 -0.0964
18795W        W35642   7.582   5.932   5.539 -0.0692  0.4543  0.1102
18796W        W35643   5.419   0.815   4.643  0.1709 -0.0801 -0.0191
18797W        W35644  15.863  11.322  13.700 -0.0530 -0.2543 -0.0286
18798W        W35645  12.230  12.436  12.093  0.0524 -0.1586 -0.0573
18799W        W35646   7.066   2.160   1.154  0.0568 -0.0684 -0.1811
18800W        W35647   8.728  11.360  12.515 -0.3191  0.1756  0.1159
18801W        W35648   8.118  12.264  11.996 -0.1163 -0.0389  0.2280
18802W        W35649   3.408   0.695   1.692 -0.2809 -0.1026 -0.0654
18803W        W35650  11.022  17.943  13.340 -0.0030  0.0122 -0.0284
18804W        W35651   0.117   3.161   5.912 -0.1285 -0.0083  0.1171
18805W        W35652   3.221  16.089   1.352 -0.1239  0.2821 -0.2492
18806W        W35653   9.497   2.185  12.030 -0.1873 -0.3641 -0.1176
18807W        W35654  17.044  16.456   5.498 -0.2097 -0.2819 -0.1678
18808W        W35655  10.303   8.422  12.838 -0.1630  0.1882  0.1257
18809W        W35656   1.967  16.041  13.594  0.0771 -0.1852  0.3234
18810W        W35657  16.852   1.792   0.232  0.2855 -0.2207  0.2133
18811W        W35658   4.363  18.064  15.355 -0.2341 -0.2033  0.1731
18812W        W35659   4.961  11.174  11.692  0.2634 -0.2161  0.2804
18813W        W35660   7.251  18.085  12.148 -0.3213  0.2426  0.2681
18814W        W35661   6.653   3.444   3.113  0.0033  0.0399  0.2231
18815W        W35662   0.899  13.151   1.064  0.1029  0.0958 -0.0219
18816W        W35663  16.054  14.645  14.575  0.0003 -0.2207 -0.2243
18817W        W35664   6.201  10.549  14.915  0.0390 -0.1231  0.1392
18818W        W35665  12.269   8.533   2.274 -0.0304 -0.1485 -0.0823
18819W        W35666  13.062   4.101  14.041  0.0617 -0.0166 -0.3521
18820W        W35667  18.037   5.485  11.446  0.1290  0.0207  0.0040
18821W        W35668   6.251   4.922  15.843  0.0773  0.2215  0.0019
18822W        W35669   1.896   9.176  13.860 -0.0885  0.3905  0.1009
18823W        W35670   1.496  13.536  15.464  0.0268 -0.1588  0.2035
18824W        W35671  14.672   2.118   0.283  0.0650  0.3435  0.0110
18825W        W35672   0.722  11.183   2.366  0.0932 -0.1906 -0.1290
18826W        W35673  10.384  12.582   0.927  0.0626 -0.0245  0.0512
18827W        W35674   8.059   0.711  13.203 -0.1251 -0.1240 -0.0169
18828W        W35675   8.917   0.118   2.949 -0.2953 -0.1463 -0.1187
18829W        W35676  16.872  14.703   5.073 -0.0763 -0.3906 -0.6491
18830W        W35677  12.774   1.760   3.830 -0.0885  0.2706  0.1917
18831W        W35678  10.434  12.560  15.636 -0.1840  0.1457 -0.0798
18832W        W35679   3.095  10.012  14.361  0.0096 -0.2732  0.1671
18833W        W35680  14.136  15.584  15.670 -0.0596  0.0544  0.1571
18834W        W35681   9.478   1.244   5.049 -0.0198  0.1315 -0.0150
18835W        W35682  16.544   6.753   2.886  0.0720 -0.2070  0.1933
18836W        W35683  18.044   8.109  11.518 -0.1759 -0.2851  0.4442
18837W        W35684  14.961   3.561   0.764 -0.0097 -0.0515 -0.0949
18838W        W35685  15.490  12.673   2.522  0.3042  0.2540 -0.2483
18839W        W35686  14.840   8.275  14.849  0.1582 -0.1905 -0.0258
18840W        W35687   1.061  12.074  15.240  0.0769 -0.0477  0.1045
18841W        W35688  16.149  10.123   3.172  0.1010  0.0368 -0.0146
18842W        W35689   5.543   2.962   4.557 -0.2129  0.1340 -0.1742
18843W        W35690   0.548   9.546  12.974  0.1403 -0.3927  0.1472
18844W        W35691   8.948  10.092   0.592 -0.2740 -0.3060 -0.0403
18845W        W35692   6.021   2.929   1.921  0.1981  0.2724  0.0255
18846W        W35693   9.224   0.987  13.450 -0.1973  0.0832  0.0153
18847W        W35694   1.386  12.864   4.235  0.1455  0.1020 -0.1532
18848W        W35695  18.493   1.190   0.820 -0.1803 -0.1107 -0.1528
18849W        W35696   7.860  17.672  14.048 -0.2209  0.0462  0.0024
18850W        W35697  15.820   7.462   0.532 -0.0742 -0.0710  0.1756
18851W        W35698  15.977  18.345   0.523 -0.1110  0.1208 -0.0571
18852W        W35699   5.329   8.261   4.699 -0.1397 -0.3495  0.4311
18853W        W35700   0.118  13.948  15.336  0.1559 -0.2193  0.0808
18854W        W35701  12.008   2.560   4.951 -0.1891 -0.2178  0.2241
18855W        W35702   1.332   5.262  15.705  0.0674 -0.2308 -0.1779
18856W        W35703   8.834   0.097  11.345 -0.3719 -0.0154  0.0934
18857W        W35704   4.639  15.193   1.907  0.0245 -0.1725  0.0589
18858W        W35705   1.743   5.511   2.262  0.2600 -0.3010 -0.1324
18859W        W35706  14.361  11.153  13.029  0.2581 -0.0417 -0.0303
18860W        W35707  17.355   1.380   2.272  0.0288 -0.0574 -0.2134
18861W        W35708   7.665   5.405  11.889  0.2137  0.5245 -0.1785
18862W        W35709  15.655  12.841  15.030  0.2998  0.0213 -0.1261
18863W        W35710   7.928   4.380   5.025  0.3384  0.0626 -0.3035
18864W        W35711   4.392  12.964   4.161  0.1219  0.2397  0.2196
18865W        W35712   4.798   6.971  11.976  0.3815  0.0878  0.1072
18866W        W35713   0.966  11.611   3.754 -0.0078  0.0870 -0.0512
18867W        W35714  14.391   8.490   1.734  0.2570 -0.0314 -0.0266
18868W        W35715  13.803   4.782  10.597 -0.0051 -0.2454 -0.1808
18869W        W35716   6.188  18.262   1.849  0.1580 -0.0108  0.0176
18870W        W35717  13.700  11.257   2.435 -0.0820  0.0869 -0.1552
18871W        W35718  16.428   9.225   4.873  0.0900 -0.0703 -0.0983
18872W        W35719  18.166  11.138   4.651 -0.0341  0.0192  0.2540
18873W        W35720   9.335  16.349  11.086 -0.3858 -0.4679 -0.1069
18874W        W35721  12.866  10.329   5.736 -0.2241  0.1298  0.3935
18875W        W35722   4.571   6.763   0.843 -0.2536 -0.0880 -0.2694
18876W        W35723  15.099   6.769  11.876  0.0790  0.1566  0.5134
18877W        W35724   1.833  13.615  12.123 -0.0537 -0.0161 -0.4020
18878W        W35725   1.592  10.622   4.382  0.0310  0.0326  0.2586
18879W        W35726   0.993   9.037   0.492  0.0310  0.0837 -0.3900
18880W        W35727  10.918   0.215   1.992  0.1489 -0.0105  0.1099
18881W        W35728  12.176  16.786   0.593 -0.0044  0.0574  0.3833
18882W        W35729   0.616  15.601   4.874 -0.0280  0.0124  0.0498
18883W        W35730  15.707  14.029   6.243  0.0383 -0.1262  0.2428
18884W        W35731  15.197  12.849   3.404  0.2202 -0.2172 -0.0558
18885W        W35732  15.243   7.679   4.081  0.4149  0.1619 -0.0628
18886W        W35733  16.364  13.449   1.623  0.3967 -0.2939  0.0404
18887W        W35734   9.513   7.451   2.929 -0.3855  0.3467 -0.1352
18888W        W35735   3.186  16.878   1.926 -0.1044 -0.1619 -0.0692
18889W        W35736   3.051   1.122  11.933 -0.1043 -0.1422 -0.0413
18890W        W35737  18.459   1.374  12.210  0.0128 -0.1673  0.3740
18891W        W35738   9.478   0.568   0.235 -0.0459  0.0917  0.2327
18892W        W35739   2.202   3.517  10.747 -0.3216 -0.4160  0.0317
18893W        W35740   7.042   8.886  14.339 -0.1948 -0.0622  0.1572
18894W        W35741   5.109   4.612   2.815 -0.2148 -0.3112 -0.1374
18895W        W35742   8.733  10.178  11.644  0.1960 -0.0113  0.1597
18896W        W35743  16.283  14.177  11.332  0.0830 -0.3251 -0.0328
18897W        W35744   0.669  11.402   3.318 -0.1160 -0.0387 -0.0940
18898W        W35745  17.141   0.809   0.730  0.1448 -0.1940  0.0927
18899W        W35746  15.364   8.507  13.134  0.0871 -0.1945  0.0013
18900W        W35747   9.481   7.909  13.282  0.3234 -0.1263  0.3242
18901W        W35748  13.501  17.585  11.909  0.1225 -0.2121 -0.0057
18902W        W35749  16.447  16.876  15.500 -0.1801  0.0485 -0.2029
18903W        W35750   4.114  12.385  12.627 -0.0570  0.4121 -0.2481
18904W        W35751  17.791  15.335  15.663 -0.1807  0.1544  0.0771
18905W        W35752   0.201  11.977   4.865 -0.2669 -0.0427 -0.2790
18906W        W35753  10.169   2.762  14.192 -0.2443 -0.1146  0.3327
18907W        W35754   2.509   5.797   2.181  0.1958 -0.1572  0.1270
18908W        W35755   7.934  11.172   3.705 -0.3724 -0.0165  0.0397
18909W        W35756  14.013  15.577   1.500  0.1938  0.0863 -0.1776
18910W        W35757   7.961  10.646  14.337  0.0063 -0.0595 -0.1317
18911W        W35758  16.006   6.145  12.737  0.2100  0.0428 -0.0987
18912W        W35759   6.847   3.610  13.011 -0.1592 -0.3913  0.0744
18913W        W35760   1.441   8.189   2.965  0.4903 -0.0985  0.0196
18914W        W35761   2.867  14.393  12.009  0.0310  0.0845 -0.2370
18915W        W35762  15.603   7.635  11.570  0.0840 -0.2241  0.1033
18916W        W35763  13.008   1.772   4.614  0.1792 -0.0181 -0.1666
18917W        W35764   6.471  11.328  10.983  0.1998  0.0804 -0.0012
18918W        W35765  17.582   0.076  14.950  0.1472 -0.0670 -0.0537
18919W        W35766   0.393   3.174   4.578 -0.0055  0.1518 -0.4043
18920W        W35767   8.524  14.616  11.959 -0.1289  0.1184  0.2478
18921W        W35768   9.389  18.165  15.342  0.1018  0.1900 -0.0085
18922W        W35769   9.125  11.430   5.110 -0.1185 -0.0391 -0.0869
18923W        W35770  13.435  14.876   3.784  0.2036  0.2607  0.1042
18924W        W35771  10.121   8.532   0.744  0.2432  0.0849  0.1605
18925W        W35772  11.368   9.136   4.662 -0.2417  0.0233  0.0671
18926W        W35773   8.638  14.674  14.437  0.1800 -0.0677  0.2516
18927W        W35774   7.662  16.499  13.365 -0.2562  0.1165  0.2600
18928W        W35775  13.830   1.644   0.931 -0.2506  0.2415 -0.1972
18929W        W35776  11.721  13.331  13.434  0.2139 -0.1764 -0.2875
18930W        W35777   0.605   0.252  13.272  0.0816  0.1830  0.1051
18931W        W35778  14.789   9.071   4.299  0.1344  0.1562  0.0011
18932W        W35779   7.414   4.290   4.144  0.1981 -0.0515 -0.1594
18933W        W35780  12.068   7.761   4.715  0.0438 -0.1317 -0.3035
18934W        W35781  12.308   8.468   5.350 -0.1724  0.0068  0.0715
18935W        W35782  18.119   9.311   0.805 -0.0793  0.0022  0.2189
18936W        W35783   9.072  11.345   2.952  0.3291 -0.1398 -0.0995
18937W        W35784   0.842  10.286   4.070  0.0106  0.1087  0.0639
18938W        W35785  16.291  12.638   2.056  0.0895  0.2812 -0.2090
18939W        W35786   2.331   2.160  15.179  0.1776  0.3827 -0.2536
18940W        W35787  16.106  12.047  10.906 -0.2151  0.2076  0.1804
18941W        W35788   1.548  15.728   4.449  0.1789 -0.1265 -0.5473
18942W        W35789   6.286   5.234   1.807 -0.0126  0.4489 -0.2505
18943W        W35790  12.777  14.108  14.467 -0.2743  0.0310 -0.1856
18944W        W35791  16.926   4.117  11.559 -0.1379  0.3431 -0.1515
18945W        W35792  15.899  16.672   0.676  0.4839  0.1468  0.1787
18946W        W35793   3.207   9.395   1.863 -0.1411  0.0511  0.1120
18947W        W35794  13.168   2.224   2.608 -0.1194 -0.2964 -0.2410
18948W        W35795  11.148  12.644   0.338  0.2102 -0.0503  0.0200
18949W        W35796   4.833  11.565  12.243 -0.0169  0.2473  0.1132
18950W        W35797  17.612  14.501   0.926  0.0711 -0.1503  0.1462
18951W        W35798  16.343  16.001   1.994 -0.1383 -0.2222  0.1679
18952W        W35799   5.969   3.118  10.938 -0.1328 -0.1634 -0.2465
18953W        W35800  13.603  12.389   1.127 -0.0389 -0.0632  0.1745
18954W        W35801  15.194   5.197   3.847 -0.1077 -0.0569  0.3456
18955W        W35802  10.270  16.279  11.294  0.1222  0.3447 -0.2780
18956W        W35803  13.127   6.088  10.586  0.2057  0.1573  0.2186
18957W        W35804   4.464  17.237  12.524 -0.0604  0.1098 -0.1703
18958W        W35805   4.397  16.874   5.785  0.0682  0.0866  0.3437
18959W        W35806  11.326  10.993   1.879 -0.2087  0.0123 -0.2400
18960W        W35807  11.864  17.705  15.415  0.1872 -0.1573 -0.0476
18961W        W35808   8.096   4.107   0.014 -0.0422  0.0657  0.0490
18962W        W35809  18.233  11.262   3.066  0.1722  0.0046 -0.1163
18963W        W35810  11.497   4.194  12.694 -0.0176 -0.1226  0.0452
18964W        W35811   6.811   3.136   0.787 -0.0124 -0.0281 -0.1013
18965W        W35812  10.711   4.590   9.515  0.0432 -0.0816 -0.0859
18966W        W35813  10.614   6.045  15.392  0.0005  0.2069 -0.0906
18967W        W35814   2.877   0.071  12.138 -0.3131  0.1929  0.4731
18968W        W35815  11.968   6.546   3.407  0.0564  0.2074 -0.3366
18969W        W35816  17.302  11.161  13.870  0.0568  0.1948 -0.0150
18970W        W35817   4.014  10.859  15.076  0.0678  0.2480  0.0164
18971W        W35818  10.407   9.623   1.187  0.1097  0.2511  0.1369
18972W        W35819  10.941   4.045   2.876  0.0469 -0.0914 -0.3037
18973W        W35820  11.018   5.590   1.804 -0.1184 -0.1571  0.0419
18974W        W35821   2.059  12.440   4.346 -0.0797  0.2933 -0.0475
18975W        W35822   0.290   0.999  14.384  0.3069 -0.0496 -0.1211
18976W        W35823   0.224   2.525   0.104 -0.0247  0.4522 -0.2136
18977W        W35824   8.692   1.658  15.112  0.0581  0.1619  0.0499
18978W        W35825   1.521   5.512  12.592 -0.1983  0.0648 -0.1813
18979W        W35826   2.529   0.041   0.451  0.2559  0.0196  0.1508
18980W        W35827  14.054  17.097  12.591  0.0614  0.1421 -0.1705
18981W        W35828  13.884   5.510  13.009 -0.0148  0.2085  0.1148
18982W        W35829   1.161  15.213   4.068 -0.0772 -0.2195  0.0196
18983W        W35830  11.380  15.949  15.502 -0.0374  0.2802  0.4551
18984W        W35831   5.198  13.975  12.774 -0.0798 -0.2629 -0.0594
18985W        W35832   1.212   4.285   4.563 -0.2265 -0.0375  0.1539
18986W        W35833  13.830   8.629   3.811 -0.2185 -0.1932 -0.2337
18987W        W35834  17.994   9.279  14.217  0.1182 -0.2601 -0.2637
18988W        W35835  10.662   2.449   2.633 -0.1196 -0.0331  0.1389
18989W        W35836  16.184   4.201  11.248  0.0766  0.4163  0.0069
18990W        W35837   4.817   4.775   1.160  0.3376  0.0351  0.3718
18991W        W35838  14.774   1.895   0.695  0.4777  0.1033 -0.0145
18992W        W35839  12.866   0.069   3.294 -0.2191  0.0058 -0.0585
18993W        W35840  16.248  11.151  11.154  0.0009  0.2048  0.1656
18994W        W35841   1.584  10.518  14.133 -0.1164  0.0299 -0.0433
18995W        W35842   4.842   0.692  11.378  0.2575  0.0249 -0.1587
18996W        W35843   0.613   1.436   2.256  0.0480  0.4112 -0.1773
18997W        W35844   9.699  17.075  12.150  0.1833  0.1326  0.0634
18998W        W35845   5.753  15.756  15.248 -0.0364  0.2359  0.3089
18999W        W35846   6.902   6.422  13.154  0.0632 -0.1748  0.1815
19000W        W35847  10.070   4.351   2.786 -0.1480  0.1070  0.0124
19001W        W35848   6.937  16.053   5.023  0.0245 -0.0353  0.0005
19002W        W35849  10.198  15.568   3.018  0.0420 -0.2224 -0.2146
19003W        W35850   4.515  11.564   0.502 -0.3145 -0.0617 -0.2433
19004W        W35851   3.023  18.117  14.793 -0.0678 -0.0760 -0.1689
19005W        W35852   3.963  11.033  11.700  0.2806 -0.2330  0.2550
19006W        W35853  15.294   6.239  12.211  0.1044  0.0455  0.0733
19007W        W35854  12.710  10.996  11.717  0.1099 -0.3681 -0.2970
19008W        W35855   0.973  10.830   0.416 -0.1757  0.0109  0.0486
19009W        W35856   7.101   0.872   2.418  0.0745 -0.1349  0.0276
19010W        W35857   0.010   0.868   3.841 -0.0216  0.1368 -0.1442
19011W        W35858   4.096  16.505  14.563 -0.0618  0.1027  0.4379
19012W        W35859  10.792   6.127  12.951 -0.1687 -0.2145  0.2290
19013W        W35860  14.869  16.470   0.224 -0.0100  0.1765 -0.3002
19014W        W35861   9.183  17.070   2.811  0.2347 -0.2711  0.4758
19015W        W35862   4.191  11.142   0.427  0.0403 -0.0531 -0.2211
19016W        W35863   7.590   7.407  13.225 -0.0244  0.1815  0.1948
19017W        W35864   0.879  14.984   3.760 -0.2160 -0.0838  0.2018
19018W        W35865  15.107   1.456   5.472  0.1915 -0.0778  0.0334
19019W        W35866  14.963   4.310  11.174 -0.1455  0.2172 -0.1736
19020W        W35867  14.046   6.224  15.071  0.1828  0.1260 -0.3094
19021W        W35868   3.932   8.446  11.187 -0.0519  0.1079  0.0786
19022W        W35869  18.377   4.674   3.205  0.0535 -0.1654  0.4698
19023W        W35870   2.633  11.388  15.513  0.1035 -0.0630  0.3377
19024W        W35871   5.908  11.744  11.561  0.1079  0.0423  0.1281
19025W        W35872   0.509   3.928   2.901 -0.1980 -0.0884 -0.0229
19026W        W35873  17.972   1.993   0.420  0.2073 -0.0635  0.2646
19027W        W35874   8.420  12.062   3.092 -0.1841 -0.0059  0.0013
19028W        W35875   3.418  11.483  13.195 -0.0475 -0.1640 -0.1677
19029W        W35876  13.097  16.824  11.985  0.0623 -0.0789  0.0381
19030W        W35877   5.345   5.731   0.141  0.5797  0.1713  0.1345
19031W        W35878  14.994   8.571   0.693 -0.0466 -0.0495  0.0614
19032W        W35879   9.731   2.349  13.241 -0.0587  0.1212 -0.2549
19033W        W35880  11.551   2.108   0.343 -0.0820  0.0672 -0.0156
19034W        W35881   4.343   3.231   5.410 -0.0416  0.1711 -0.2123
19035W        W35882  16.188  10.874  15.639  0.1400 -0.1779  0.2131
19036W        W35883  15.437   4.062   3.674  0.2403  0.2900  0.0493
19037W        W35884  12.141  12.530  12.792  0.0436  0.1527  0.2397
19038W        W35885   6.181   7.206  14.846 -0.1830  0.0311  0.1083
19039W        W35886  12.451   9.413   3.494 -0.0536 -0.0423 -0.0136
19040W        W35887   5.956  11.784  15.801  0.0363 -0.1108 -0.1127
19041W        W35888   5.456   4.803   1.851 -0.0159  0.0645  0.0815
19042W        W35889   5.216   3.398  11.773  0.1750 -0.1431 -0.2392
19043W        W35890   3.325  11.035  13.370 -0.1271  0.0818  0.1523
19044W        W35891  10.816   2.278  14.643  0.0069 -0.1612  0.0048
19045W        W35892   6.880   0.424   2.585 -0.0086 -0.0347 -0.0934
19046W        W35893  18.356  14.424  12.680 -0.3418 -0.1071  0.2859
19047W        W35894  14.811   8.014  11.441 -0.1630  0.0265 -0.3004
19048W        W35895   6.859  10.693  15.012  0.0741  0.2594  0.3627
19049W        W35896   5.856   9.679  13.512 -0.2616  0.2214 -0.2727
19050W        W35897   5.482   7.963   0.640  0.0592  0.0266 -0.2151
19051W        W35898  11.662  10.474  14.395 -0.3689 -0.0041 -0.1477
19052W        W35899  16.923   0.123   1.227  0.1531  0.1322 -0.0587
19053W        W35900   5.303   3.918   4.702 -0.0196 -0.1741  0.2808
19054W        W35901   6.569   1.793  11.378 -0.1017 -0.2604 -0.5935
19055W        W35902   4.939   1.995  12.718  0.3053 -0.0409 -0.2017
19056W        W35903   7.347   1.356   0.315  0.2308 -0.0128 -0.1212
19057W        W35904   2.251   7.903   2.603 -0.2416 -0.0670  0.3037
19058W        W35905  13.149   6.068   5.906 -0.0819  0.1265  0.0826
19059W        W35906   4.981   2.538   5.128 -0.2350 -0.0882  0.3320
19060W        W35907   5.476  12.741   1.168  0.2129 -0.1598  0.0509
19061W        W35908   3.997   4.471   2.212 -0.2380 -0.1151  0.1568
19062W        W35909  11.163   6.989  10.453 -0.0054  0.0999  0.2398
19063W        W35910   9.585  17.359   3.142 -0.1874  0.0681  0.1592
19064W        W35911   0.967   9.687  15.721  0.0213  0.0471  0.0986
19065W        W35912  17.089  15.149   4.847  0.0605  0.1342 -0.0818
19066W        W35913  12.270   6.887   3.611 -0.1470  0.0169 -0.1519
19067W        W35914   2.693   5.133   4.277 -0.3440 -0.2058  0.3074
19068W        W35915   2.959  11.241   3.462 -0.3364  0.0515  0.2245
19069W        W35916  10.419  15.043   4.568 -0.0880  0.1302 -0.0326
19070W        W35917   8.600  18.108   1.817  0.3857  0.0479 -0.0527
19071W        W35918   3.477   8.715   0.808  0.4547 -0.2494 -0.2693
19072W        W35919   0.396   5.428   4.705  0.1580  0.0797  0.0813
19073W        W35920  12.950   1.398   2.780  0.0174 -0.1317 -0.0356
19074W        W35921  12.738   5.241   1.393  0.0275  0.0303  0.2237
19075W        W35922  13.699   1.571   3.693  0.0711  0.2566  0.0430
19076W        W35923   4.028   5.633  13.400  0.2566 -0.1238 -0.0544
19077W        W35924   7.841   9.994  11.017  0.0488  0.0378 -0.1489
19078W        W35925  12.085   0.674   3.246  0.0322 -0.0181 -0.3354
19079W        W35926  15.658   6.515   1.069  0.1294  0.2876 -0.0810
19080W        W35927  12.525   5.517  14.147 -0.1668  0.0550 -0.0530
19081W        W35928  11.684   9.262  10.853 -0.3728 -0.1727  0.1212
19082W        W35929  10.181  10.522   4.744 -0.0159  0.3705  0.0798
19083W        W35930  17.646  12.710  15.040 -0.0074  0.0694  0.0063
19084W        W35931   2.504   8.293   2.765  0.0119  0.2561  0.1469
19085W        W35932  13.706   8.084   2.312 -0.0607 -0.5590  0.0239
19086W        W35933  15.366  13.285   4.775  0.1201 -0.0398 -0.3257
19087W        W35934   7.047  16.346   3.092 -0.0898  0.2486  0.1084
19088W        W35935   4.801   6.669   4.267 -0.1022  0.0724 -0.2272
19089W        W35936  15.561  18.003  13.285  0.1111 -0.0302  0.0752
19090W        W35937   2.252   3.725  12.361 -0.2168 -0.0234  0.2538
19091W        W35938  11.796   5.551   2.341 -0.0332  0.3352 -0.0559
19092W        W35939   5.293   5.499  14.765  0.0241  0.1470 -0.0646
19093W        W35940  16.099   6.560   1.456 -0.1457 -0.1777  0.0584
19094W        W35941   0.203   7.186   2.665  0.0550  0.3590 -0.0271
19095W        W35942   0.125  11.659   4.378 -0.1521  0.2569  0.0183
19096W        W35943  10.555  16.939  12.458 -0.1038  0.0778  0.1972
19097W        W35944  14.953   2.466   4.775 -0.0949  0.2857  0.0500
19098W        W35945   1.965  15.795  13.168  0.2419 -0.0385  0.0801
19099W        W35946   2.344  15.180   1.541 -0.2294  0.1863  0.0472
19100W        W35947   6.642  17.047   3.225  0.2315 -0.0195  0.2483
19101W        W35948   5.692  10.978  13.552  0.1418 -0.2068  0.0126
19102W        W35949  15.797  12.645  11.202  0.0544 -0.1928  0.1061
19103W        W35950  10.733   9.085  14.588  0.0283 -0.1222  0.1870
19104W        W35951  10.922   9.740   0.880  0.2146 -0.0080 -0.0554
19105W        W35952  10.210  14.905  12.950  0.1798 -0.0094 -0.0672
19106W        W35953  18.479   6.459   3.191  0.0578 -0.4754 -0.0482
19107W        W35954   4.087  18.076   0.628 -0.0793  0.0148 -0.1504
19108W        W35955   6.962  17.901   1.610 -0.0551  0.2408 -0.2899
19109W        W35956  17.768  17.433  13.088 -0.0165  0.0502  0.2385
19110W        W35957  10.390   0.271   4.670 -0.1104 -0.3132 -0.3402
19111W        W35958  13.696   1.191  13.121  0.1014  0.1982 -0.1133
19112W        W35959   6.028  15.845  14.199 -0.1178  0.0151  0.1296
19113W        W35960   3.928  16.227  13.691 -0.2847  0.2792 -0.2278
19114W        W35961   3.311   1.182   3.321  0.1614  0.0602  0.2142
19115W        W35962   9.152  13.256   0.724  0.1959 -0.2046  0.0558
19116W        W35963  15.383   4.409  14.391 -0.0282 -0.1094 -0.1228
19117W        W35964  13.427   1.096   3.688 -0.0325  0.1171  0.0148
19118W        W35965  15.657  10.922   1.368  0.1360  0.1747  0.0999
19119W        W35966   3.378  13.614  12.963 -0.2079  0.0532 -0.2005
19120W        W35967  15.488  15.488   2.996 -0.1975 -0.0603 -0.2866
19121W        W35968  12.516   4.311  12.386 -0.1354 -0.1897  0.2188
19122W        W35969  15.340  10.591   2.268  0.1503 -0.0554  0.0413
19123W        W35970   9.395  16.686   4.278 -0.0358 -0.1338 -0.0995
19124W        W35971  15.681  11.244   0.944 -0.0400 -0.1481  0.2432
19125W        W35972   8.801  17.575  12.360  0.0303 -0.0052 -0.0957
19126W        W35973  11.295   0.923   5.327 -0.1713  0.3143  0.2191
19127W        W35974  11.959  16.883  12.830  0.0194 -0.0751  0.3080
19128W        W35975  15.107   9.618  15.901 -0.0916 -0.1156 -0.1275
19129W        W35976   5.537  11.998   3.822 -0.0725  0.1951  0.1739
19130W        W35977  13.191   5.477   1.165 -0.0121  0.4081 -0.2385
19131W        W35978  15.813  10.964  11.387 -0.1019 -0.0199  0.0213
19132W        W35979   7.394  12.073   2.774 -0.0188  0.1569 -0.0020
19133W        W35980   9.980   1.046  14.498 -0.0999 -0.1104  0.1549
19134W        W35981   0.466   2.752   2.732  0.0901 -0.0664 -0.0953
19135W        W35982  14.450  15.044   5.018  0.0407  0.0241  0.0242
19136W        W35983   8.823   5.621  15.530 -0.1313  0.1400 -0.0214
19137W        W35984   8.441  13.456   4.288 -0.1353 -0.2868  0.0955
19138W        W35985   8.319  13.213   1.414 -0.0655  0.0309  0.1306
19139W        W35986  17.722   0.246   0.152  0.0051  0.1098 -0.0673
19140W        W35987   9.393   8.106  13.785 -0.1580 -0.0360  0.0118
19141W        W35988   6.207   1.659   0.000  0.1272  0.4282  0.1158
19142W        W35989  12.749  17.694  12.101  0.1669  0.1831 -0.0729
19143W        W35990   1.721   6.258   1.852  0.1506  0.0173  0.2483
19144W        W35991   0.920   1.760  11.591  0.2060  0.2046  0.3979
19145W        W35992   3.799   3.672  13.485 -0.2083 -0.0436  0.0108
19146W        W35993  14.713  11.447   1.394  0.0492 -0.1539 -0.0796
19147W        W35994   0.859  15.218  15.875  0.3163 -0.3497  0.0504
19148W        W35995   3.065   3.412   4.894  0.1914  0.2773 -0.0421
19149W        W35996  18.433   0.039  14.480  0.0394 -0.0394 -0.4335
19150W        W35997  14.971  11.473  11.806  0.0623  0.1033 -0.1941
19151W        W35998   1.585   5.874  13.679 -0.0298 -0.1386  0.0311
19152W        W35999   1.940   9.641  12.629 -0.2468  0.0826  0.0356
19153W        W36000  13.656   6.706  11.650 -0.2590  0.0110  0.3104
19154W        W36001   6.180   0.719   5.172  0.3228 -0.5243  0.4425
19155W        W36002  13.960   5.171   0.786  0.2880 -0.1115  0.0176
19156W        W36003   8.525   3.465  15.611 -0.1651 -0.0443 -0.0291
19157W        W36004  18.305  15.598  13.553  0.0922 -0.0120 -0.1202
19158W        W36005   5.816  18.463  12.078  0.2607 -0.0077 -0.1055
19159W        W36006  16.337  11.291  11.602 -0.2042  0.2893  0.1537
19160W        W36007   7.403   9.752  12.614  0.0293 -0.0849  0.0723
19161W        W36008   5.625   4.038  12.437 -0.3053  0.0165  0.1541
19162W        W36009   3.956  16.932   2.369 -0.4021 -0.0300  0.1800
19163W        W36010   5.696   7.894  10.229 -0.0341  0.0176  0.0329
19164W        W36011  18.014   7.686  12.809 -0.1590 -0.1957  0.1609
19165W        W36012  10.914   5.474   4.359  0.0758 -0.3000  0.0438
19166W        W36013  18.481  14.193   2.502  0.1496 -0.2224 -0.0613
19167W        W36014   2.260   8.919  13.068 -0.1475  0.0661 -0.1388
19168W        W36015   8.056   5.320  15.194 -0.0653 -0.1545 -0.2194
19169W        W36016   2.289   5.407  12.521  0.1253  0.3862 -0.1876
19170W        W36017  12.093  18.387   0.260  0.2382  0.1148  0.0904
19171W        W36018   3.727   1.268   4.955  0.0700 -0.0036 -0.1151
19172W        W36019  16.326  14.292  13.471  0.0378  0.0372 -0.1436
19173W        W36020   9.124   7.521   3.695 -0.0885  0.1149 -0.2644
19174W        W36021   1.412   6.666  12.914 -0.0688 -0.0015  0.1092
19175W        W36022   0.344  11.787  11.795  0.3804  0.2213  0.2504
19176W        W36023   5.902  13.053   3.245 -0.0214  0.0874 -0.0238
19177W        W36024  11.921  12.241   1.419  0.0190  0.2376 -0.1738
19178W        W36025   9.906  12.396   0.997 -0.0282  0.0635 -0.1741
19179W        W36026  12.965   5.874   4.500  0.1728 -0.0742  0.0962
19180W        W36027  10.443  15.867  11.532 -0.2369 -0.2811  0.0678
19181W        W36028   4.752  15.835  14.974  0.0510 -0.4159  0.1128
19182W        W36029  10.796   7.809   0.889  0.0014  0.2138  0.0899
19183W        W36030   2.599   3.114   0.080 -0.1370 -0.1796  0.2110
19184W        W36031  14.365   0.624  15.439  0.0945 -0.1904 -0.0117
19185W        W36032   0.285   3.863  12.859  0.1466 -0.1206  0.3367
19186W        W36033   4.609   2.431   4.456  0.0038  0.0634  0.0435
19187W        W36034   8.287   0.365   2.377  0.0151 -0.1597 -0.0612
19188W        W36035   8.212  17.704  14.806  0.0272  0.2391  0.0457
19189W        W36036   5.563   5.837  13.528 -0.1253 -0.2677  0.2609
19190W        W36037  10.924  12.708  15.427  0.1715  0.2882  0.1301
19191W        W36038  12.460   8.190  14.713  0.2217  0.1864  0.2780
19192W        W36039  11.564   5.450   0.875 -0.0875  0.1126  0.2018
19193W        W36040   6.786   4.947  15.635  0.1448 -0.0090  0.0973
19194W        W36041  18.330   9.222  14.650  0.0151 -0.2302 -0.2884
19195W        W36042  12.024  10.000   4.686  0.0517  0.2570 -0.0855
19196W        W36043   6.884  13.089   0.391  0.2860  0.1751  0.2667
19197W        W36044   8.529   9.491  13.145  0.2325  0.1191 -0.0686
19198W        W36045   6.447  10.842   4.516  0.2232 -0.0415 -0.0942
19199W        W36046  16.564  18.349  15.416  0.1130 -0.3150 -0.1627
19200W        W36047   0.020   0.947  13.227 -0.1420  0.2362 -0.0500
19201W        W36048  11.934  18.307   4.241 -0.1500 -0.1241 -0.0784
19202W        W36049   4.872  16.965   5.871 -0.1416 -0.1838 -0.0788
19203W        W36050  17.905  15.169   4.288  0.0268  0.2479  0.2050
19204W        W36051  16.607   0.139   3.237  0.2804  0.0928 -0.3177
19205W        W36052   4.603   5.856   2.103 -0.0083  0.0512  0.0369
19206W        W36053   9.633   8.672  13.533 -0.4299 -0.0670 -0.0177
19207W        W36054   2.408  13.694  13.123  0.1260  0.1592 -0.2944
19208W        W36055  13.552  16.020   1.420 -0.0773  0.3984 -0.2968
19209W        W36056  15.154  14.406  13.946 -0.0080  0.1873  0.1061
19210W        W36057   6.901   5.630   0.655  0.0697 -0.3286  0.0451
19211W        W36058   6.487  14.899   0.227 -0.2020 -0.0141 -0.0112
19212W        W36059   6.566   4.584  11.628 -0.1202 -0.1980 -0.2245
19213W        W36060  13.766  15.618  13.580 -0.0881  0.0200 -0.0275
19214W        W36061   7.232   0.292  15.652  0.0812 -0.1044 -0.0285
19215W        W36062   5.680  18.536   3.275 -0.3675 -0.1492 -0.1253
19216W        W36063  11.789   4.622  11.820  0.2410  0.1918  0.1088
19217W        W36064  17.767  11.034   3.127  0.0158 -0.1955 -0.1251
19218W        W36065   9.611   4.512  11.232 -0.1079  0.1269  0.0952
19219W        W36066  18.299  18.218   1.289  0.2176  0.2848  0.0017
19220W        W36067   4.748   5.346  11.748 -0.1009 -0.0336 -0.2200
19221W        W36068   0.959  10.820   2.804 -0.5587 -0.0852 -0.1190
19222W        W36069   7.783   0.243  14.027 -0.0994  0.1924  0.0123
19223W        W36070   9.236  16.527   2.076  0.1725 -0.0965 -0.0934
19224W        W36071  15.343  11.736   2.475 -0.3845  0.1548 -0.2294
19225W        W36072   8.413  16.790   4.184 -0.0611  0.0418 -0.1115
19226W        W36073   7.834   3.603   0.845 -0.1224  0.0086  0.5947
19227W        W36074   6.192   3.089  15.389  0.1299 -0.1367 -0.0050
19228W        W36075   7.933   7.052   1.256  0.1681  0.0172 -0.0567
19229W        W36076   7.017  12.075  13.586 -0.3551  0.0441  0.0926
19230W        W36077  13.030  15.194   0.267  0.0498 -0.2469 -0.0099
19231W        W36078   1.179  14.341  14.896 -0.0607  0.0430  0.2069
19232W        W36079   9.660   6.457  13.107  0.2592 -0.4528  0.1485
19233W        W36080   2.042   9.872  11.925  0.0474 -0.1668  0.1772
19234W        W36081  12.578  17.714   5.875  0.1211 -0.0991 -0.1345
19235W        W36082   8.082   5.384  13.345 -0.3799  0.0476  0.2231
19236W        W36083   1.380  10.108   1.975 -0.0803  0.0211  0.0597
19237W        W36084  17.777  16.867   1.393 -0.1501  0.0579  0.0654
19238W        W36085   9.138   7.422  11.934  0.1239 -0.0641 -0.1842
19239W        W36086   9.930   9.542  14.372 -0.0500 -0.0287 -0.0477
19240W        W36087  16.054  10.291   2.711  0.1335 -0.2182  0.2151
19241W        W36088   6.343  17.991   1.250  0.0839  0.1407 -0.0217
19242W        W36089  11.468   5.770  13.479 -0.1868 -0.1401  0.0273
19243W        W36090  13.941   2.839  15.012  0.2753 -0.1019  0.0869
19244W        W36091   1.779  16.937   0.276  0.0409  0.5090 -0.2117
19245W        W36092  11.367   2.161  14.715  0.0205  0.2474 -0.0542
19246W        W36093  18.015   4.911   4.135  0.1640  0.0424  0.1201
19247W        W36094   4.667  15.409  10.939 -0.0224  0.1799 -0.0620
19248W        W36095  10.756  13.156  11.909 -0.2899 -0.0915  0.2054
19249W        W36096  13.681   3.020  12.537  0.2166  0.1271 -0.0515
19250W        W36097  15.020   9.822  10.357  0.0674 -0.3041  0.0968
19251W        W36098  13.224   6.537  15.796  0.2465  0.0759 -0.1769
19252W        W36099   2.413  16.311   3.457 -0.4411  0.0345 -0.2060
19253W        W36100   3.896  13.950   0.965  0.0351 -0.1072  0.0695
19254W        W36101  17.318  11.328   5.254  0.0677  0.2397  0.0491
19255W        W36102  10.645   0.717   2.724  0.2467 -0.0656 -0.3049
19256W        W36103   2.992   5.773  15.071  0.2368  0.0429  0.1962
19257W        W36104   1.443  13.984   2.278  0.2079  0.2289  0.2217
19258W        W36105   6.926  16.036   2.603 -0.0891  0.0820  0.0125
19259W        W36106  14.761  14.899  15.823 -0.0412  0.0415 -0.0477
19260W        W36107   3.440  13.430   0.881  0.1608 -0.2820 -0.2764
19261W        W36108  13.807  12.667  11.905 -0.0229 -0.2215  0.2354
19262W        W36109   9.341   7.640   2.526 -0.0219 -0.0931 -0.0398
19263W        W36110  15.043   5.757   1.401  0.3035  0.1106 -0.2907
19264W        W36111  13.750   4.777  14.550  0.2106 -0.2648 -0.1179
19265W        W36112  15.777  14.922  12.488 -0.0335 -0.0207  0.1450
19266W        W36113  12.955   3.661  10.764  0.2767  0.1709 -0.3034
19267W        W36114   7.171  16.452  15.938  0.1851  0.1036  0.0127
19268W        W36115   5.354  14.960   3.849 -0.1574  0.3873  0.0334
19269W        W36116  18.307  10.889   0.360  0.0440  0.0750 -0.1046
19270W        W36117  10.703  10.831  11.758  0.2170 -0.1484  0.1179
19271W        W36118   2.330   9.825   1.261 -0.1151  0.1097  0.1348
19272W        W36119  16.214   3.775   1.555 -0.0511  0.0361 -0.1040
19273W        W36120   4.200  11.079   1.626  0.0133  0.2680  0.1879
19274W        W36121  12.397  17.972   2.742  0.1083 -0.1143 -0.2534
19275W        W36122   1.163   7.803  15.754 -0.2408  0.1318  0.0585
19276W        W36123   2.626   6.910   3.996 -0.1514  0.0204 -0.0799
19277W        W36124  13.037   7.300   0.112  0.2618  0.0014  0.0055
19278W        W36125   4.650   9.654   0.620 -0.0446  0.0912 -0.1913
19279W        W36126   6.772  16.306   2.201  0.0243  0.1067 -0.2359
19280W        W36127   7.168   0.039   2.844 -0.2041  0.0391  0.2992
19281W        W36128   1.811   0.179   5.482 -0.0557  0.1368  0.0544
19282W        W36129  18.087  10.354   5.791  0.1795 -0.3433 -0.2106
19283W        W36130   8.453   1.080  13.669  0.2659  0.1525 -0.0243
19284W        W36131   0.767  15.388  13.545 -0.0308 -0.1042  0.1588
19285W        W36132  14.282   6.284   3.375  0.1080  0.0788 -0.0385
19286W        W36133   4.870  18.384  13.252  0.2595  0.3435  0.2002
19287W        W36134   3.984  15.095   5.062  0.0079  0.0900 -0.0379
19288W        W36135   5.990   6.491   4.424 -0.0040  0.0263 -0.0250
19289W        W36136   0.719  13.102  13.682 -0.1312  0.1369  0.0293
19290W        W36137   9.631  12.811   1.813  0.0943 -0.0896  0.1262
19291W        W36138  13.830   5.464   3.576 -0.0487 -0.1776  0.3896
19292W        W36139   8.936  11.322   2.445  0.1848  0.0792  0.1956
19293W        W36140  12.197   3.009  13.834 -0.2036  0.2059  0.0752
19294W        W36141  16.170   9.574   5.166  0.0621 -0.1238 -0.1511
19295W        W36142   5.016  12.122  14.925  0.0849  0.2244  0.0599
19296W        W36143   2.464   5.615   4.258  0.1233  0.0600 -0.1183
19297W        W36144   1.775   3.527   0.417 -0.2259 -0.1100 -0.1165
19298W        W36145  14.427   8.701  12.445  0.2998 -0.2877 -0.0572
19299W        W36146   8.278  16.409   2.288  0.0489  0.1631 -0.1551
19300W        W36147   4.791   0.941  13.191  0.0514 -0.2259  0.0081
19301W        W36148   7.722  13.612   3.763 -0.1626 -0.1503 -0.2952
19302W        W36149  16.269  16.681  12.287  0.0406 -0.0780 -0.1242
19303W        W36150   3.849  13.764  12.765  0.1774  0.0300  0.0308
19304W        W36151   4.362  13.648  12.583 -0.0101  0.1843 -0.0209
19305W        W36152   8.584   6.426   3.871 -0.1575 -0.1780 -0.1876
19306W        W36153  10.648   0.626  14.086 -0.0519  0.0758  0.3276
19307W        W36154  16.404   7.620   2.868 -0.1836  0.1994 -0.1649
19308W        W36155   1.066  11.248  15.511 -0.1909  0.0510 -0.0976
19309W        W36156  16.142  13.084   3.686  0.4985 -0.0160  0.1232
19310W        W36157   8.981   4.547  14.814 -0.0537 -0.0764 -0.1977
19311W        W36158   1.460  13.775   0.889  0.0865 -0.1368 -0.0876
19312W        W36159   2.720  13.202   1.385 -0.3252  0.2417  0.1688
19313W        W36160  14.319   9.451  12.662  0.0075 -0.0955 -0.3508
19314W        W36161  15.845   4.170   4.246 -0.2657  0.4676 -0.0175
19315W        W36162   4.704  10.086  13.404 -0.1981  0.0414  0.2081
19316W        W36163  10.656  13.879  13.623  0.0929 -0.2424 -0.0170
19317W        W36164  15.292  10.016   1.463  0.1532  0.1763  0.2082
19318W        W36165  16.505  14.617  14.216 -0.0080 -0.0950  0.1570
19319W        W36166   4.572   6.850   3.162  0.0524  0.3689  0.2523
19320W        W36167   8.173  10.456   1.107 -0.0683  0.0058  0.2253
19321W        W36168   7.254  12.452   5.387 -0.1057  0.0626  0.2044
19322W        W36169  12.507  13.070   0.465 -0.3625  0.0372  0.0821
19323W        W36170  14.203  11.614  11.203  0.2745  0.0164 -0.0363
19324W        W36171  16.370  13.407   5.759  0.0338 -0.1435  0.0773
19325W        W36172   7.801  18.160   0.515  0.2458 -0.3505 -0.0248
19326W        W36173  15.572  16.745   3.088 -0.2151  0.0936 -0.0717
19327W        W36174   4.206  10.834   1.134  0.0008 -0.0487 -0.2685
19328W        W36175  15.097   8.939   1.561 -0.1108  0.0203 -0.0472
19329W        W36176  11.873   0.797   0.939 -0.1996 -0.1854  0.2987
19330W        W36177   8.813  18.532  10.231 -0.2189  0.0018  0.0838
19331W        W36178   0.658   5.635  11.358  0.1219 -0.0484 -0.0344
19332W        W36179   0.561   3.486   3.317  0.0463 -0.5086  0.0048
19333W        W36180  16.770   1.000  15.196 -0.4316 -0.1920 -0.0082
19334W        W36181  13.393   4.537   2.929 -0.0557 -0.0996 -0.0891
19335W        W36182   1.339   0.231  15.841 -0.0512  0.2270 -0.0879
19336W        W36183  16.737   8.768   2.807 -0.0109  0.1822 -0.3458
19337W        W36184  12.145   0.710  15.938 -0.1142 -0.0503 -0.3027
19338W        W36185   4.622   8.445  11.281  0.0978  0.2571  0.0827
19339W        W36186  15.140  17.750   2.203  0.0933 -0.3080 -0.1952
19340W        W36187   9.981   5.653   0.952 -0.3715 -0.1156 -0.0128
19341W        W36188  11.584  16.386  14.327  0.1300  0.0900  0.0250
19342W        W36189   6.690  18.522  14.211 -0.2247  0.1567  0.1614
19343W        W36190  18.002  10.999  13.210  0.0761  0.4548  0.0746
19344W        W36191   5.133  17.726   1.003 -0.2484 -0.0313 -0.0883
19345W        W36192   5.075  11.301  15.907  0.0796  0.0373  0.2049
19346W        W36193   9.968   7.387   4.153 -0.3902 -0.2269 -0.0146
19347W        W36194   1.058  15.807  13.616  0.0218  0.1351 -0.0152
19348W        W36195  17.791   7.987   3.702  0.0647 -0.1749 -0.1502
19349W        W36196  18.264   7.220  12.862  0.1058  0.0315 -0.2430
19350W        W36197  15.925   8.667  13.196 -0.0151  0.3437 -0.2287
19351W        W36198   8.423  11.538   5.112  0.0222  0.4720 -0.0659
19352W        W36199   1.757   1.381  13.749 -0.1803 -0.0311  0.3546
19353W        W36200   4.149   2.042  13.856  0.2374 -0.0369 -0.1842
19354W        W36201   8.086  11.794   2.028 -0.0541 -0.0779  0.2603
19355W        W36202   9.402  16.672   1.247  0.0463 -0.1206 -0.1363
19356W        W36203  14.839   5.062  15.429  0.2456  0.0006  0.1627
19357W        W36204   2.557   8.094   0.884 -0.2020 -0.1970  0.0237
19358W        W36205  10.697   6.902   3.955 -0.0776  0.2610  0.2436
19359W        W36206  17.768   1.598   2.374 -0.1236 -0.3194 -0.1631
19360W        W36207  16.574  14.139  12.985 -0.2148 -0.0520 -0.2686
19361W        W36208   7.771  11.697   4.809 -0.0744  0.1288 -0.0470
19362W        W36209  10.636   4.599   1.788  0.3617  0.2806 -0.0564
19363W        W36210  16.807   3.932  12.649  0.0251 -0.0932 -0.1873
19364W        W36211  12.031  18.011   3.787 -0.1400 -0.0838  0.3308
19365W        W36212  15.351  12.168   5.084 -0.1810 -0.0805 -0.0879
19366W        W36213   1.139  13.472   5.217  0.1571  0.1837  0.1181
19367W        W36214   7.896   6.791  14.589  0.2792 -0.3435  0.2742
19368W        W36215   0.056   8.596   1.508  0.1976  0.1206  0.0564
19369W        W36216   6.976   3.134  13.013 -0.0054 -0.3271 -0.2922
19370W        W36217  11.616   8.082  15.775  0.1480 -0.2015 -0.1219
19371W        W36218   7.034   1.851  11.624 -0.2227 -0.3421  0.2206
19372W        W36219   6.310   5.878   0.003  0.0191  0.1805  0.0918
19373W        W36220  18.073  11.826   3.789  0.1653 -0.1745 -0.2453
19374W        W36221  10.552  13.626  11.505 -0.1250  0.0076 -0.1071
19375W        W36222   1.536   6.138  12.223  0.0054  0.0111  0.1002
19376W        W36223   6.441  14.282  13.567  0.0670  0.0071  0.0790
19377W        W36224   4.800   3.261  11.993  0.1208  0.0598  0.0761
19378W        W36225  17.371  11.496  12.318 -0.0060  0.1041 -0.2290
19379W        W36226  16.087   6.627  11.082 -0.0176 -0.1683  0.1626
19380W        W36227   7.545   9.423  14.062 -0.0634 -0.2148 -0.1139
19381W        W36228  12.997  14.086   2.718 -0.1104  0.0099  0.3828
19382W        W36229   7.928   2.350   0.152  0.2295 -0.2858  0.0808
19383W        W36230   9.522  10.745  13.727 -0.0867 -0.2476 -0.2711
19384W        W36231  11.029  11.157   4.627  0.0343  0.3508  0.0437
19385W        W36232   3.395  10.426  14.335  0.0036 -0.1546 -0.1735
19386W        W36233   5.355   6.607   2.950  0.1749  0.0199 -0.0677
19387W        W36234  11.444   0.519  14.601 -0.0716  0.2956 -0.1257
19388W        W36235   0.686   3.227   4.152 -0.1043  0.2764 -0.1913
19389W        W36236  18.113   3.711  11.593  0.1206 -0.1749  0.0698
19390W        W36237   0.277  10.678  10.826  0.0698  0.1214 -0.2867
19391W        W36238   2.367  15.306  15.268 -0.2427  0.1370  0.0658
19392W        W36239   5.892   6.239   4.846  0.0158  0.0434 -0.3029
19393W        W36240  17.451  13.524  15.656 -0.0801  0.0651 -0.3801
19394W        W36241  18.358   6.387  15.035 -0.0526 -0.0005  0.1992
19395W        W36242   9.124   5.898   5.046 -0.3256  0.0503 -0.2398
19396W        W36243  10.925   9.687   2.189  0.1881 -0.1276 -0.1384
19397W        W36244   6.403  13.651   4.276 -0.1664 -0.2742  0.2856
19398W        W36245  15.081  12.911  11.869  0.2556  0.0857 -0.0573
19399W        W36246   9.182   9.815  12.673  0.1524  0.1827 -0.2524
19400W        W36247   9.885   1.029   2.080 -0.0663 -0.1721  0.1231
19401W        W36248   9.328  17.903   3.924  0.1765  0.1332 -0.2785
19402W        W36249   5.731  15.755  11.929 -0.1819  0.3275 -0.0396
19403W        W36250  15.071  11.952  12.741 -0.2255 -0.1083  0.0248
19404W        W36251   4.189   6.689  11.607 -0.0647  0.2233  0.0851
19405W        W36252   6.681   8.944   4.551  0.4512  0.0888  0.1679
19406W        W36253   9.509  14.366  12.985 -0.0128 -0.1336  0.1925
19407W        W36254   8.178  10.864   2.803 -0.2677 -0.2073  0.0676
19408W        W36255  13.072  16.166  12.651 -0.2825 -0.4549 -0.1077
19409W        W36256   8.009  11.334   1.888 -0.0252 -0.1177 -0.1188
19410W        W36257  17.461   4.545   0.425  0.1267 -0.2191 -0.1588
19411W        W36258   1.193  18.367   4.116 -0.1361  0.1325 -0.3025
19412W        W36259   0.656   2.065  11.953 -0.0347  0.0246  0.0046
19413W        W36260  17.364   3.932   3.463 -0.2636 -0.1572 -0.1577
19414W        W36261   7.044   9.662   5.016 -0.0688  0.3766 -0.1401
19415W        W36262   7.824  13.337  12.713  0.1502  0.0775 -0.1870
19416W        W36263  17.831   3.347   5.420  0.1757  0.0969 -0.3753
19417W        W36264   9.804   9.787   4.377  0.1842 -0.0216  0.1673
19418W        W36265  16.321  12.352   3.689 -0.1497 -0.0973  0.1124
19419W        W36266  17.933   2.100  13.971  0.1394 -0.1360  0.2551
19420W        W36267   8.763   8.347   1.658  0.1086  0.2107  0.2574
19421W        W36268  12.227   6.388   2.048 -0.1254  0.2168  0.1665
19422W        W36269  12.791   6.973   2.713  0.1743 -0.1625 -0.1059
19423W        W36270  18.513  12.409   4.985  0.0020 -0.1776 -0.1316
19424W        W36271  17.869  11.705   5.019  0.2195 -0.0437 -0.0313
19425W        W36272   3.076   8.950   3.133 -0.0366 -0.0083  0.2832
19426W        W36273   5.839  18.374  12.975  0.0567 -0.2395  0.3677
19427W        W36274   8.826  16.676  11.766 -0.2136 -0.1131 -0.0521
19428W        W36275  16.868   0.974   2.319 -0.1030  0.1535 -0.2415
19429W        W36276   9.659  18.308   3.559  0.3293 -0.1518  0.3090
19430W        W36277  11.911  16.539   2.085  0.0065 -0.1862  0.1514
19431W        W36278   1.978  18.480   4.997  0.0229 -0.0334 -0.0828
19432W        W36279   2.974  10.873   1.802 -0.0032 -0.1696  0.2811
19433W        W36280  14.508   2.332  15.500 -0.1457  0.1260  0.1102
19434W        W36281  12.829   2.088   1.830 -0.0765 -0.2759  0.0506
19435W        W36282   5.897  10.392   5.158  0.2442  0.0910 -0.1533
19436W        W36283   0.454  12.808   0.123  0.1171  0.0829 -0.1953
19437W        W36284   1.486   8.183  12.217 -0.2767  0.0504 -0.3716
19438W        W36285   0.483   1.373   1.767  0.3593  0.1478  0.0345
19439W        W36286   9.244   2.604   5.549 -0.1693  0.0494  0.2574
19440W        W36287   6.055   2.911  11.948  0.1478  0.4409  0.0127
19441W        W36288  16.592   2.772   2.475  0.1253  0.0686 -0.0632
19442W        W36289  17.666  12.292   3.811  0.0692  0.2182  0.1350
19443W        W36290   9.925   0.939   2.632 -0.1595 -0.3593 -0.2461
19444W        W36291  18.349   3.085  12.018  0.1957 -0.3999 -0.0899
19445W        W36292   0.532   4.770  11.384 -0.3181 -0.0751  0.2071
19446W        W36293   3.514   4.427  10.117 -0.1143  0.1148 -0.1562
19447W        W36294   7.854   8.892   5.104 -0.1034  0.3509 -0.2428
19448W        W36295   0.437   7.750   1.385 -0.1270 -0.2051 -0.0962
19449W        W36296  17.327   2.812  10.190  0.0215  0.0520  0.0348
19450W        W36297   3.480  10.396   1.916  0.3173 -0.1967  0.0523
19451W        W36298   6.792  17.515  11.640  0.1681 -0.0028 -0.0828
19452W        W36299   1.007  17.564   0.632  0.1843 -0.1501 -0.2060
19453W        W36300   7.627   1.296  12.309 -0.2188  0.0794  0.0125
19454W        W36301  12.943  13.034  15.569 -0.0687 -0.0919  0.0731
19455W        W36302  11.445   2.739  10.984  0.1352 -0.1327  0.3318
19456W        W36303  11.580  15.167   0.169 -0.1470 -0.0804 -0.1462
19457W        W36304   8.228  13.772   2.202  0.0429 -0.1065  0.1272
19458W        W36305   1.751   1.375  12.302  0.1303 -0.2731  0.0790
19459W        W36306   7.217  10.433   3.439  0.2275 -0.1675  0.1441
19460W        W36307  17.135  17.810   4.460  0.0717 -0.2383 -0.2226
19461W        W36308  10.046  13.429   4.604  0.3211  0.1798  0.0418
19462W        W36309   8.366  12.773  15.402 -0.0198  0.0492 -0.1812
19463W        W36310  16.318   5.391  14.692 -0.0700 -0.0286 -0.4115
19464W        W36311   5.449   0.716   4.079 -0.0930  0.0721 -0.2255
19465W        W36312   3.122  12.195   2.496  0.3716  0.0369  0.0732
19466W        W36313  12.840  10.983  15.936  0.0848  0.2897  0.2706
19467W        W36314  10.918   2.119  12.932  0.1657  0.1564 -0.1542
19468W        W36315   9.062  10.471   0.075  0.1190 -0.1241 -0.2249
19469W        W36316  12.142  14.493   2.646  0.0074  0.2462 -0.1368
19470W        W36317  17.324   5.879  15.550  0.0483 -0.4665 -0.1222
19471W        W36318   4.376  14.053   2.973 -0.1766 -0.1873  0.0874
19472W        W36319  10.615   0.980  15.673 -0.1454 -0.2656  0.0555
19473W        W36320  16.286  10.767   4.951  0.0287  0.0300  0.1102
19474W        W36321   1.555   3.787  15.926  0.0150 -0.1242 -0.0789
19475W        W36322  10.841   3.814   1.931  0.0683  0.1723 -0.0755
19476W        W36323   9.401   4.917   2.215  0.1596 -0.1430  0.4543
19477W        W36324  16.760  16.481   5.073  0.0626  0.2574 -0.2880
19478W        W36325  11.184  13.226  13.266  0.1098 -0.0101  0.1886
19479W        W36326  14.994   8.952  12.961 -0.1429 -0.0171 -0.0542
19480W        W36327   5.951  14.695  14.958 -0.1300 -0.2808 -0.0210
19481W        W36328   5.202   9.630   3.206  0.1133 -0.1369  0.1427
19482W        W36329   8.396   4.563   4.472 -0.1162  0.1996 -0.4151
19483W        W36330  12.878   2.634   1.958  0.3486 -0.0423  0.0264
19484W        W36331   5.529   4.314   1.716 -0.1534 -0.1081  0.0243
19485W        W36332  12.103   4.074   4.593 -0.1722  0.4308  0.1276
19486W        W36333  16.111  14.435  12.213 -0.0705 -0.0517 -0.0906
19487W        W36334  14.509   2.941   2.989 -0.1118  0.0517 -0.0232
19488W        W36335   4.776   3.255   1.556  0.1612  0.1846  0.1426
19489W        W36336  11.592  16.571  11.061  0.3686 -0.1275 -0.2356
19490W        W36337   9.700   7.342  14.133  0.1019 -0.4638  0.2786
19491W        W36338   1.136   7.789   3.627  0.1190 -0.1588  0.2506
19492W        W36339  15.111   7.097   3.928  0.2036 -0.1985  0.2984
19493W        W36340   6.089  13.561   3.790 -0.2864  0.1293 -0.0308
19494W        W36341   3.726  17.734  11.167  0.0142  0.0304 -0.0046
19495W        W36342   6.702  16.475  11.741  0.0025  0.1877  0.0904
19496W        W36343  10.880  14.349   3.229  0.0139 -0.1438  0.3218
19497W        W36344  14.554  14.442   3.966  0.0118  0.1158  0.1996
19498W        W36345  15.494   4.424  12.392  0.3065  0.0383 -0.0178
19499W        W36346  15.407  15.391  11.663 -0.0565  0.0399 -0.2536
19500W        W36347   1.111   1.520   2.339  0.1644  0.2146  0.0509
19501W        W36348   2.544   3.746  14.668 -0.1088  0.1596  0.1735
19502W        W36349  17.161  11.169  13.349  0.1244 -0.0822  0.2099
19503W        W36350  16.276   1.523  11.542  0.2588  0.0251  0.0021
19504W        W36351  16.276   0.535  13.193 -0.0750 -0.1704  0.0569
19505W        W36352   6.856   6.552  12.535  0.2707 -0.2255 -0.1606
19506W        W36353   7.156   6.812  14.853  0.2356  0.0289  0.3140
19507W        W36354  16.182  11.674   0.426  0.0691  0.2139 -0.0501
19508W        W36355   6.526  16.360   1.363  0.0151 -0.3333 -0.1584
19509W        W36356  17.866   5.963   1.321 -0.4067  0.1726  0.2951
19510W        W36357   0.583   2.745   0.894  0.3459 -0.0076 -0.2805
19511W        W36358   1.002  14.088   3.215 -0.2782  0.4198  0.0362
19512W        W36359  14.130  10.930   3.702  0.0540 -0.0762  0.2274
19513W        W36360  16.458   0.789  11.043  0.0298  0.0574 -0.1558
19514W        W36361   4.060  14.702  12.463  0.3197  0.0919  0.1030
19515W        W36362   9.735   5.402   3.972 -0.3040 -0.0075 -0.3953
19516W        W36363  11.327  10.285  12.818 -0.0154 -0.1540 -0.1083
19517W        W36364   7.976   9.982  14.458 -0.1301 -0.0216  0.0093
19518W        W36365   8.561  11.005   0.724 -0.0936  0.1442 -0.1991
19519W        W36366  13.494  14.202   1.356 -0.1454  0.0095 -0.2015
19520W        W36367  12.568   2.880  12.530 -0.0378 -0.1604 -0.2131
19521W        W36368  15.027  10.787  14.904 -0.0359  0.1763 -0.0341
19522W        W36369   6.571  18.091   0.632 -0.0188  0.0446  0.3582
19523W        W36370   9.227   5.273   4.155 -0.1156  0.2448 -0.1039
19524W        W36371   3.395  18.357   3.376 -0.2304  0.2725 -0.2591
19525W        W36372   7.081  12.123   0.286  0.0096  0.1111  0.0561
19526W        W36373  17.599   6.187  14.210 -0.1057  0.0322  0.1593
19527W        W36374  16.541  18.354   1.018 -0.1207 -0.0383 -0.1529
19528W        W36375  10.166   2.233   2.669 -0.0242 -0.0869  0.1643
19529W        W36376   9.625   4.066   2.633  0.2577 -0.2095  0.0955
19530W        W36377  17.535  16.060  13.198 -0.0697  0.2033 -0.2405
19531W        W36378   4.080  17.244   5.613 -0.0442  0.0214 -0.0420
19532W        W36379   2.320   1.473  11.726  0.0422  0.1576 -0.0768
19533W        W36380  15.688  15.039   0.143  0.4234 -0.0518  0.1333
19534W        W36381   2.051   7.733  14.544  0.7195 -0.1337  0.0720
19535W        W36382   1.549   9.898   0.380 -0.0882 -0.1740  0.2177
19536W        W36383   5.177   4.334   4.972 -0.1647  0.0695 -0.0604
19537W        W36384  11.157  10.174   4.125 -0.1158 -0.3734  0.1728
19538W        W36385   9.273   4.903   5.002  0.1317  0.1606  0.1000
19539W        W36386   7.370  13.435   0.836 -0.0122 -0.0108  0.2014
19540W        W36387   3.095   0.371  15.920 -0.1039  0.0614  0.2122
19541W        W36388   6.680   8.587   3.378 -0.0750  0.2083  0.1220
19542W        W36389   9.599  15.920   4.317 -0.0529  0.2398 -0.1583
19543W        W36390   4.539   4.251  14.425 -0.0496 -0.2954 -0.1340
19544W        W36391  13.075   2.998  11.735 -0.0734  0.4091 -0.3593
19545W        W36392  17.725  11.020   1.908 -0.0264 -0.1606  0.0731
19546W        W36393   5.719   8.962  11.468 -0.1100 -0.1154 -0.1129
19547W        W36394   8.764  12.971  15.935  0.1351  0.1211  0.3779
19548W        W36395  12.660   5.400   4.789 -0.1605  0.0341 -0.0626
19549W        W36396   0.758   9.500   4.793  0.0367  0.1390 -0.0477
19550W        W36397   3.559   0.936  15.309  0.2228 -0.0165 -0.1176
19551W        W36398   6.507   0.062   2.216  0.2137  0.1730 -0.0120
19552W        W36399  14.177  17.539  11.355 -0.2652  0.3842  0.3398
19553W        W36400   1.273  14.343   4.145  0.0167 -0.1621  0.0690
19554W        W36401   2.025  14.889   5.665  0.1980 -0.1163  0.0227
19555W        W36402   7.446   6.841  15.281  0.3632  0.0067  0.0471
19556W        W36403   6.721   6.159  11.229  0.0043  0.0089 -0.0555
19557W        W36404  10.127  16.855   0.266  0.2914 -0.0007  0.4205
19558W        W36405  11.666  16.602   3.570  0.1198  0.0074  0.1291
19559W        W36406   5.554   0.252   3.913 -0.1004  0.0500  0.0041
19560W        W36407  11.466  14.767  12.524 -0.1465 -0.1295  0.2959
19561W        W36408  10.922  10.569   3.736  0.1616 -0.3235  0.0569
19562W        W36409  11.066  14.030   0.089 -0.3600  0.2195 -0.4014
19563W        W36410  14.433  11.985  14.888 -0.1205 -0.0934 -0.1590
19564W        W36411   8.484  16.915   4.649 -0.0698  0.1921 -0.0037
19565W        W36412   6.754   2.210  11.864  0.2218 -0.1551 -0.1210
19566W        W36413   6.578   6.330   3.513  0.1380  0.4275 -0.0398
19567W        W36414  13.242   2.132  14.016  0.1253 -0.0146 -0.2333
19568W        W36415  14.073  13.279   0.871 -0.3207 -0.0914  0.1328
19569W        W36416  16.954   5.154  15.367  0.3722 -0.1727 -0.1777
19570W        W36417   8.273   7.689  12.763 -0.0002 -0.0027 -0.2525
19571W        W36418   1.509   8.008   3.945  0.1459  0.0119  0.1569
19572W        W36419   4.241   5.478   5.093  0.2014  0.2590 -0.0345
19573W        W36420  16.496  10.801  12.002 -0.0623  0.3085 -0.0500
19574W        W36421   0.837  15.361  11.197  0.1737 -0.0785 -0.2836
19575W        W36422  14.067   1.178  13.754 -0.2960 -0.3067 -0.0267
19576W        W36423  12.157   0.609   0.507 -0.0710  0.0441 -0.2904
19577W        W36424   3.919   0.903  11.016 -0.1609 -0.1342 -0.0937
19578W        W36425  14.591   5.627  14.813  0.2360  0.0902  0.1208
19579W        W36426  13.054  13.210   2.041 -0.3362  0.0876 -0.0572
19580W        W36427  16.299   7.046  14.770 -0.1219 -0.0481  0.3442
19581W        W36428   7.242  12.765   2.412  0.1418 -0.2627 -0.1502
19582W        W36429  11.128   9.370   0.544  0.3831  0.2947  0.0907
19583W        W36430  10.966  17.951  15.611 -0.1687 -0.3632  0.2804
19584W        W36431  17.694   2.315   5.157 -0.1260  0.1611  0.0885
19585W        W36432  18.176   3.249  11.197  0.1131 -0.0351  0.0656
19586W        W36433   3.270   4.549  11.754  0.1279 -0.0124  0.2113
19587W        W36434  15.811   2.194  14.430  0.4480 -0.2614 -0.2555
19588W        W36435  13.105  15.246   2.481  0.0451  0.0417  0.3567
19589W        W36436  18.480   4.327   4.862  0.3242  0.1597  0.0746
19590W        W36437   8.874  12.068   1.626  0.3367  0.0568  0.0572
19591W        W36438   3.585   2.696   4.300 -0.1915 -0.0452 -0.1886
19592W        W36439   9.619   8.258   1.502 -0.0787 -0.2003 -0.0623
19593W        W36440   9.315   7.481   0.005  0.0564 -0.0512  0.0719
19594W        W36441  11.994   1.259   0.824  0.0765  0.0910  0.3491
19595W        W36442   8.870   9.450   1.063  0.0322  0.1764 -0.1202
19596W        W36443  12.532  10.248  12.609 -0.3829 -0.2040 -0.2293
19597W        W36444  11.520  16.018   4.800 -0.0682 -0.1335  0.3011
19598W        W36445  15.373   2.914  10.539  0.3585  0.0582 -0.0342
19599W        W36446   5.377   6.808   3.388  0.0637 -0.1542  0.1320
19600W        W36447   2.224  10.880  12.159 -0.2472  0.0707 -0.0381
19601W        W36448  13.621  14.093   2.137  0.4014  0.1011  0.1658
19602W        W36449   2.866   6.132   0.376  0.1809  0.0696 -0.2474
19603W        W36450   2.560   4.145  13.087 -0.2131  0.2557 -0.1365
19604W        W36451   5.450  11.748  12.931  0.2018  0.1703  0.1982
19605W        W36452   6.484   7.678   3.807  0.0233  0.0786 -0.1198
19606W        W36453   3.370  17.296  12.376 -0.0156  0.0343  0.1250
19607W        W36454   9.036   4.825  13.929 -0.1116  0.1638  0.1979
19608W        W36455  17.804  11.678  12.167  0.1247  0.2037  0.0129
19609W        W36456  15.009   0.209   3.885 -0.3971 -0.0550 -0.1453
19610W        W36457   7.406  13.160  15.046  0.0802  0.1656  0.1071
19611W        W36458  13.170  17.474  14.683 -0.2332 -0.0163 -0.1303
19612W        W36459   0.251   0.385   5.338  0.5028  0.1157  0.2091
19613W        W36460   7.573   2.637   2.233 -0.0807  0.0602  0.0969
19614W        W36461  16.352  11.157   3.250 -0.0475 -0.2389  0.5099
19615W        W36462   3.135  12.553  12.296  0.1420 -0.0285  0.0513
19616W        W36463   6.859   6.113   4.975 -0.0618  0.1498 -0.1496
19617W        W36464  10.047  11.186  14.520  0.0369  0.3254 -0.1191
19618W        W36465   6.971   6.219   2.664 -0.0170  0.1268 -0.0478
19619W        W36466  16.374   6.271   4.004 -0.3533  0.5162  0.1727
19620W        W36467   1.776  18.348   2.930  0.1305 -0.1551 -0.0349
19621W        W36468   8.417  11.773   0.327  0.2870  0.0611  0.1804
19622W        W36469   5.776  10.209  15.001 -0.1029 -0.0053  0.1438
19623W        W36470  14.768   5.272  13.800  0.1571 -0.2208 -0.2147
19624W        W36471  12.724   6.188  10.929  0.2159 -0.1996  0.3867
19625W        W36472   2.128  16.620   5.313 -0.0276 -0.3419 -0.4299
19626W        W36473   2.925  16.675  14.495 -0.0062  0.1265 -0.0403
19627W        W36474   6.037  18.438  13.468  0.1949  0.2254 -0.2428
19628W        W36475  16.126   3.774   4.274 -0.1805  0.1274  0.1136
19629W        W36476   2.168  11.005   3.173  0.1819  0.0038 -0.5528
19630W        W36477   8.303   2.711   4.847  0.2677  0.0671  0.0380
19631W        W36478  16.878   7.214   2.256 -0.1392 -0.0025  0.0853
19632W        W36479   0.359  12.831  15.038 -0.0895 -0.0023 -0.0575
19633W        W36480  12.143  17.015   2.868  0.0562 -0.2066 -0.0003
19634W        W36481   5.274   0.395   6.380 -0.0508  0.0589  0.4034
19635W        W36482   5.085  10.049  12.207 -0.0211  0.2020  0.3134
19636W        W36483  12.012   1.491   0.262  0.0108 -0.1327  0.0057
19637W        W36484   3.344   5.984  12.728  0.1677  0.0734  0.2116
19638W        W36485   9.266   3.929   2.062  0.0603 -0.1070  0.1022
19639W        W36486  13.004   9.417  15.316 -0.3644  0.0043 -0.1954
19640W        W36487   4.962   0.413  14.023 -0.3469  0.0422  0.0956
19641W        W36488   6.939   6.857  14.389 -0.0322 -0.1071 -0.0252
19642W        W36489  10.202  15.179  14.674 -0.0828 -0.3149 -0.0830
19643W        W36490  11.031  17.798   0.887  0.0614  0.2995  0.1211
19644W        W36491  16.245  15.321   3.971  0.1955  0.3550  0.1205
19645W        W36492  18.510   0.761   5.829 -0.3227 -0.1080  0.0812
19646W        W36493   5.006   5.113   4.641  0.1170 -0.2917 -0.2635
19647W        W36494  12.050  13.112  13.751  0.1301  0.0688  0.1411
19648W        W36495  15.485   4.624   2.540 -0.1101  0.1977  0.0871
19649W        W36496   5.856  17.121   1.588 -0.3862  0.0657  0.0055
19650W        W36497  13.169  16.178  12.095 -0.1279  0.0613  0.1600
19651W        W36498  14.445  12.897   2.065  0.1887 -0.3351  0.1237
19652W        W36499   1.343  15.080  12.225 -0.1401  0.2946  0.1953
19653W        W36500  13.129   6.443  14.113  0.1949 -0.1985 -0.0353
19654W        W36501  13.086  18.023   4.672  0.1131 -0.2616  0.1850
19655W        W36502  10.417  11.780   1.645 -0.1444  0.0426  0.1213
19656W        W36503  15.078  18.480  12.677  0.0353 -0.4460 -0.0848
19657W        W36504   5.179   3.104  14.248  0.0389 -0.2176  0.1260
19658W        W36505  10.648   7.026  10.460  0.0898 -0.0615  0.0848
19659W        W36506   0.016   5.322   0.862  0.2492  0.0116  0.2663
19660W        W36507   7.436   2.076  11.985  0.2031 -0.1166  0.2752
19661W        W36508   4.996  10.772   0.073 -0.3660 -0.1487  0.0047
19662W        W36509  11.888  18.147  15.790  0.1713  0.2126  0.2554
19663W        W36510  14.927  14.746   3.252 -0.1097  0.3157  0.2581
19664W        W36511  12.830  12.903  14.760 -0.2686  0.0973  0.1625
19665W        W36512  13.753  11.291  13.754  0.1058 -0.0209  0.2767
19666W        W36513  10.298   1.047   4.395  0.1381 -0.0125 -0.0533
19667W        W36514  10.685   7.807   1.815 -0.3145  0.1124 -0.1417
19668W        W36515  12.742   7.381  12.199  0.0129 -0.2281  0.3261
19669W        W36516  15.061  17.899  13.180  0.0318  0.3340 -0.1168
19670W        W36517   4.566  18.224   4.903 -0.0827 -0.3520  0.0389
19671W        W36518   4.050   3.669  12.401  0.0873  0.1558 -0.2387
19672W        W36519  10.321   3.226  11.868  0.2100  0.3137  0.1517
19673W        W36520   9.910   3.692  13.699 -0.1162 -0.3518 -0.2802
19674W        W36521  14.598  12.703   0.033 -0.0197  0.3594 -0.0922
19675W        W36522   7.478   2.170   4.547  0.3228  0.3618 -0.0868
19676W        W36523   2.687  17.980  14.387  0.0198 -0.3123  0.3397
19677W        W36524   8.186  13.493  14.102 -0.1310 -0.1089  0.1932
19678W        W36525  12.314  16.352   0.391 -0.0685  0.1256 -0.0877
19679W        W36526   7.244  13.334  12.448 -0.2304  0.3214 -0.0838
19680W        W36527   6.197   7.490   3.127  0.1885  0.0307 -0.0351
19681W        W36528   6.294   9.636  15.727  0.0137 -0.0436 -0.1643
19682W        W36529   0.634   2.688  13.162 -0.0540 -0.3789 -0.0060
19683W        W36530  11.625  14.625  12.989  0.2862 -0.0489 -0.2662
19684W        W36531  14.597  15.247  14.612 -0.1557  0.0086 -0.0838
19685W        W36532  10.726  11.735  12.050 -0.1794 -0.0969 -0.2824
19686W        W36533   5.887   5.659   0.887  0.1355  0.2237  0.1316
19687W        W36534   9.499  10.328  12.424 -0.0871  0.0875  0.2960
19688W        W36535  12.890   4.591   4.987 -0.0843 -0.0620 -0.1202
19689W        W36536   3.606  17.053  13.823  0.0326 -0.2255  0.2181
19690W        W36537  14.481   9.380   4.655 -0.1185  0.0682  0.1225
19691W        W36538  15.587  13.557   0.467 -0.0429 -0.0373 -0.2548
19692W        W36539   5.747   8.989  14.515  0.0792 -0.0114  0.3807
19693W        W36540  12.756   6.929   1.279  0.5746 -0.0210 -0.3178
19694W        W36541   8.493  14.208  15.245 -0.2946 -0.0127  0.0604
19695W        W36542   6.959   9.652  11.431  0.0167 -0.3577 -0.3584
19696W        W36543   8.083  17.329   3.574 -0.0383 -0.0630 -0.2082
19697W        W36544   3.435  12.009  15.495  0.0165 -0.0657 -0.0932
19698W        W36545   2.117  15.508   4.428 -0.1716  0.1493 -0.1579
19699W        W36546   7.481  14.286   2.477  0.0304 -0.1960  0.1740
19700W        W36547   5.189   4.359  10.914 -0.0043 -0.1980  0.0269
19701W        W36548   8.868   2.321   3.999 -0.0816  0.1015  0.1995
19702W        W36549   2.166   9.657   5.118 -0.2337  0.3298 -0.2944
19703W        W36550  13.551  12.279  15.280 -0.1901 -0.1600  0.0304
19704W        W36551  13.644  12.965   4.718  0.1287  0.1324 -0.1107
19705W        W36552   0.112   1.292   4.175 -0.0324 -0.1059  0.2093
19706W        W36553   9.876   5.366  13.434 -0.2927  0.0218  0.2868
19707W        W36554   7.571   2.072   2.969 -0.2106  0.0778 -0.1204
19708W        W36555   6.883   8.546  14.768 -0.0634  0.2681 -0.3082
19709W        W36556   3.911   3.208  15.041 -0.0354  0.1981 -0.0220
19710W        W36557   3.110  16.248   0.110 -0.3062  0.3098  0.0590
19711W        W36558   5.109   1.807  11.341  0.0271 -0.2177 -0.0441
19712W        W36559  10.938   5.292  11.196 -0.0211 -0.0798 -0.0293
19713W        W36560  16.137   6.378   4.968  0.0574 -0.0793 -0.2361
19714W        W36561   1.087  15.552  14.612 -0.0727 -0.1396  0.1715
19715W        W36562   6.271  10.713   1.265  0.0900 -0.0497 -0.1695
19716W        W36563   8.607   1.981  11.147  0.2964 -0.1069  0.1219
19717W        W36564   5.784   2.662   1.573  0.0552 -0.0267 -0.2661
19718W        W36565  10.157   5.761  13.295 -0.1691 -0.2410 -0.1390
19719W        W36566   0.651  13.324  14.826 -0.0464 -0.1067 -0.0539
19720W        W36567   2.944  10.973  12.643  0.0094  0.2514 -0.2017
19721W        W36568  16.047  11.649   1.629  0.2055  0.2314  0.2973
19722W        W36569   8.130   4.517   0.961  0.1477  0.2135  0.0616
19723W        W36570   4.595   3.114   0.942 -0.0507  0.2861 -0.0521
19724W        W36571  13.675   8.595   0.320  0.2733  0.1746  0.2233
19725W        W36572  10.826   3.534  14.675  0.0266 -0.1044 -0.0367
19726W        W36573   0.177   4.667   1.752  0.0523 -0.3002 -0.1637
19727W        W36574  14.506   8.325   0.559 -0.1434  0.1009 -0.0428
19728W        W36575  11.403  15.500   4.640 -0.0380  0.0274 -0.0179
19729W        W36576   6.646   1.187  11.039 -0.3279 -0.0528  0.1452
19730W        W36577  11.000  13.439   6.235 -0.1865  0.0478 -0.0212
19731W        W36578   1.657   0.984   0.155  0.1501 -0.1771 -0.2073
19732W        W36579  17.612   9.105  10.575 -0.0575 -0.0152  0.2840
19733W        W36580  17.963  15.446   5.715 -0.0901 -0.0282 -0.1011
19734W        W36581   9.457  17.006  13.872  0.1498  0.1273 -0.1332
19735W        W36582  15.817  17.904  12.154 -0.2499  0.0905  0.3637
19736W        W36583   1.463   7.374   4.633 -0.1722 -0.0627 -0.2651
19737W        W36584  17.287  12.569  12.650  0.4522 -0.0704  0.1523
19738W        W36585  10.618  13.484  12.834 -0.0664 -0.0101 -0.5080
19739W        W36586   7.409   3.127   3.687  0.1836 -0.2140 -0.2807
19740W        W36587  15.835   1.675  12.497  0.0921  0.2911 -0.2859
19741W        W36588   1.815   4.130  12.572  0.2045  0.1831  0.0418
19742W        W36589   9.985  13.125   1.914 -0.2325  0.1363  0.1987
19743W        W36590  15.772  13.172  12.922  0.0219  0.1149  0.2136
19744W        W36591   7.003  13.250  15.374  0.0076 -0.0047 -0.1768
19745W        W36592   5.531   2.579  14.229  0.0143 -0.1943 -0.2075
19746W        W36593   2.323   2.583  12.973 -0.1841  0.1405  0.2149
19747W        W36594   2.455  11.065   1.807  0.0763  0.0005  0.2272
19748W        W36595   6.589   2.954   1.722  0.2631  0.0331  0.1651
19749W        W36596  11.913   1.709   3.301 -0.1914  0.1039  0.0230
19750W        W36597  18.349  16.809   4.269 -0.2103  0.0697  0.2679
19751W        W36598   7.036  15.046   0.177  0.1205  0.1710 -0.1068
19752W        W36599   5.478  10.814   4.162 -0.1787 -0.0854 -0.0425
19753W        W36600  16.749   9.387   4.468 -0.0484  0.0333 -0.0139
19754W        W36601  14.504   4.664   2.327 -0.0846 -0.1686  0.3022
19755W        W36602   0.075   9.607  12.849 -0.1875  0.0845 -0.0888
19756W        W36603  18.510   7.257   0.487  0.0312  0.0299  0.2047
19757W        W36604   6.992   6.661  12.003  0.1579  0.0100  0.1978
19758W        W36605  13.868  10.455  13.200  0.0684 -0.3199 -0.0155
19759W        W36606   3.562   5.977   0.404 -0.1179  0.1681  0.0586
19760W        W36607  13.529   8.786   4.738 -0.2083 -0.5310  0.1104
19761W        W36608   5.708   0.206  14.902  0.1444 -0.0042  0.0038
19762W        W36609   9.448   3.595  15.449 -0.0793  0.1372  0.0842
19763W        W36610   1.647  13.811   5.575  0.0314  0.2433 -0.4358
19764W        W36611  11.645  16.382   3.044  0.1906 -0.1850  0.0697
19765W        W36612  13.932   5.574   4.114  0.0663 -0.0212  0.1964
19766W        W36613   2.310   5.103   5.064  0.1744  0.0460 -0.0779
19767W        W36614  16.278  17.917   0.766  0.0865 -0.1528 -0.1906
19768W        W36615   6.895  11.934  12.791  0.2054 -0.1817  0.0832
19769W        W36616   2.336   1.518   5.749 -0.4665 -0.0810  0.0968
19770W        W36617  17.240  15.937  15.184 -0.3170  0.0304  0.1406
19771W        W36618   5.426  13.126   3.478 -0.0032 -0.0763  0.1933
19772W        W36619  15.113  13.813   3.799 -0.1660  0.0801  0.0120
19773W        W36620   3.853   2.807   4.902 -0.0381 -0.0962  0.0468
19774W        W36621  13.078  18.508   2.233  0.0795  0.2487  0.1117
19775W        W36622   3.134  15.631   5.710 -0.3790  0.0414  0.3772
19776W        W36623  12.775   2.462  15.636 -0.0650  0.1751  0.1963
19777W        W36624   8.721  11.163   5.142 -0.1433  0.0631 -0.1521
19778W        W36625  14.067   1.443   0.519  0.1598 -0.1841  0.0375
19779W        W36626  18.030  18.240  12.693 -0.4294  0.1184  0.1120
19780W        W36627  17.340  14.688  12.631  0.0157 -0.0584 -0.0827
19781W        W36628  18.257   7.669   0.245  0.0081 -0.0349  0.0171
19782W        W36629  12.723   7.204   4.657  0.0870 -0.2032  0.0928
19783W        W36630  14.800   0.248  12.886  0.3074 -0.1426 -0.1381
19784W        W36631   4.489  17.299  12.001 -0.0585  0.2627 -0.2928
19785W        W36632  18.162   6.902   3.142  0.0987  0.2993 -0.3629
19786W        W36633   0.088  15.810  13.855  0.0059  0.0783  0.0426
19787W        W36634   9.815  16.608  11.268 -0.1219 -0.0933  0.0733
19788W        W36635   9.770   9.038  12.787  0.1440 -0.0191  0.1973
19789W        W36636  18.227   6.765  14.410 -0.0248 -0.0924 -0.0422
19790W        W36637  16.333   4.266   0.940 -0.0667 -0.0216  0.0576
19791W        W36638   2.398   0.102   3.236 -0.1828 -0.2992 -0.2456
19792W        W36639  14.660   4.578  12.557 -0.1784  0.4130  0.2240
19793W        W36640  13.943   7.644   3.427  0.0257 -0.1549 -0.3861
19794W        W36641   7.917   0.732   2.277  0.1666 -0.0008 -0.1020
19795W        W36642   4.184   9.457   0.693  0.0530  0.0274  0.1821
19796W        W36643   6.939   0.281  13.015  0.0011  0.1455 -0.1774
19797W        W36644   8.081   1.264  13.158  0.1484 -0.3611 -0.0617
19798W        W36645   2.253   4.209  12.297  0.0316 -0.1761 -0.0846
19799W        W36646   8.208  12.481   5.083  0.2285  0.4168 -0.2488
19800W        W36647   5.797   3.940   1.047  0.3672  0.0336  0.0571
19801W        W36648   0.949   7.481  12.159  0.1397 -0.2333 -0.3638
19802W        W36649  16.333  18.417   2.847 -0.2788  0.1635  0.0704
19803W        W36650  11.237  11.203   4.147  0.1949  0.0478  0.2055
19804W        W36651   8.151   6.970  14.213 -0.1282 -0.2222 -0.2134
19805W        W36652  16.387   9.041   2.051 -0.2424 -0.0536  0.0018
19806W        W36653  10.322   1.093  15.298  0.1331 -0.1472 -0.2199
19807W        W36654   7.823   8.237   3.258  0.1780  0.3266  0.1768
19808W        W36655  16.062  11.207   1.316 -0.2088  0.0002 -0.1433
19809W        W36656  12.140   7.313  12.635  0.0000 -0.0179 -0.0327
19810W        W36657  15.489  14.683   4.086 -0.1479  0.2417 -0.1561
19811W        W36658  18.180   5.553  15.794 -0.0162 -0.1191 -0.2574
19812W        W36659  15.903   0.740   2.898  0.2277  0.1872  0.0327
19813W        W36660  15.055   2.859   4.391  0.1691  0.0519 -0.1861
19814W        W36661   9.535   5.586  14.861  0.0379  0.2283  0.0830
19815W        W36662   7.561  12.570   2.793  0.1187  0.0810  0.0330
19816W        W36663   3.356  16.190   5.919 -0.2384 -0.1269 -0.4691
19817W        W36664   4.637   0.048  12.124  0.1583 -0.2874  0.1044
19818W        W36665  13.002  10.449   2.354 -0.1919  0.0373 -0.0929
19819W        W36666   4.685   4.887   3.912  0.1083  0.2072 -0.0755
19820W        W36667   5.525  18.114   3.027 -0.4470 -0.1314  0.0685
19821W        W36668   3.540  17.267   4.351  0.0728  0.1157 -0.1959
19822W        W36669   2.498  16.177   5.348  0.1809 -0.1752 -0.0311
19823W        W36670  14.423   2.493   0.624 -0.1831 -0.0944  0.0231
19824W        W36671  17.777   5.462  11.907 -0.1650  0.0949  0.0574
19825W        W36672  16.288  14.545   2.791  0.1380 -0.1212  0.1781
19826W        W36673   1.851   9.908   1.278  0.1743  0.3499  0.0067
19827W        W36674  10.542   6.202  12.557  0.0397 -0.0567 -0.0163
19828W        W36675  13.548  11.868   4.424 -0.0854  0.0708 -0.0921
19829W        W36676  10.386  10.687   4.309 -0.1565 -0.0815 -0.2626
19830W        W36677  11.274   6.963  15.266 -0.1253 -0.5004 -0.0242
19831W        W36678  13.352   3.739  12.179  0.0486  0.0679 -0.0483
19832W        W36679  16.503  18.338   0.472  0.1737 -0.1540  0.0348
19833W        W36680   0.558  11.612   0.492  0.1260  0.0453 -0.2144
19834W        W36681  17.496   0.792  11.040  0.0269 -0.2285  0.0326
19835W        W36682   0.702  13.764  11.869 -0.0583 -0.0557 -0.0755
19836W        W36683  13.834   8.470  12.253 -0.1252  0.1331  0.0666
19837W        W36684   1.800  17.515  12.030  0.1657 -0.0700 -0.0681
19838W        W36685   0.546   8.507   4.697  0.1924  0.2559 -0.0098
19839W        W36686  13.807   8.036   4.696 -0.0309 -0.0522 -0.2310
19840W        W36687   3.386   1.257   0.211  0.0396 -0.1775 -0.0721
19841W        W36688  10.421  13.518  11.979  0.1872  0.0021 -0.0731
19842W        W36689  16.199  13.726  14.769  0.0156 -0.1247  0.2888
19843W        W36690  10.726   9.602   0.424  0.0608  0.2754 -0.2645
19844W        W36691   8.143   0.059  13.719  0.0157  0.0944 -0.1458
19845W        W36692  12.469  13.764  12.165  0.0522  0.4349  0.4778
19846W        W36693   2.079   9.709   3.520  0.0233  0.1138 -0.4522
19847W        W36694   3.907  11.627   4.116 -0.0994  0.0824 -0.1620
19848W        W36695   0.383  13.597  15.606  0.1839  0.0090 -0.1726
19849W        W36696  12.741  14.806   1.716  0.0224  0.2746  0.0023
19850W        W36697  11.335   1.699   2.640 -0.0727  0.2297  0.0929
19851W        W36698  14.819   3.260   2.750 -0.0257  0.0041 -0.0365
19852W        W36699  17.319   0.575   4.655 -0.1370 -0.1916 -0.0545
19853W        W36700  11.561   6.630   2.200  0.0498 -0.0267  0.0955
19854W        W36701   0.841  13.436   1.923  0.0262  0.0639  0.1725
19855W        W36702  13.435  12.942  15.839  0.0598  0.0963  0.3112
19856W        W36703  12.494   1.105  14.246  0.0554 -0.2639 -0.1092
19857W        W36704  18.300   5.194   2.946 -0.4012 -0.0903  0.3837
19858W        W36705  11.223  13.644  14.120 -0.0622 -0.0198 -0.1824
19859W        W36706  14.468   7.753  10.569 -0.0142 -0.1684  0.0808
19860W        W36707  12.844  14.683   5.340  0.2804  0.0882  0.2946
19861W        W36708  10.588  17.746   4.294  0.1108 -0.1613 -0.1648
19862W        W36709   6.904   4.369   4.260 -0.0648  0.3287 -0.2557
19863W        W36710  17.104   6.291   1.005  0.0027  0.1547  0.0881
19864W        W36711  13.978  16.269   0.418  0.1362  0.1640 -0.5074
19865W        W36712   2.440   1.774   1.240  0.1810 -0.1613 -0.0070
19866W        W36713   7.944   5.773  15.592 -0.3943 -0.3870 -0.0848
19867W        W36714   0.534  15.375  12.467 -0.1037 -0.0939  0.0457
19868W        W36715   4.496  15.330   5.270 -0.0544 -0.0686  0.2040
19869W        W36716   5.526   2.213  13.922 -0.2819  0.0449 -0.0186
19870W        W36717  14.299   2.366  11.358  0.3006 -0.0690 -0.0774
19871W        W36718   5.674  15.807  11.418 -0.1263  0.3795 -0.2929
19872W        W36719  10.338   4.639  15.253  0.1099  0.0041 -0.1040
19873W        W36720   4.364   9.609   5.680  0.0448  0.0292 -0.0315
19874W        W36721   0.204  17.865   0.382  0.0507 -0.0287 -0.0739
19875W        W36722   6.877   7.839  11.455  0.0364 -0.0005 -0.1466
19876W        W36723   6.848  15.390  11.429  0.2044  0.0077  0.2780
19877W        W36724  11.655  13.944  12.640  0.1805  0.0360  0.1528
19878W        W36725  15.291   0.147  12.233  0.3377 -0.0378  0.1433
19879W        W36726  17.397  16.759   0.991 -0.1647 -0.4708  0.4634
19880W        W36727   9.384  15.354  15.804  0.0612 -0.0471  0.2771
19881W        W36728   3.911  17.300  12.342  0.0420 -0.0363 -0.1088
19882W        W36729   7.523   7.403   0.076  0.1777  0.1751  0.2443
19883W        W36730   8.060  14.575   5.420 -0.2059  0.1843  0.0193
19884W        W36731   4.059   5.545  13.902  0.1852  0.1382 -0.0542
19885W        W36732   4.582   1.817  15.131 -0.1752  0.1392 -0.2032
19886W        W36733   5.136   0.540   1.167  0.0127  0.0629  0.0547
19887W        W36734  16.357   9.558  14.203  0.0943 -0.1782  0.4089
19888W        W36735   8.503  14.453   4.673  0.0231 -0.1333  0.0749
19889W        W36736  11.397   5.696   2.695 -0.2970  0.2394 -0.1385
19890W        W36737  11.015  17.718  14.296  0.0175 -0.3186 -0.0153
19891W        W36738   3.042  10.432  14.668  0.0767 -0.2915 -0.0744
19892W        W36739   1.022  12.090  15.733 -0.2605 -0.0620  0.0261
19893W        W36740  11.765   5.621   3.088 -0.0293 -0.0286 -0.1030
19894W        W36741  11.432   7.557   5.874 -0.0707  0.2362 -0.0186
19895W        W36742  12.941   8.676   2.354  0.1977  0.0949  0.0135
19896W        W36743   5.574   5.510  15.750 -0.0957 -0.0361  0.1304
19897W        W36744  12.322  14.178  14.752  0.3401 -0.1522  0.3020
19898W        W36745  16.118   2.539   2.150  0.2241  0.0588  0.0564
19899W        W36746  14.355  11.756   1.413  0.0130 -0.2314  0.2280
19900W        W36747   0.493  11.221  15.471 -0.0716 -0.0813  0.2121
19901W        W36748  13.386  13.334   4.393 -0.0229  0.0125 -0.0267
19902W        W36749   8.092  11.768  14.508 -0.2920  0.1832 -0.0712
19903W        W36750  15.044   9.965  12.294  0.2603  0.0132  0.0750
19904W        W36751   9.425  16.577  14.171  0.0657 -0.0937 -0.1622
19905W        W36752   6.964   4.129  13.007  0.0144 -0.4401 -0.2534
19906W        W36753  15.909   5.646   0.165  0.2568  0.2397 -0.1251
19907W        W36754  12.383   8.283   1.314  0.0709  0.1729  0.0904
19908W        W36755   3.207   3.146  11.333  0.2252 -0.1178 -0.1499
19909W        W36756  17.397  10.400   1.327 -0.0068 -0.0458  0.3845
19910W        W36757  17.248  12.189  15.527  0.2492  0.0469 -0.3158
19911W        W36758  10.588   4.573   4.920  0.0758 -0.0984 -0.0431
19912W        W36759  11.106  11.795   0.989 -0.1632 -0.1203  0.1928
19913W        W36760   7.122   1.125  11.038  0.1041 -0.1308  0.2085
19914W        W36761  11.812   4.353  14.539  0.0221 -0.0504  0.1351
19915W        W36762  17.376   1.932  12.607  0.1483 -0.1860 -0.0098
19916W        W36763   4.670  10.690   4.654 -0.2487 -0.0063 -0.1586
19917W        W36764   7.051  12.578   1.091 -0.1032 -0.0154  0.0921
19918W        W36765   5.220  14.945   5.534  0.0683 -0.0482 -0.1675
19919W        W36766   5.821  10.142   1.521 -0.1174  0.0127  0.2648
19920W        W36767  17.520  15.935   4.956  0.2913  0.0355  0.0523
19921W        W36768   1.757   9.223  13.033  0.0827 -0.0688 -0.0165
19922W        W36769   6.113   4.691  13.620 -0.2934  0.0087 -0.2516
19923W        W36770   3.751   6.997   2.786 -0.0389  0.0519  0.3368
19924W        W36771   0.050  17.666  13.258  0.1092 -0.0608  0.0598
19925W        W36772   8.369  15.593   4.483  0.1745 -0.0361  0.4152
19926W        W36773   0.178   7.186  14.082 -0.1835 -0.1520 -0.2759
19927W        W36774   0.111   3.827   4.535 -0.2685  0.2638 -0.1570
19928W        W36775  11.893  16.619  13.286  0.0021  0.2388  0.0599
19929W        W36776   8.652  15.205  15.064  0.1126  0.0998 -0.2920
19930W        W36777   9.831  14.284   0.458  0.0415  0.0976  0.0909
19931W        W36778   9.388   2.925   2.493 -0.2027  0.0083  0.1717
19932W        W36779   1.139   0.532   2.082  0.2661 -0.1488  0.1077
19933W        W36780  14.681  13.744   5.316 -0.0666  0.0654 -0.5257
19934W        W36781   6.953  11.384  12.035  0.4307  0.1799  0.1457
19935W        W36782  13.624  15.961   3.634 -0.1019 -0.2363 -0.1493
19936W        W36783   4.205  16.265  15.552  0.4865 -0.1307 -0.1524
19937W        W36784  15.596  11.250  12.647 -0.1095 -0.0327  0.3711
19938W        W36785   1.861  18.352   3.471 -0.0242  0.0809  0.0026
19939W        W36786   1.575   8.375  12.678  0.2330 -0.0315  0.1888
19940W        W36787   5.519  16.443   1.011 -0.1338 -0.0783 -0.3360
19941W        W36788  10.620   3.598   9.623 -0.2306 -0.1459  0.1566
19942W        W36789  11.665   8.661  12.273 -0.0321 -0.2436  0.4083
19943W        W36790  11.870   1.815  11.475  0.2595 -0.0771  0.1465
19944W        W36791  18.108  16.827  12.826  0.2095 -0.0193 -0.1671
19945W        W36792   5.482   9.970  11.902  0.0724 -0.2090  0.1036
19946W        W36793   1.115  11.372   5.872  0.0911 -0.0041  0.2132
19947W        W36794  12.791  17.384  14.237 -0.1104 -0.2710 -0.0665
19948W        W36795   4.301  14.855   0.096 -0.1598  0.0775 -0.0538
19949W        W36796  11.757  15.735  10.971 -0.0910 -0.5026 -0.0703
19950W        W36797   9.071  16.980   0.374  0.1227 -0.0923  0.1100
19951W        W36798   2.011   3.925   0.129 -0.1420  0.0158  0.0697
19952W        W36799  13.485   3.115  14.069 -0.1483 -0.0796  0.1470
19953W        W36800  14.637   3.660   2.518 -0.0346 -0.0568 -0.1570
19954W        W36801  12.402   8.115   4.943  0.1041 -0.1301  0.1831
19955W        W36802   8.987  14.291   1.562 -0.2095 -0.0891  0.1598
19956W        W36803  10.783   6.305   4.464  0.2934  0.1156  0.0949
19957W        W36804  13.496  11.083  14.760 -0.0706 -0.0393 -0.0242
19958W        W36805   2.877  15.729  12.489 -0.0265  0.0950 -0.1389
19959W        W36806   4.673   2.689  13.207  0.2935 -0.1642 -0.1852
19960W        W36807  17.748  13.029  13.451 -0.1351  0.0708  0.1550
19961W        W36808   0.907  10.187   4.771 -0.1759 -0.1061  0.0149
19962W        W36809   7.636  17.149  13.970 -0.2049 -0.0512  0.0119
19963W        W36810   8.887   7.964   3.946 -0.1446  0.2217  0.2483
19964W        W36811   5.593  14.506  14.762 -0.0131  0.1059  0.2084
19965W        W36812   7.688   3.369  13.520 -0.0996 -0.3226  0.1239
19966W        W36813  13.488   4.754  15.873  0.2499  0.1209 -0.0846
19967W        W36814  10.004  13.794  14.790  0.1212  0.3852  0.0852
19968W        W36815   5.720   1.969  12.780  0.1806  0.2247 -0.0806
19969W        W36816  13.431  10.634  14.589  0.2783  0.0552  0.0838
19970W        W36817   9.812   8.916   0.839  0.2602  0.1221 -0.1312
19971W        W36818   3.674   0.889   3.544 -0.1325  0.2186  0.4099
19972W        W36819  15.145  15.139  14.638  0.1493 -0.2818 -0.0102
19973W        W36820  16.405   7.463  10.433 -0.0094 -0.0051 -0.1020
19974W        W36821   4.890   8.348   5.751  0.0405 -0.0324  0.0779
19975W        W36822  18.035   0.866   0.530  0.3682  0.1950  0.1489
19976W        W36823   0.473  12.267  11.668 -0.0571 -0.0420  0.0576
19977W        W36824   3.604   8.256  14.045  0.0560  0.0663  0.0028
19978W        W36825   5.344   7.097  14.116 -0.2247 -0.2517  0.0860
19979W        W36826  17.606  14.014  15.454 -0.0431 -0.0359 -0.1118
19980W        W36827   3.151   1.145   4.333 -0.0731 -0.1577 -0.2384
19981W        W36828   6.077   9.266   0.632  0.0026  0.1639 -0.1978
19982W        W36829  13.306   9.911  11.720  0.3109  0.0460 -0.0659
19983W        W36830  11.798  17.867  13.942 -0.0687 -0.1735  0.0305
19984W        W36831  15.605   7.863  14.084  0.1360 -0.0557 -0.1550
19985W        W36832   0.358   7.416  15.656  0.0030  0.0649 -0.0139
19986W        W36833  17.266  13.316  10.929 -0.0460 -0.0518  0.0630
19987W        W36834   9.426  15.514  11.335 -0.1018  0.0929 -0.0089
19988W        W36835  14.721  12.209   3.567 -0.1616  0.0432 -0.0470
19989W        W36836  14.006  11.066   0.434 -0.0400 -0.0392  0.2004
19990W        W36837   3.280   0.203   1.463  0.0071 -0.0749  0.1056
19991W        W36838   3.603  10.332   3.418  0.1324 -0.0796  0.0052
19992W        W36839   4.725   3.495   4.612 -0.2005 -0.0430 -0.2064
19993W        W36840  17.875   3.245   0.796 -0.3531 -0.2070 -0.1250
19994W        W36841  14.600   7.002   3.879 -0.1803 -0.0719  0.1666
19995W        W36842   4.622  16.424  11.657 -0.0766 -0.2140  0.0779
19996W        W36843  10.061  14.293  14.222 -0.0051 -0.1269 -0.0043
19997W        W36844   8.655   4.476   0.912 -0.1878 -0.0817  0.0522
19998W        W36845  11.504  14.882   4.166 -0.0361  0.2358  0.0100
19999W        W36846   7.188   5.489   3.595  0.1491 -0.0705 -0.1810
20000W        W36847  13.864  15.771  14.796  0.2095 -0.0276 -0.0610
20001W        W36848   7.136  12.677   3.314  0.1580  0.0953  0.0156
20002W        W36849  12.488   4.039  11.985 -0.0133  0.1134 -0.0357
20003W        W36850  15.206  15.961   0.365  0.0108 -0.1276  0.0339
20004W        W36851   6.547   4.183   0.638  0.0170  0.1111 -0.0231
20005W        W36852   9.935  14.513   1.083 -0.0591  0.0599  0.2030
20006W        W36853  15.646   4.805  12.779 -0.0553 -0.0777 -0.2599
20007W        W36854  13.445  17.188   3.050 -0.0075  0.0656 -0.3650
20008W        W36855   5.864  17.140   3.272 -0.1060  0.1101 -0.0248
20009W        W36856   6.028  15.314   0.892 -0.0792  0.1881 -0.1746
20010W        W36857   5.916   5.228  13.788  0.1326  0.0146  0.2441
20011W        W36858   8.947  11.846   4.884 -0.0677  0.2601 -0.0727
20012W        W36859   3.997   5.104  13.201 -0.0029 -0.0839  0.0578
20013W        W36860  15.262   0.291  15.351  0.2810 -0.3712 -0.2116
20014W        W36861   8.456   9.205   1.852 -0.3399  0.0353  0.1594
20015W        W36862   6.854  10.643  12.417 -0.0249 -0.1049 -0.1206
20016W        W36863   0.061   3.096  11.090  0.1709  0.1601 -0.2855
20017W        W36864   9.006  12.529  15.931  0.0980  0.1130  0.0799
20018W        W36865   5.122   4.129   2.968  0.1896  0.2080  0.2251
20019W        W36866  15.156   0.484  12.587  0.2165 -0.0929  0.1759
20020W        W36867   7.763   7.836  13.711 -0.0260  0.1958 -0.0614
20021W        W36868   8.209   0.079  12.488 -0.1023 -0.2620  0.2435
20022W        W36869  13.816   2.512  11.246 -0.0886 -0.3533  0.3295
20023W        W36870   9.037   4.342  10.604  0.3605 -0.0564 -0.0556
20024W        W36871  10.661  14.837  15.769  0.2223  0.1344 -0.2177
20025W        W36872   2.723   4.204  13.642 -0.2521 -0.1481 -0.1199
20026W        W36873   3.526   3.319  13.139  0.1973  0.0315  0.2086
20027W        W36874  10.255  11.551  14.846  0.2367 -0.1584 -0.2146
20028W        W36875   8.434   7.158  12.733 -0.2213 -0.1113 -0.1613
20029W        W36876   7.689   2.265  15.101  0.0710 -0.1414 -0.0463
20030W        W36877   5.044   5.095   1.970  0.3605 -0.0770 -0.2438
20031W        W36878   2.098   1.881  13.554  0.1560  0.0595 -0.2231
20032W        W36879   4.100  13.335   2.022  0.3095  0.1024  0.0330
20033W        W36880  10.031  11.750  13.951  0.0364 -0.2771  0.1918
20034W        W36881  15.605  11.773  12.830 -0.0452 -0.0343 -0.1972
20035W        W36882   0.304  10.274   0.428  0.2125  0.1692  0.1800
20036W        W36883   0.339   5.585   1.870 -0.0918  0.0863  0.3171
20037W        W36884   5.684   0.489  15.807 -0.1087 -0.2136 -0.1218
20038W        W36885   8.902  11.437   3.438  0.0611  0.1450  0.0041
20039W        W36886   9.644  17.335  12.605 -0.0966  0.1001  0.0360
20040W        W36887  13.634  13.461  11.884 -0.1266 -0.1184 -0.0538
20041W        W36888  11.566  14.297   5.326  0.0641  0.0656  0.0800
20042W        W36889  12.364   1.944   3.396 -0.1649 -0.1925  0.0462
20043W        W36890  12.994  12.231   3.176  0.0006  0.0597 -0.3674
20044W        W36891   2.395   6.983  12.203 -0.0317 -0.1896  0.4103
20045W        W36892  17.339   5.301  12.610 -0.1294 -0.2592 -0.0775
20046W        W36893   5.294  15.141  15.385  0.2311  0.1935  0.0425
20047W        W36894  17.710   6.739   5.067 -0.0813 -0.3198 -0.1823
20048W        W36895  18.212  11.327  14.772 -0.0087 -0.3202 -0.1639
20049W        W36896   7.692  13.097  13.222  0.1128 -0.2375 -0.1036
20050W        W36897   2.614   4.885   3.744  0.0898  0.2187  0.0487
20051W        W36898  10.761  16.142   0.692  0.2622 -0.0605  0.1238
20052W        W36899  15.615   9.016  11.731 -0.0364  0.0962 -0.0501
20053W        W36900   4.682   9.897   4.815  0.0827 -0.1873 -0.1495
20054W        W36901  12.468   2.856  11.228 -0.2841  0.1846 -0.1266
20055W        W36902  17.422   6.018  11.238 -0.1211  0.0547  0.0817
20056W        W36903   3.796  11.164  15.457 -0.0129 -0.2332 -0.0691
20057W        W36904  11.386  10.493   3.760 -0.1114  0.0238 -0.0676
20058W        W36905   5.446  14.828  13.537 -0.0618 -0.0350  0.0333
20059W        W36906   7.780  16.765   5.295 -0.1287 -0.0028  0.4892
20060W        W36907  18.225  14.112   0.888 -0.2198  0.2539  0.2921
20061W        W36908   4.559  16.065  12.579 -0.0696  0.0782  0.1147
20062W        W36909  12.604  18.012  13.564  0.0501 -0.0737  0.1376
20063W        W36910  10.598  16.507  11.588  0.2165 -0.0848 -0.2869
20064W        W36911   6.596   3.561   0.633  0.1239  0.1510 -0.2444
20065W        W36912  14.000   8.160   3.696 -0.0332  0.0199 -0.2114
20066W        W36913   9.615  14.567  14.206 -0.0731  0.1620 -0.1306
20067W        W36914  14.113  16.668  15.255  0.2384  0.1658  0.0469
20068W        W36915   6.288  13.867  14.636 -0.0320 -0.0432 -0.0015
20069W        W36916  16.740  16.011  15.084  0.0737 -0.2190 -0.0511
20070W        W36917  11.195   6.315  11.777  0.3265 -0.1957 -0.2509
20071W        W36918   0.766  10.210   5.353  0.2597  0.0110  0.2693
20072W        W36919   2.621  12.316   3.397 -0.3747  0.0117 -0.0748
20073W        W36920   8.667   9.719  12.722 -0.1429  0.1170 -0.0421
20074W        W36921   1.348   5.020   2.470 -0.1680 -0.0924  0.1335
20075W        W36922  11.937  18.515  13.026 -0.2168  0.1894  0.3803
20076W        W36923   7.357  16.864   3.898  0.3832  0.1166 -0.0038
20077W        W36924   7.454  15.990  14.525  0.0850  0.0123  0.1140
20078W        W36925   1.567   5.765   4.241 -0.0756  0.1827 -0.0241
20079W        W36926   3.096  17.582   2.799 -0.1304  0.1589 -0.0944
20080W        W36927  17.581  14.949  13.873  0.3604  0.2021  0.1162
20081W        W36928  13.163   2.512  15.242  0.1548 -0.1331 -0.0789
20082W        W36929   3.914  10.373  14.032 -0.1134  0.0029 -0.1711
20083W        W36930  16.822   1.779   4.712 -0.1648  0.1918 -0.0559
20084W        W36931  12.315   8.719  12.868 -0.1128  0.0053  0.0304
20085W        W36932  11.073  15.866  11.561  0.0621  0.1064  0.2996
20086W        W36933   6.382   4.463   3.164  0.3293  0.0975  0.2676
20087W        W36934  11.778   9.832  14.334 -0.2156 -0.0392  0.0175
20088W        W36935   4.717   8.477  14.136  0.2935  0.0969  0.1626
20089W        W36936  14.517   6.974  15.263 -0.1190 -0.1402 -0.1483
20090W        W36937  11.602   1.126  11.565 -0.0255 -0.3899 -0.1895
20091W        W36938   8.848  10.904   4.356  0.0603 -0.2468  0.0290
20092W        W36939  15.475  12.633   4.888  0.0276 -0.0596 -0.0356
20093W        W36940   7.723   8.984   2.488  0.0179  0.2399  0.0007
20094W        W36941  16.234   3.648  13.313 -0.2751  0.0087 -0.0653
20095W        W36942   8.829   6.234   2.349  0.1616 -0.0881  0.2212
20096W        W36943   2.794  11.283   1.506  0.2033  0.2053  0.0403
20097W        W36944  18.268   0.551   2.411  0.0510  0.1992 -0.1999
20098W        W36945  13.417   8.357   3.693 -0.0160  0.1041 -0.0427
20099W        W36946   2.464   3.240  13.294  0.1884  0.0528  0.1289
20100W        W36947   9.524   5.199  15.767 -0.0940  0.0899  0.0047
20101W        W36948  12.015   2.283  15.723  0.0606 -0.3630 -0.2018
20102W        W36949   6.803   9.477   1.206  0.1181 -0.2499  0.1399
20103W        W36950   0.571   0.757   0.325 -0.1531 -0.1552  0.0140
20104W        W36951  11.001  17.611  13.742 -0.0747 -0.1548  0.1081
20105W        W36952   2.338   3.066   4.481  0.0105 -0.0227 -0.0436
20106W        W36953  13.045  13.870  13.473 -0.2921  0.2983 -0.0823
20107W        W36954   5.294  11.021  13.921  0.1552  0.0301 -0.5315
20108W        W36955   8.738  15.484   0.337 -0.2455 -0.1550 -0.2577
20109W        W36956   0.517   7.267   5.132 -0.0385 -0.4579 -0.3398
20110W        W36957   5.447  15.509   5.203  0.2915  0.3932 -0.1534
20111W        W36958  13.440  18.031   4.320 -0.2948  0.0838 -0.1935
20112W        W36959  12.353   6.981  15.226 -0.0747  0.2732  0.0348
20113W        W36960  11.665   7.581   1.310  0.3136 -0.1024 -0.1004
20114W        W36961  10.140   0.580  12.189  0.1782 -0.3029  0.0874
20115W        W36962  14.042  17.263   1.808  0.0521 -0.1988 -0.0873
20116W        W36963  12.902  12.589   0.478  0.1395 -0.3500 -0.2760
20117W        W36964  14.242   2.318  14.575 -0.4282 -0.2322  0.1097
20118W        W36965  13.945   1.510   4.862  0.2842  0.1756 -0.0415
20119W        W36966  14.167   6.818  14.067  0.0494  0.0433 -0.0966
20120W        W36967  14.470  14.800   2.999  0.2627 -0.1107  0.1433
20121W        W36968  14.929   6.359  12.665  0.3188  0.2735 -0.1858
20122W        W36969   6.855   5.570  15.470 -0.1679 -0.1721  0.1925
20123W        W36970  14.075   9.344  13.994 -0.1118  0.3093 -0.2754
20124W        W36971   7.931  13.859  12.641  0.2496  0.0440 -0.1707
20125W        W36972   2.279  17.709   5.380 -0.0209 -0.0141 -0.0978
20126W        W36973   8.930   8.322   0.003 -0.3869 -0.1547 -0.0691
20127W        W36974   3.001  10.320   1.629  0.0728  0.1413  0.0143
20128W        W36975  17.344   4.944  11.751  0.1114 -0.2012 -0.0262
20129W        W36976   9.740   8.780   0.353  0.0845  0.0489 -0.0160
20130W        W36977   6.572  12.762  13.977 -0.0652 -0.1749  0.1612
20131W        W36978   8.887  13.643   4.032  0.0407 -0.1874 -0.0441
20132W        W36979   4.472  15.009   4.869 -0.0190  0.0767 -0.2531
20133W        W36980  11.676  13.442  15.475 -0.0396  0.0729  0.3153
20134W        W36981   3.063  12.602  14.306  0.0284 -0.1613  0.3847
20135W        W36982   1.211  14.424   1.855  0.0692 -0.4397 -0.1272
20136W        W36983  16.342  17.830   2.472 -0.4513  0.1329  0.0746
20137W        W36984   0.159   2.878   5.400  0.0410  0.0471  0.2971
20138W        W36985   5.722   0.924  11.095  0.0268  0.3630 -0.1884
20139W        W36986  16.716  14.817   0.025  0.0485 -0.0838 -0.1893
20140W        W36987   8.206   8.996   2.354 -0.0817 -0.3023  0.0765
20141W        W36988   0.723   1.533   4.837 -0.0671  0.1986  0.1967
20142W        W36989   0.350   9.579  14.000  0.0961  0.0359  0.2236
20143W        W36990   0.248   0.726   2.565  0.2121 -0.0893 -0.2298
20144W        W36991  11.948   6.640   1.094  0.1045 -0.3801  0.0476
20145W        W36992   5.953   7.890   2.040  0.2750  0.2651 -0.1765
20146W        W36993   2.813  10.956  13.436 -0.0156 -0.2901  0.2260
20147W        W36994   7.852  12.270  15.704 -0.3554 -0.4262 -0.3806
20148W        W36995  13.766   4.524   3.395  0.3123 -0.1230  0.3349
20149W        W36996   8.944   9.736   4.193  0.2740 -0.4414  0.1830
20150W        W36997  17.590   6.610  14.507 -0.1245  0.0872 -0.0531
20151W        W36998   8.336   1.230   4.975 -0.0088  0.0579 -0.0276
20152W        W36999   5.230  18.040  13.384  0.2107  0.1693  0.2161
20153W        W37000   4.050  16.081   3.790  0.0208  0.2204  0.0104
20154W        W37001  15.955   5.135   0.045 -0.1234 -0.2777  0.0081
20155W        W37002   7.557  15.838   3.861 -0.0988  0.0932  0.0190
20156W        W37003   4.185  10.469  15.809 -0.0054  0.2630 -0.0610
20157W        W37004   6.327   1.188   2.291 -0.2326  0.2117  0.1564
20158W        W37005  13.628   6.846  12.262  0.2908  0.0209  0.0669
20159W        W37006  10.855  13.420  13.635  0.3607  0.0896 -0.1591
20160W        W37007  10.064   1.948  13.175  0.1076 -0.1535  0.0828
20161W        W37008  15.137   1.711  13.229 -0.0412  0.0516  0.4337
20162W        W37009   9.534  15.836  11.846  0.3291  0.3579 -0.0034
20163W        W37010  11.334   0.004  14.502  0.1543  0.0596  0.1065
20164W        W37011   4.719   4.436   0.736 -0.0911  0.0945  0.0095
20165W        W37012   1.691   7.391  13.944 -0.0071 -0.0640 -0.2522
20166W        W37013   7.417   0.866   0.396  0.0025  0.1760  0.1175
20167W        W37014   9.833   7.247  12.489  0.1405 -0.1209  0.1809
20168W        W37015  18.154   6.375  13.044  0.1098 -0.0061 -0.1638
20169W        W37016  11.311  18.438   2.146  0.0389 -0.0226 -0.0014
20170W        W37017  10.186   1.551  12.587 -0.3580 -0.0919 -0.0830
20171W        W37018  14.243   5.101   4.272 -0.1490  0.1788 -0.2380
20172W        W37019  18.132   0.951  11.867  0.0013  0.0475 -0.0443
20173W        W37020  12.423  11.938   5.083 -0.2181 -0.1963 -0.1671
20174W        W37021   1.905   6.029  14.036 -0.0037  0.0125  0.0991
20175W        W37022   8.659   0.319   4.052 -0.1780  0.1618 -0.3156
20176W        W37023   3.268  13.242   2.582  0.4179 -0.3990 -0.0106
20177W        W37024  14.512  15.263  15.564 -0.2348  0.1867 -0.0505
20178W        W37025  14.306  10.502   1.180  0.3517  0.1073 -0.0451
20179W        W37026   5.106  13.613   2.911 -0.4071 -0.0936 -0.0033
20180W        W37027   2.393   7.504  15.528 -0.0575 -0.1277  0.1351
20181W        W37028   2.581  15.797   4.451 -0.0653  0.0483  0.3426
20182W        W37029   0.976   9.828   0.969  0.2919  0.2571  0.1586
20183W        W37030  14.497   7.228   5.068  0.2374 -0.2159  0.0797
20184W        W37031   5.254   9.425   1.301  0.0945  0.0835 -0.0369
20185W        W37032   2.841   4.408   4.780  0.0395  0.1338  0.0215
20186W        W37033  18.305  11.721  12.022  0.0979  0.2515 -0.0546
20187W        W37034  10.852  14.283   4.197  0.0209  0.4036  0.0502
20188W        W37035   9.870   9.575  12.757 -0.0141 -0.1806  0.2148
20189W        W37036   4.271   1.499  13.763  0.1344 -0.2106 -0.0257
20190W        W37037   6.706   8.819  12.709  0.0003  0.0007  0.2299
20191W        W37038  15.899   2.744  14.443  0.0770  0.2050 -0.1926
20192W        W37039  13.185   9.783   5.973 -0.1542  0.3015  0.2300
20193W        W37040  10.755  11.607   2.365  0.1517 -0.0905  0.3350
20194W        W37041   8.035   9.603   5.005  0.0619  0.1969  0.1432
20195W        W37042   9.833  16.163   2.834  0.2807  0.0962  0.0849
20196W        W37043  11.640  13.611   1.320 -0.0884 -0.0709  0.0564
20197W        W37044   6.899   1.895   1.691  0.1208  0.0970 -0.0456
20198W        W37045   0.404  18.382  12.064  0.3724  0.0660 -0.2334
20199W        W37046  17.695   4.888  10.144  0.1193  0.2558 -0.0938
20200W        W37047   8.459   5.211   3.690  0.1452  0.1839 -0.0320
20201W        W37048  10.506  18.190  13.342  0.0163  0.2643 -0.2260
20202W        W37049   7.461   6.821   0.809  0.1625 -0.1798  0.0456
20203W        W37050   3.957   7.255  14.090  0.0655 -0.0435 -0.0006
20204W        W37051   4.365   4.133   5.052 -0.0306 -0.3637  0.2528
20205W        W37052  14.883   5.838  12.534 -0.1166  0.0426 -0.3510
20206W        W37053  15.107  16.342  12.084 -0.1035 -0.2887  0.2382
20207W        W37054  14.923   9.967   1.895  0.1148  0.0036  0.2828
20208W        W37055  11.098   3.986   5.187 -0.1080 -0.0453  0.0010
20209W        W37056  15.395   8.552   3.736  0.1947 -0.0841  0.1323
20210W        W37057   8.238   1.371   0.617 -0.0986  0.0678  0.1046
20211W        W37058   8.450   4.769   1.315 -0.0160  0.0680  0.1162
20212W        W37059   6.935   6.098  15.762 -0.3452  0.2304  0.0035
20213W        W37060  10.520  11.124  14.384 -0.2243  0.1655 -0.0681
20214W        W37061  12.055   5.296  14.965 -0.1224 -0.1943  0.0777
20215W        W37062   9.120   2.962  15.873  0.2007  0.1016  0.3009
20216W        W37063  12.139   2.385  15.161 -0.2055 -0.1627  0.2563
20217W        W37064   0.900  16.195  13.988 -0.1788 -0.0945 -0.6263
20218W        W37065  13.834   4.779   5.075 -0.0632  0.2250  0.1048
20219W        W37066   9.887  18.058  15.197  0.0175 -0.3800  0.1792
20220W        W37067   4.668   0.658  10.395  0.0936  0.2373  0.0476
20221W        W37068  15.321  16.723  12.413 -0.0631 -0.0478 -0.2270
20222W        W37069   7.185  17.834  11.555 -0.1547 -0.0071  0.1713
20223W        W37070  16.954  17.938   1.771 -0.2240 -0.1073 -0.2256
20224W        W37071  14.401   1.204  12.549 -0.3632  0.0367 -0.1081
20225W        W37072  18.429   5.666   2.732  0.3342  0.1261  0.1639
20226W        W37073   3.598   6.363  15.019 -0.0474  0.1453 -0.3679
20227W        W37074  10.588  11.382   0.564 -0.1137  0.0638  0.0823
20228W        W37075   3.939  10.611   1.513  0.1073  0.1663  0.1833
20229W        W37076   0.203   2.539  10.319  0.1237 -0.0889  0.0661
20230W        W37077  15.667   0.042   4.542  0.0157 -0.0739  0.2216
20231W        W37078   5.112  10.217  13.169 -0.3510  0.2329 -0.0907
20232W        W37079   9.273   5.599  11.775 -0.0653  0.1109 -0.1775
20233W        W37080  13.694   8.300   1.316  0.3934  0.3086 -0.2080
20234W        W37081  10.802  14.878   4.890 -0.2489 -0.1892 -0.1061
20235W        W37082   5.327   4.722  11.958 -0.0815  0.0584 -0.1275
20236W        W37083   8.512   1.740   5.049  0.3085  0.0883 -0.0943
20237W        W37084   0.282   8.349  13.315  0.1130  0.0925 -0.0766
20238W        W37085  15.416  16.670  13.792 -0.1942 -0.0723 -0.2564
20239W        W37086  13.733   1.207   4.062  0.2176  0.1376  0.2794
20240W        W37087  11.123  11.464  11.881  0.2139 -0.0413 -0.0639
20241W        W37088  16.734   6.982   5.648  0.2622 -0.2783  0.0074
20242W        W37089  18.294   8.380  12.269  0.0451 -0.3006 -0.1292
20243W        W37090   4.910   6.393   6.168 -0.3519  0.2058  0.1883
20244W        W37091  13.343   8.632   1.111 -0.1234  0.1350  0.0456
20245W        W37092   6.729   7.065   4.493  0.0372  0.1024 -0.0838
20246W        W37093  10.077   2.642  14.960 -0.1572  0.0935 -0.2429
20247W        W37094   0.183  16.104   1.397 -0.1237 -0.1262  0.1021
20248W        W37095   2.815  16.025   3.620  0.1434 -0.1398 -0.1724
20249W        W37096  10.233  14.625  13.575  0.2710  0.0732  0.0481
20250W        W37097   1.568   6.934   0.198 -0.4308  0.2451 -0.1026
20251W        W37098   3.655   2.294   2.369 -0.0682  0.1330 -0.0123
20252W        W37099   4.104  12.961  13.734 -0.1279 -0.0993 -0.0302
20253W        W37100   9.554  17.832   0.217 -0.1234  0.3784 -0.0840
20254W        W37101  11.073  11.966  14.944 -0.1889 -0.0719  0.1928
20255W        W37102  17.308   0.087   3.952  0.0504 -0.0303 -0.2574
20256W        W37103  11.694   1.335   2.069  0.0852  0.1571 -0.1439
20257W        W37104  13.633   1.058  12.614  0.1059 -0.0015 -0.0412
20258W        W37105  15.189  13.854   4.636  0.3780  0.0340 -0.1570
20259W        W37106  11.456   9.671   0.986  0.1873  0.0182  0.2162
20260W        W37107   4.208   7.270   0.706  0.2912  0.1513 -0.2636
20261W        W37108  15.244   3.438  11.393 -0.0753 -0.1110  0.2150
20262W        W37109  14.771   8.359  12.247  0.2434 -0.1049  0.0505
20263W        W37110   6.446  18.264   3.590 -0.2238  0.2912 -0.1073
20264W        W37111   2.653  16.914  14.087  0.0020  0.1376 -0.4469
20265W        W37112  15.036   4.505  14.078  0.2831 -0.1218  0.3718
20266W        W37113   3.778   3.553  15.446 -0.1548 -0.0994 -0.0777
20267W        W37114   4.826   5.157  15.352 -0.2636  0.1115 -0.1534
20268W        W37115   9.391   5.057   1.144 -0.2463 -0.0452  0.0451
20269W        W37116  18.185  15.056   3.454  0.2747  0.0517 -0.0472
20270W        W37117   7.358  14.839   1.943  0.3013 -0.1880  0.0417
20271W        W37118  14.066   7.991  10.748  0.3056  0.2931 -0.0985
20272W        W37119   6.177  14.021  14.149 -0.1115  0.2307 -0.0207
20273W        W37120   5.902   3.343  12.873 -0.1618  0.1548 -0.0546
20274W        W37121  15.959   8.912   2.366  0.0407 -0.0226 -0.0877
20275W        W37122  12.903  13.396   1.264 -0.0556 -0.0011 -0.1721
20276W        W37123  10.877   1.797  14.834  0.0512 -0.1248  0.1325
20277W        W37124  16.068   8.138   4.306 -0.2410 -0.2115  0.2803
20278W        W37125  15.712   9.836   5.313  0.1555 -0.0476  0.0197
20279W        W37126  14.174   9.518   3.570  0.0097  0.3092 -0.2598
20280W        W37127  12.165  16.377   0.885 -0.0762  0.3329  0.0968
20281W        W37128   2.770  13.000  12.322  0.2694 -0.3165  0.2664
20282W        W37129  12.296  17.260  12.980 -0.0809 -0.0068  0.0735
20283W        W37130   1.486   3.072  11.376  0.0129  0.0241 -0.0638
20284W        W37131  11.285   0.120   3.530 -0.0648  0.2146  0.3937
20285W        W37132   8.963   2.106  14.141  0.0687  0.0994  0.0179
20286W        W37133  10.739  16.284   1.654 -0.1989  0.1356 -0.3094
20287W        W37134   2.481  18.090  15.706  0.2297  0.2466  0.2913
20288W        W37135   9.343   5.421   3.012 -0.3583 -0.1801 -0.5930
20289W        W37136   0.229   1.298   3.705 -0.2337 -0.1611  0.1519
20290W        W37137   9.883   1.517   2.850 -0.0763  0.1761 -0.1666
20291W        W37138   4.434  13.337  12.159  0.1008  0.1822 -0.1805
20292W        W37139  12.280   2.300  11.010 -0.0702 -0.3849 -0.2538
20293W        W37140   6.079   8.963   3.045  0.1339 -0.2946 -0.0178
20294W        W37141  17.262   0.869  10.613  0.2075  0.2157 -0.0862
20295W        W37142   5.160   5.290   0.271 -0.0643 -0.1169  0.0271
20296W        W37143   7.240   4.452   1.281 -0.0307 -0.1623 -0.0035
20297W        W37144   0.119  12.664   3.592  0.3196 -0.0427 -0.1133
20298W        W37145   5.631   9.427  11.756  0.2777 -0.0205  0.1727
20299W        W37146   4.478   6.806   2.108 -0.1964  0.1226 -0.1285
20300W        W37147   7.385  17.761  10.992 -0.2742 -0.1279 -0.1657
20301W        W37148  14.702   7.135   1.239 -0.3370  0.3161  0.0055
20302W        W37149   4.003   8.702   2.271  0.2894 -0.2391 -0.0242
20303W        W37150  13.295   4.049  15.281 -0.0201  0.2170 -0.0897
20304W        W37151   0.195  11.259   3.150  0.0171  0.0242 -0.0640
20305W        W37152   4.005   6.653   1.817 -0.0019  0.0197 -0.0022
20306W        W37153  16.786   7.792  11.977 -0.1297  0.1695 -0.2670
20307W        W37154  17.486   6.322   3.113  0.0394 -0.0420  0.1390
20308W        W37155   8.932   0.231   3.632 -0.1488  0.0599  0.1732
20309W        W37156   3.193   4.780   4.763 -0.3301  0.1931  0.1994
20310W        W37157   1.588   1.501   5.507 -0.3421  0.1965 -0.1478
20311W        W37158  15.585   9.344   3.060  0.1951 -0.1230 -0.0125
20312W        W37159   3.612  11.978   3.928  0.2132 -0.2848 -0.2206
20313W        W37160  15.137  14.317  12.596  0.3187 -0.0643  0.0205
20314W        W37161  18.385   9.983   1.420  0.0784 -0.0541  0.1679
20315W        W37162  14.300  13.686  11.232  0.3911  0.3016 -0.0222
20316W        W37163   0.443  12.738  13.934 -0.1963 -0.0641 -0.0364
20317W        W37164  12.558  13.856  13.576  0.0284  0.2043 -0.1809
20318W        W37165   6.487   3.776  11.528 -0.2105  0.1666 -0.1645
20319W        W37166  10.802  18.439  15.656 -0.1601 -0.1065  0.0993
20320W        W37167  12.144  10.855  13.090  0.1011 -0.1866  0.0001
20321W        W37168  14.123   2.705   4.339  0.3490 -0.1541 -0.0289
20322W        W37169   4.865  17.038  12.814 -0.2279  0.0264 -0.0823
20323W        W37170  13.814   4.251  10.620  0.1979 -0.1648  0.5503
20324W        W37171  17.387  14.533  14.878  0.0797 -0.0078 -0.0551
20325W        W37172   0.198  14.020  13.734 -0.0892 -0.3108  0.2959
20326W        W37173  11.906  15.016   3.805  0.1974  0.0922 -0.3186
20327W        W37174   2.209   8.984  12.474  0.0019  0.2126 -0.0580
20328W        W37175  17.845  16.624  14.627 -0.0624  0.1249  0.1677
20329W        W37176   3.339   0.444  14.949  0.1219  0.0765 -0.0719
20330W        W37177   0.109  14.480   0.052 -0.0021 -0.3965  0.1691
20331W        W37178  11.901   1.608   4.317  0.1710 -0.1023  0.0042
20332W        W37179  10.057  18.173   1.000  0.0336 -0.2841 -0.0938
20333W        W37180   1.460   6.074  12.753  0.2381  0.1196 -0.1065
20334W        W37181   8.248  10.566  12.860 -0.1523  0.0700  0.0400
20335W        W37182   3.318   0.927   4.732  0.1592 -0.1353  0.1183
20336W        W37183  18.209  15.980   3.799  0.1159 -0.4233 -0.1011
20337W        W37184  11.564   3.749   2.228  0.0967  0.1314 -0.2485
20338W        W37185  10.643  15.268   4.181 -0.0433  0.0112  0.1206
20339W        W37186   7.432   9.732   4.703  0.1954 -0.0070  0.0323
20340W        W37187   6.619  18.347  13.323 -0.0655  0.1809 -0.0563
20341W        W37188  17.131  15.191   0.629 -0.1532 -0.2331 -0.0516
20342W        W37189   0.731  13.597  14.430 -0.2986 -0.0464  0.0442
20343W        W37190  14.672  17.760   2.330  0.0646  0.1950 -0.1273
20344W        W37191   6.820  10.463   0.712  0.1082 -0.0095  0.0754
20345W        W37192   8.479  15.611  14.790  0.2091 -0.0648  0.0656
20346W        W37193  15.470   8.005   2.328 -0.0251 -0.1333 -0.2379
20347W        W37194  17.799   9.256  12.034 -0.0044 -0.0119  0.1927
20348W        W37195  17.028  17.039  12.299  0.0943 -0.2482  0.0371
20349W        W37196   9.597  17.644   4.278 -0.0308 -0.2967 -0.0876
20350W        W37197   5.651   8.343   2.915 -0.1607  0.0904  0.4346
20351W        W37198  16.928   4.611  11.778 -0.1851  0.2080 -0.0875
20352W        W37199   7.605  16.133   3.347  0.1235 -0.0927 -0.2708
20353W        W37200   3.884  17.959  11.679  0.1240 -0.2987 -0.1117
20354W        W37201   0.711  17.363   5.574  0.1287  0.0870  0.1701
20355W        W37202   8.772  10.737   1.734  0.1234 -0.1829 -0.0622
20356W        W37203  17.148  14.341   0.116  0.1044 -0.1674 -0.0167
20357W        W37204   5.696   2.883  12.663  0.0168  0.1208 -0.1672
20358W        W37205  16.838   7.732   0.123 -0.2131  0.0087 -0.0873
20359W        W37206  15.862  18.088   5.660  0.0149  0.1684  0.0707
20360W        W37207  14.512  14.004  11.774  0.1569 -0.1928  0.1796
20361W        W37208  14.210   8.337  14.128  0.1553  0.0075 -0.0319
20362W        W37209   8.880  10.243  14.166  0.2961  0.1419 -0.0090
20363W        W37210   7.783  14.497  15.737  0.2859 -0.2144  0.0398
20364W        W37211   7.113   1.134   4.228  0.0057  0.0076 -0.2842
20365W        W37212  10.971   8.945  11.040  0.0901 -0.2802 -0.0634
20366W        W37213   5.610   7.992   4.344 -0.0841  0.1167  0.2996
20367W        W37214  15.749   6.668   4.546  0.0381  0.0984 -0.1682
20368W        W37215   1.748   2.497   4.679  0.2849  0.3094 -0.0175
20369W        W37216   0.856   5.103  12.571  0.0062  0.3091  0.0662
20370W        W37217  12.575   9.698   2.970  0.3641 -0.0180 -0.0896
20371W        W37218   2.022   7.488  12.933  0.1160  0.2654 -0.1344
20372W        W37219  17.535   5.496   4.948 -0.0824  0.1479 -0.0008
20373W        W37220   5.227  10.823   2.504 -0.1908 -0.0481  0.1296
20374W        W37221   9.179   8.578  12.304 -0.1579 -0.0902 -0.0718
20375W        W37222  16.283  15.578   1.214  0.0779  0.0260  0.0414
20376W        W37223   4.981   8.836  11.956 -0.1795  0.1258  0.0943
20377W        W37224   7.176  13.019   2.844 -0.1937  0.3045 -0.5588
20378W        W37225   6.164  18.192   4.801 -0.0001 -0.3140  0.2982
20379W        W37226   2.936  16.764   6.089 -0.0910 -0.0095 -0.0628
20380W        W37227   4.471  12.973  13.407 -0.0713  0.0272  0.3759
20381W        W37228  15.812  10.325   3.967  0.1007  0.1123 -0.1067
20382W        W37229  11.031   6.032  15.722 -0.1122 -0.0420 -0.2051
20383W        W37230   7.465  11.983   0.568 -0.1279 -0.1584 -0.2588
20384W        W37231   0.901   7.495   4.243  0.2112 -0.0868  0.1600
20385W        W37232   0.708  18.031   2.881  0.0256 -0.2422  0.2357
20386W        W37233   1.930  16.789  12.740 -0.0925 -0.1312 -0.2219
20387W        W37234   0.022   3.597  11.026 -0.0235 -0.1329 -0.0128
20388W        W37235   0.653  16.637   5.096 -0.1757 -0.0655  0.1572
20389W        W37236  10.908  14.367   4.714  0.0876 -0.3699  0.0050
20390W        W37237  13.768  14.798   5.715  0.1517  0.1211 -0.2524
20391W        W37238  12.420  13.055   1.146  0.3621 -0.0462 -0.0409
20392W        W37239   8.340  12.295   4.201 -0.4337  0.4161 -0.0837
20393W        W37240  17.347  11.846  14.638  0.0804  0.1692 -0.1633
20394W        W37241  18.055  12.644   4.985 -0.0885 -0.0261 -0.2651
20395W        W37242  14.106   6.553  14.659  0.0656 -0.0520 -0.1127
20396W        W37243   0.749  12.169  13.078 -0.0114 -0.1826  0.0185
20397W        W37244   8.720   6.870   0.227 -0.1770  0.0364  0.1676
20398W        W37245   1.456   9.158   2.366 -0.1470 -0.0064  0.1655
20399W        W37246  17.250  10.014  14.329 -0.0988  0.1253 -0.2425
20400W        W37247   3.160   5.140  10.969  0.2393  0.1527 -0.0731
20401W        W37248  15.693   5.502   4.029 -0.2411  0.0758 -0.1146
20402W        W37249  14.214   8.344   3.104 -0.1740  0.0376 -0.0665
20403W        W37250  16.922  15.499   4.053  0.1522 -0.0747  0.1106
20404W        W37251  13.315   4.235  11.910  0.0311  0.3783 -0.0594
20405W        W37252  17.316   2.823  14.996  0.0102 -0.0071  0.0574
20406W        W37253   1.771  17.161  14.839 -0.0439  0.0988  0.0606
20407W        W37254  14.117  13.702  11.985 -0.2154  0.0976  0.3744
20408W        W37255  10.019   4.078  12.585 -0.0396 -0.2747 -0.0750
20409W        W37256  16.771   6.323   2.067  0.2112  0.1999  0.0221
20410W        W37257   0.533  13.227  15.297 -0.0658  0.2174 -0.1436
20411W        W37258   9.690  11.926  13.533  0.1609  0.1214 -0.1369
20412W        W37259   4.810   3.609  14.051  0.0606  0.0890 -0.0218
20413W        W37260   9.878   9.589  11.460 -0.0950  0.2146  0.0489
20414W        W37261  13.383  14.759   0.135 -0.0130  0.1413 -0.0885
20415W        W37262  15.286  12.923  13.661  0.1510 -0.0346 -0.3480
20416W        W37263   1.024  12.866   0.662  0.0492  0.0779 -0.0317
20417W        W37264  14.240   8.300  15.018 -0.0835 -0.0571 -0.0434
20418W        W37265   2.558  14.034  12.345 -0.0900 -0.2017  0.2169
20419W        W37266  10.735   2.407  15.553  0.1058 -0.0588 -0.3503
20420W        W37267   1.915  14.178  13.574  0.2983  0.2911  0.0908
20421W        W37268   2.439  16.524   4.931 -0.2381 -0.0603  0.2176
20422W        W37269  12.324  16.132  11.979  0.0533  0.5038 -0.0654
20423W        W37270   7.441  12.037   4.052 -0.1027 -0.2170  0.1752
20424W        W37271  10.710  16.993   1.921  0.0973  0.1200 -0.0395
20425W        W37272   9.563   0.221   1.846  0.0600  0.1858  0.3418
20426W        W37273   1.050   1.954  14.818 -0.0042 -0.2874 -0.0310
20427W        W37274  14.053   7.351   2.284  0.0002  0.2027 -0.1585
20428W        W37275  15.325  15.598   2.068  0.1801 -0.0219  0.1166
20429W        W37276   1.266   3.571  12.968  0.0505 -0.1238  0.1015
20430W        W37277   4.037  12.273  11.071  0.3123  0.1827 -0.2078
20431W        W37278   9.966   9.791   0.153  0.0195 -0.0296 -0.1354
20432W        W37279  15.992  17.596  14.733  0.1882  0.2074 -0.1663
20433W        W37280   7.141  17.330  10.230 -0.0455 -0.0065 -0.0665
20434W        W37281  17.085  13.830   0.916 -0.1901 -0.0610 -0.0606
20435W        W37282   3.506  12.849   4.338 -0.2186  0.2649  0.0552
20436W        W37283   5.087   6.025   3.632 -0.1594 -0.0809  0.2674
20437W        W37284   3.544  16.563  13.397  0.0419 -0.0964 -0.2730
20438W        W37285   0.141  15.634  12.267 -0.2658  0.4150  0.2036
20439W        W37286   8.695   6.460  11.171  0.1221 -0.1796  0.2035
20440W        W37287   0.185   8.570  14.415 -0.1625 -0.0296  0.2060
20441W        W37288  14.932   8.822  15.765  0.1702 -0.0177 -0.1522
20442W        W37289   6.695  17.576   4.958 -0.2277  0.0410  0.1813
20443W        W37290   2.958  18.366  14.250  0.0997 -0.0142  0.2861
20444W        W37291   2.755  18.376   4.276  0.1455  0.0061 -0.0895
20445W        W37292   1.723   8.971   4.031 -0.1176  0.0491 -0.2820
20446W        W37293  17.178   5.332   3.453 -0.0053 -0.4187 -0.2144
20447W        W37294   8.183  15.433   4.033  0.0800  0.1245  0.0148
20448W        W37295   0.039   5.954  13.669 -0.1122 -0.3597  0.1844
20449W        W37296   8.317  15.053  14.672 -0.2018  0.2951  0.0051
20450W        W37297   9.075  18.038   4.858  0.1504 -0.1734  0.0398
20451W        W37298   0.456  15.306   2.966  0.1750 -0.2334  0.1642
20452W        W37299  17.656   4.195   3.745 -0.1405 -0.0054 -0.0286
20453W        W37300  14.293   3.225  11.215 -0.0641  0.3216  0.2215
20454W        W37301  12.970  11.385   0.268  0.0355  0.0968 -0.0749
20455W        W37302   8.437   3.964  11.235 -0.2684  0.0176 -0.0709
20456W        W37303   8.844  11.134  13.157  0.0436  0.1256 -0.3240
20457W        W37304  11.158   6.089  13.762  0.0463  0.1532 -0.1407
20458W        W37305  15.107   0.197   0.558  0.1994  0.0088 -0.0658
20459W        W37306   1.556   8.323   4.817  0.0123 -0.3977  0.2170
20460W        W37307   2.794   4.437  12.430 -0.1899 -0.3173  0.0233
20461W        W37308   9.915   2.843   3.976  0.1209 -0.1182  0.0707
20462W        W37309   1.420  11.635   5.145 -0.1989 -0.0026  0.2152
20463W        W37310   7.830   4.740  12.640  0.0555 -0.0066  0.1593
20464W        W37311  13.887  15.938   1.778 -0.1016  0.1990  0.0517
20465W        W37312   5.683  18.062  15.550  0.1981  0.2493 -0.1022
20466W        W37313  14.040  10.545  10.587  0.1599  0.0590 -0.1565
20467W        W37314   1.837   1.325  14.691 -0.0768  0.1055  0.0571
20468W        W37315   5.297   3.946   0.925 -0.2011 -0.2576 -0.4132
20469W        W37316  17.918  12.095   3.313  0.0442 -0.0038  0.1863
20470W        W37317  13.399  16.754  14.068  0.2247  0.1035 -0.0397
20471W        W37318   9.234  12.201   2.463 -0.3657  0.1825  0.1502
20472W        W37319   6.826   8.544   2.460  0.0651 -0.1291  0.0960
20473W        W37320  10.750   5.401   3.271 -0.0246  0.1021 -0.1024
20474W        W37321   5.743   7.291  12.721  0.2778  0.0899  0.2368
20475W        W37322  12.316  17.777  13.867 -0.1130 -0.1334 -0.2085
20476W        W37323  11.417   5.230   2.493 -0.0767  0.0038 -0.1176
20477W        W37324  12.561   4.465  15.688  0.0953 -0.0074  0.2260
20478W        W37325   8.241   2.038   0.814  0.1588  0.0912 -0.1728
20479W        W37326   2.099   5.370   0.480  0.0876  0.1272  0.2214
20480W        W37327  17.271  17.888  13.216 -0.2843  0.1195  0.0011
20481W        W37328  11.238  11.757  14.275 -0.0305 -0.0292  0.0836
20482W        W37329  17.076  12.951  15.036 -0.3873 -0.0711  0.0184
20483W        W37330   7.243  11.803  10.632  0.2995  0.0687  0.1914
20484W        W37331  10.209  18.118   5.295  0.1698  0.2616  0.2847
20485W        W37332   7.666  13.206  14.133 -0.0141 -0.2076 -0.0765
20486W        W37333   1.004   4.756  11.097  0.1619  0.0701 -0.2331
20487W        W37334   0.022  16.657  13.564  0.0717  0.0609  0.0848
20488W        W37335  17.798  16.720   5.128  0.0586  0.1649  0.0541
20489W        W37336  16.197  16.116  13.786  0.1679 -0.0261 -0.1513
20490W        W37337  11.159  16.935  11.030  0.0163  0.0842  0.2312
20491W        W37338  10.193  16.407  11.784 -0.3915  0.2918 -0.1544
20492W        W37339  11.901  12.192  15.772 -0.1882 -0.1479  0.0496
20493W        W37340   7.394  18.466   6.160 -0.1612  0.0735  0.1218
20494W        W37341  15.706   2.001   0.734 -0.1509  0.0568 -0.0170
20495W        W37342   2.515   0.838  11.109  0.0869 -0.1870  0.0548
20496W        W37343   7.041   0.772  15.579 -0.3580  0.2127 -0.1720
20497W        W37344   4.341   7.556   3.828  0.0794 -0.0459  0.0544
20498W        W37345   2.976  16.513   2.611  0.1217  0.0058 -0.0428
20499W        W37346   9.094   6.170  12.402 -0.1362  0.1819  0.1501
20500W        W37347   5.916   1.908  15.618 -0.1365  0.1909 -0.0600
20501W        W37348   4.710   1.395  15.499 -0.1288 -0.0142 -0.0583
20502W        W37349   5.316  14.413   1.827  0.0292 -0.1403 -0.2145
20503W        W37350  15.830  16.562   0.164 -0.1812 -0.0881 -0.0358
20504W        W37351   3.136  16.996   4.128 -0.0071  0.1821 -0.0607
20505W        W37352  15.650  13.504   0.982  0.0486  0.0488 -0.0528
20506W        W37353   8.359   1.156   1.036  0.0155  0.0707 -0.0586
20507W        W37354   1.187   8.852  15.472 -0.1466 -0.0369 -0.1258
20508W        W37355  16.709   3.707  13.114  0.4146  0.0131 -0.0883
20509W        W37356   2.363   4.612  10.603  0.2422  0.0616  0.0379
20510W        W37357   1.353   4.742   3.209 -0.1355 -0.1054 -0.0136
20511W        W37358  14.254   4.579  14.477  0.0667 -0.0624  0.0820
20512W        W37359  12.597   2.457  14.788 -0.1850  0.0086 -0.0173
20513W        W37360  14.191  15.119   3.292  0.0571 -0.0054 -0.0119
20514W        W37361   7.906  17.932  11.402 -0.2681 -0.1274 -0.0722
20515W        W37362   4.621   1.306   2.902 -0.1447  0.0121 -0.4695
20516W        W37363  17.784  16.882   4.050  0.1759  0.0458  0.0097
20517W        W37364   5.432  15.616  15.624 -0.0010  0.0698  0.3178
20518W        W37365   8.843  15.187   5.263 -0.1275 -0.0888  0.2105
20519W        W37366  17.465  18.399  13.153 -0.0356 -0.0345  0.2306
20520W        W37367   1.260  16.870  13.360 -0.1825  0.0197 -0.3135
20521W        W37368  14.090  14.042   3.834  0.0255 -0.0791  0.3384
20522W        W37369   3.304   9.105  14.782  0.1404 -0.3420 -0.3298
20523W        W37370   5.694   3.217   4.129  0.1824 -0.1518  0.0086
20524W        W37371   3.755  11.447  13.578 -0.0682  0.3149  0.1176
20525W        W37372  13.297  12.872   3.841 -0.0818  0.1421 -0.1481
20526W        W37373   8.062  11.724  13.475 -0.0775  0.1280  0.1286
20527W        W37374  17.237  16.708  15.276 -0.0779 -0.0086 -0.1135
20528W        W37375   2.721   9.992  12.379  0.1319  0.2270 -0.0410
20529W        W37376  17.457  15.652   3.163  0.0971  0.2010  0.0178
20530W        W37377   7.293  10.585   4.980  0.1034  0.0767  0.3340
20531W        W37378  12.914   8.947   1.055  0.0300  0.2032  0.6048
20532W        W37379   4.437  16.967   2.028 -0.1832  0.3378 -0.1466
20533W        W37380   8.510  10.534   4.307  0.1071  0.4957  0.0429
20534W        W37381  10.720  11.864  11.477 -0.1327 -0.0757  0.0198
20535W        W37382  10.108   4.374   0.789  0.3266 -0.1707  0.2063
20536W        W37383  10.663   8.060  12.703 -0.0176  0.2360 -0.1625
20537W        W37384  11.695   1.425   1.560 -0.2732  0.2657  0.1163
20538W        W37385   8.297   5.524   2.971  0.2072  0.0646 -0.4079
20539W        W37386   9.298   3.919  12.019  0.1742 -0.1461  0.1414
20540W        W37387  11.430   3.867   3.865  0.3550  0.3930 -0.0029
20541W        W37388   6.947  11.949  15.462  0.0030 -0.0429  0.3693
20542W        W37389  10.059  12.391   6.024  0.1082  0.0860 -0.1974
20543W        W37390   2.775  16.114   3.059  0.1108 -0.0901  0.1079
20544W        W37391  16.444  16.702   1.303  0.1437  0.0308  0.1772
20545W        W37392   5.328  13.885  14.763 -0.1671  0.2992 -0.1702
20546W        W37393  14.499  12.145  13.825 -0.1468 -0.0231  0.0032
20547W        W37394  12.302  13.718  14.491  0.0500  0.1958 -0.0893
20548W        W37395   9.429  10.712  12.735 -0.1679 -0.1290  0.2117
20549W        W37396   9.936   3.573  10.411 -0.1846 -0.0397  0.3672
20550W        W37397  13.835  11.963   3.589 -0.0060 -0.1761  0.0353
20551W        W37398   9.798  13.675   2.052 -0.1262  0.1080 -0.1685
20552W        W37399  12.169   8.269  13.265 -0.0866  0.0327  0.1053
20553W        W37400   7.056  14.347  14.664 -0.0582 -0.0034  0.0489
20554W        W37401   7.293  17.017  11.053  0.1232  0.2121  0.1070
20555W        W37402   0.828   8.573  15.759 -0.3129 -0.5351  0.0013
20556W        W37403   7.714  16.667   4.244  0.4373 -0.0773 -0.1760
20557W        W37404  15.987  14.960   2.635 -0.3358  0.1424  0.2087
20558W        W37405  14.911  13.397   5.999 -0.3800  0.0398  0.1215
20559W        W37406   9.774  15.331   3.234 -0.0954  0.1834  0.3826
20560W        W37407   0.851  11.378  14.574  0.1531  0.2128 -0.0739
20561W        W37408   8.435   7.933   1.530  0.0560 -0.0276  0.0182
20562W        W37409   1.365  11.599   2.159 -0.1082 -0.3427 -0.1720
20563W        W37410   1.556  18.225  13.535  0.1399  0.1783 -0.0243
20564W        W37411  10.139   6.691   0.478  0.2042 -0.2697 -0.0118
20565W        W37412  16.648  12.268   4.071 -0.1197 -0.2250  0.2104
20566W        W37413   3.561   5.509   3.941 -0.1048  0.1109 -0.1193
20567W        W37414  15.101  15.142  15.504  0.1793  0.3146  0.1158
20568W        W37415   8.103   2.085  14.088 -0.1929 -0.1053 -0.0996
20569W        W37416  16.345  13.475  11.808  0.2698 -0.1245  0.0649
20570W        W37417  15.682   1.833  14.761  0.3192  0.1442  0.1357
20571W        W37418   6.848   4.072  14.367 -0.0708  0.0067  0.0159
20572W        W37419  18.431   0.980  15.321  0.1447  0.3532  0.4386
20573W        W37420   1.385   3.066   1.049  0.0022  0.0511  0.1976
20574W        W37421  12.587  14.228   4.929  0.1314  0.1569  0.0189
20575W        W37422  10.137   9.166   2.310 -0.1953  0.2570 -0.0727
20576W        W37423   8.118   8.131  15.246 -0.3117 -0.1433  0.0070
20577W        W37424  12.426  16.678  15.315 -0.2556 -0.0924  0.0613
20578W        W37425  11.407   7.452  11.238  0.2236  0.0366  0.0789
20579W        W37426   5.817   4.892  11.825  0.4115 -0.1169  0.0503
20580W        W37427  10.424  15.429  11.911 -0.3455  0.0212  0.1679
20581W        W37428   9.753  11.580   2.471  0.1089  0.0717  0.0313
20582W        W37429   2.916  16.982   4.812  0.1436 -0.1052  0.1427
20583W        W37430  15.127   4.306  12.768  0.1371  0.0329  0.0816
20584W        W37431   7.333   0.892   1.100 -0.2056  0.5609  0.0208
20585W        W37432   5.465  13.114   1.555 -0.0044  0.1499  0.1041
20586W        W37433  11.789   1.984   2.791 -0.3773 -0.0255  0.0609
20587W        W37434   5.011   6.648   5.252 -0.0454  0.2656 -0.0823
20588W        W37435   3.030  11.291  13.025  0.1699  0.1109  0.2618
20589W        W37436  13.070  16.034   2.975 -0.1704  0.3016  0.3165
20590W        W37437  10.710  16.381   1.117  0.0205 -0.1174  0.1837
20591W        W37438  13.610  16.134   2.862  0.1936  0.2765 -0.0040
20592W        W37439  16.996  15.700   1.239 -0.2346  0.1778  0.1322
20593W        W37440   9.688   5.445  12.133  0.0677  0.2388  0.0226
20594W        W37441  11.577   0.177   1.793 -0.0430 -0.0112  0.2675
20595W        W37442  13.840  10.726  14.339  0.1544 -0.0767 -0.0834
20596W        W37443   4.986  10.064   2.946 -0.1792 -0.2533 -0.2571
20597W        W37444   1.129   8.532   0.260 -0.1383  0.1249  0.0051
20598W        W37445   8.152   8.893  14.295  0.1267 -0.2179  0.1185
20599W        W37446  10.856   9.898   2.681  0.3150 -0.0395 -0.1547
20600W        W37447   2.092  14.018   5.411 -0.0772 -0.1062 -0.0503
20601W        W37448  15.744   6.924  12.813  0.2745 -0.1847  0.3255
20602W        W37449  14.778  12.081   3.105  0.1799  0.1439  0.0434
20603W        W37450   1.086   7.362  12.653  0.1303  0.0315 -0.1679
20604W        W37451  11.986  14.219   0.701 -0.2259 -0.1126  0.2491
20605W        W37452  16.598   3.387  14.548 -0.2090  0.0759 -0.1442
20606W        W37453   3.453   3.755   4.302  0.0615  0.1463  0.2702
20607W        W37454   4.870  10.235   1.473 -0.1753 -0.1013  0.2709
20608W        W37455   3.627  11.848  13.919 -0.3275 -0.0409 -0.2575
20609W        W37456   1.372  16.243   1.788 -0.2296 -0.0138 -0.0546
20610W        W37457  11.100   1.136  15.829  0.0816 -0.3155 -0.1540
20611W        W37458  14.463   7.881  13.872  0.2680 -0.2212 -0.1629
20612W        W37459  15.484   4.962  13.568 -0.4060  0.1312 -0.4092
20613W        W37460  13.409  12.027   2.928  0.3299 -0.0153  0.1501
20614W        W37461   2.152   1.020   2.545 -0.3441 -0.2315 -0.0549
20615W        W37462   5.208  14.630  12.919  0.0806  0.0259  0.3690
20616W        W37463   1.750  13.998  15.561 -0.1213  0.1342 -0.1528
20617W        W37464   0.496   0.821   0.836  0.0275  0.0127  0.2646
20618W        W37465   2.254  14.360   2.395  0.0381  0.2338  0.1040
20619W        W37466   7.362   6.424   0.167 -0.2414  0.3113 -0.1040
20620W        W37467   6.854   3.300  12.456  0.0820 -0.1511 -0.2841
20621W        W37468  11.582  13.161   2.857  0.1921 -0.1354  0.1146
20622W        W37469  14.163  10.604  12.276 -0.2204 -0.0324  0.2012
20623W        W37470   3.011  14.987   2.531 -0.0724  0.1452  0.0700
20624W        W37471   3.763   2.023  11.859 -0.0741  0.0284 -0.1180
20625W        W37472  10.584  17.864  14.562 -0.1076  0.0021 -0.0787
20626W        W37473  14.272  11.191  12.494  0.0081  0.4143 -0.0403
20627W        W37474  11.933  18.308   2.857 -0.0174 -0.2402 -0.2474
20628W        W37475   0.081   8.448   4.397  0.2591  0.2249  0.1397
20629W        W37476   5.042  13.893  11.762 -0.0916 -0.2708 -0.1927
20630W        W37477  17.498   5.217  11.115  0.0540 -0.2185 -0.1252
20631W        W37478  18.094  16.242  12.723 -0.1119 -0.1390 -0.1126
20632W        W37479   1.241  11.047  15.934  0.0350 -0.0984 -0.0029
20633W        W37480  14.365  14.578  12.005  0.0118 -0.1670  0.3045
20634W        W37481   7.483  14.700   3.349 -0.0742  0.0923  0.0452
20635W        W37482   2.922   8.120   5.462  0.0192  0.1514 -0.3054
20636W        W37483  13.338   7.932  12.960  0.1823 -0.1853 -0.0421
20637W        W37484   5.024  14.571   3.686 -0.0739  0.1775  0.0213
20638W        W37485  11.143  17.754  14.838  0.1293  0.1274 -0.2914
20639W        W37486  12.620   2.711  11.681  0.0838 -0.0550  0.0620
20640W        W37487   7.512  10.981  14.374  0.2983 -0.0143 -0.1601
20641W        W37488   8.474  11.674   1.629  0.2589 -0.1300 -0.0083
20642W        W37489  15.077   4.686  14.992  0.3083 -0.1891  0.0815
20643W        W37490  11.282  11.388   3.341  0.1172 -0.1972 -0.3162
20644W        W37491   5.917  13.311   2.328 -0.2823 -0.0905  0.0027
20645W        W37492   2.976   3.593   0.237 -0.0097  0.4358 -0.1580
20646W        W37493  18.425   9.892   3.365 -0.2092 -0.1360 -0.1681
20647W        W37494  11.171  16.404   1.435 -0.1635  0.2811 -0.2480
20648W        W37495  17.451   5.458   4.480 -0.0229 -0.0162  0.2438
20649W        W37496  12.137   1.928  15.295 -0.0497 -0.2461 -0.3648
20650W        W37497   7.510   2.287  10.965  0.0235  0.1839  0.3913
20651W        W37498   3.922   2.874   2.981  0.1691  0.3636  0.0121
20652W        W37499   8.998  12.398  11.366 -0.2767 -0.1211  0.1246
20653W        W37500  17.283  16.123  13.631  0.0816  0.2756 -0.0881
20654W        W37501   0.699   4.114  14.256 -0.1290  0.0352  0.3104
20655W        W37502   6.734   2.703  11.821 -0.0400 -0.2417 -0.1676
20656W        W37503  11.471   1.037   0.860  0.0112 -0.1795 -0.0915
20657W        W37504   4.693   1.435  13.389  0.3618 -0.2290 -0.0084
20658W        W37505  13.175   6.571  13.050  0.0660 -0.0511 -0.0831
20659W        W37506  12.277  18.074   1.797 -0.1103  0.3427 -0.1753
20660W        W37507   6.571   4.720  15.231  0.0106  0.2425  0.0204
20661W        W37508  11.012  13.906   0.673  0.0745 -0.2303  0.1324
20662W        W37509  13.713   5.750  14.800  0.0925 -0.2667 -0.2730
20663W        W37510   1.135  12.468   1.658  0.4559  0.1241 -0.0246
20664W        W37511   9.956  17.395   0.202  0.0014 -0.1573 -0.2682
20665W        W37512  11.702  15.272   2.181 -0.1213 -0.1511  0.0874
20666W        W37513  16.720   8.413   1.490 -0.0625 -0.1890 -0.1081
20667W        W37514  15.104   2.889  11.314 -0.0079 -0.3250  0.0634
20668W        W37515   9.350  17.525   9.992 -0.0863 -0.0422 -0.2144
20669W        W37516  10.419   0.552   4.226  0.1210 -0.0250 -0.0660
20670W        W37517  17.062   0.410   0.452  0.0551  0.0655  0.2604
20671W        W37518   4.451   4.864   0.779  0.0608  0.0749  0.0132
20672W        W37519  15.301  11.858  15.298 -0.1295 -0.1508 -0.4373
20673W        W37520  10.487   6.271  13.373  0.1360  0.0209 -0.3945
20674W        W37521  11.760  15.377  11.362  0.0280 -0.0477  0.0745
20675W        W37522  16.101   5.178  12.702  0.1549  0.2415 -0.0085
20676W        W37523   6.888  14.120  12.641 -0.2589  0.4051 -0.1528
20677W        W37524  11.970  14.892  12.706 -0.0427 -0.1422  0.0696
20678W        W37525   0.062   5.019   4.915 -0.1546 -0.1585 -0.0967
20679W        W37526  16.061   1.615  11.127  0.0308 -0.3120 -0.0350
20680W        W37527   0.854   1.665   0.376 -0.4918  0.0180  0.0468
20681W        W37528  14.925  18.308   3.011  0.0688  0.1754 -0.3844
20682W        W37529  16.279  15.748  10.825 -0.2750 -0.0960 -0.1619
20683W        W37530   8.000  10.014   5.877 -0.1761 -0.2678 -0.0627
20684W        W37531   3.372  14.843   2.833  0.2446  0.0732  0.0274
20685W        W37532   4.139   9.974   0.742  0.0852  0.2014  0.4203
20686W        W37533  16.710   7.137   5.068  0.1082 -0.0254 -0.1086
20687W        W37534   3.812  10.528  11.572 -0.1189  0.2186 -0.0287
20688W        W37535   1.580   5.451   0.158 -0.1263  0.0191 -0.0501
20689W        W37536   9.110  10.778  14.073 -0.2350  0.1453 -0.1141
20690W        W37537  15.828  17.844   0.621  0.0021 -0.1830  0.1208
20691W        W37538  17.203   8.227   4.756  0.0453  0.1066  0.0059
20692W        W37539   7.272   9.961   3.637  0.1088  0.0415 -0.0293
20693W        W37540   4.848  17.199   2.186  0.2077 -0.0761 -0.0059
20694W        W37541  11.591   4.371   1.602 -0.3045  0.1228 -0.2357
20695W        W37542   6.143   2.720  12.385 -0.0390  0.0405  0.3013
20696W        W37543   1.912  15.834  12.645 -0.4018  0.0143  0.0299
20697W        W37544  17.169   0.352  12.218  0.1673  0.2544  0.0509
20698W        W37545   0.939   1.472  12.617 -0.0442  0.2069 -0.3795
20699W        W37546   8.759  12.097   3.953  0.2474 -0.0734  0.1710
20700W        W37547  13.254   6.210   2.193 -0.2358 -0.1771 -0.1806
20701W        W37548  16.111  17.919   0.271 -0.1671  0.0371  0.2480
20702W        W37549  10.069   5.602   2.234 -0.0860 -0.3627 -0.4380
20703W        W37550   5.878  12.634   5.363 -0.0288 -0.0296 -0.1598
20704W        W37551  18.159   3.571   1.291 -0.0179  0.2601 -0.0108
20705W        W37552   5.016  12.529  15.219 -0.2335  0.0980 -0.0238
20706W        W37553   3.562   3.409   2.938  0.1713  0.2665 -0.0814
20707W        W37554  17.763  12.575   3.417 -0.0818  0.3548 -0.0120
20708W        W37555   5.445  12.354  12.462 -0.3862 -0.1950  0.4400
20709W        W37556   8.629   1.756  11.606  0.0700 -0.0868 -0.0859
20710W        W37557  17.774  15.737   2.309 -0.0237 -0.0944 -0.2706
20711W        W37558   1.506  15.783  13.378  0.1344 -0.0404 -0.1479
20712W        W37559   7.178  11.798   3.143  0.0283  0.0070 -0.2372
20713W        W37560  16.516  12.102   1.192 -0.1412  0.1872  0.0828
20714W        W37561   6.450  13.170  13.129  0.2912 -0.0790  0.0044
20715W        W37562   0.017   4.857  11.340 -0.4362 -0.2283 -0.2163
20716W        W37563  13.474  16.172   5.826 -0.0180  0.0101  0.1588
20717W        W37564  12.929   8.260  12.112 -0.1847 -0.0801  0.1101
20718W        W37565  10.917  11.597   0.098 -0.1536  0.0367 -0.1579
20719W        W37566  12.306  17.360  11.475  0.2239  0.1525  0.1964
20720W        W37567  11.705   5.056   1.146 -0.0713 -0.0098 -0.2206
20721W        W37568   7.575  17.769   0.815 -0.1756 -0.4017 -0.0449
20722W        W37569   1.960  17.442   0.423  0.1215 -0.1387  0.0683
20723W        W37570   6.872  17.016   0.081  0.0720 -0.0552 -0.0653
20724W        W37571   5.240  16.616  11.253  0.1262 -0.1416 -0.0630
20725W        W37572  11.969  18.209  11.701 -0.5027  0.1202 -0.0820
20726W        W37573  12.530   0.697  13.361  0.5478  0.0169  0.0108
20727W        W37574   1.971  14.339   0.617  0.0285 -0.5310  0.1051
20728W        W37575   7.719   5.677  14.729  0.0661  0.2117  0.1120
20729W        W37576   9.532   9.944  15.218 -0.0940  0.2253  0.1230
20730W        W37577  14.551   3.593  15.155 -0.1315  0.1955 -0.0627
20731W        W37578  10.882  15.114   2.494  0.4573 -0.0887  0.0593
20732W        W37579   3.761   4.607  13.387  0.0301 -0.1227 -0.5424
20733W        W37580   6.011   4.628   0.211 -0.1273 -0.0076 -0.2142
20734W        W37581   8.917   4.537   2.455  0.2939 -0.0783  0.0162
20735W        W37582   2.810  17.233   3.125  0.2108 -0.0513  0.2011
20736W        W37583   6.274   4.669  14.419  0.0121  0.1338  0.0206
20737W        W37584  10.617   3.712  12.524 -0.1540 -0.0384  0.1448
20738W        W37585  14.448  13.054  12.542 -0.0741  0.4180 -0.1054
20739W        W37586  17.133   9.151   4.241  0.1320 -0.1176 -0.1978
20740W        W37587   4.986   1.010  12.437  0.1194  0.1065  0.2600
20741W        W37588  10.504   4.160   4.218  0.0374 -0.0027 -0.0210
20742W        W37589  11.159   1.922  11.275 -0.0814 -0.0870  0.2422
20743W        W37590   3.756   4.311  13.801  0.3652  0.7165  0.0002
20744W        W37591  10.406  12.055  14.731 -0.4401  0.1914  0.0655
20745W        W37592  12.257  13.887   5.021  0.0504  0.2177 -0.4158
20746W        W37593  11.374   1.569  11.631  0.0412 -0.1076 -0.0151
20747W        W37594  12.717  12.912   5.179  0.2347 -0.1137 -0.1194
20748W        W37595  18.364   4.713   4.545 -0.0405 -0.1593 -0.5758
20749W        W37596  15.784   8.967   0.518  0.1536 -0.1423  0.3659
20750W        W37597   4.440  11.396  12.886  0.0933  0.0305 -0.0816
20751W        W37598  15.652   4.297  12.889 -0.0165 -0.2065  0.2339
20752W        W37599  14.593  13.627   4.416  0.0125 -0.3115 -0.1074
20753W        W37600  11.481   3.569  15.399 -0.0687 -0.4936 -0.2274
20754W        W37601  10.806  14.057  10.824 -0.0467 -0.2338 -0.0133
20755W        W37602   1.320   9.462   0.012  0.0001  0.1360  0.0461
20756W        W37603   9.868  16.732   3.933 -0.0270 -0.0942 -0.0652
20757W        W37604   7.373   7.256  15.019 -0.0430  0.0987  0.2306
20758W        W37605  17.937  18.198   3.410  0.2131  0.0214 -0.1423
20759W        W37606  11.610   6.612  11.792 -0.0259  0.2434  0.0455
20760W        W37607  11.073   8.334  15.265 -0.0457  0.1337 -0.1783
20761W        W37608   8.126   3.949  13.953 -0.0585 -0.2446  0.0787
20762W        W37609   2.082  13.935   2.715  0.1745 -0.0404  0.1503
20763W        W37610  17.701  16.386  12.335 -0.1859 -0.1200  0.0083
20764W        W37611   7.413  13.402   2.107  0.1676 -0.1921  0.0193
20765W        W37612  17.644   6.414   4.374 -0.2399 -0.0147 -0.3449
20766W        W37613  17.445   1.903  14.730 -0.0086 -0.1227  0.0958
20767W        W37614  12.898   6.748  12.227  0.1092  0.1714  0.1849
20768W        W37615   5.512   0.727   3.489  0.1184 -0.2035 -0.1160
20769W        W37616   4.603   0.747   0.831 -0.0613 -0.0413 -0.2178
20770W        W37617   8.532   6.330  13.080 -0.1590 -0.0623  0.2350
20771W        W37618   1.128  16.900  12.030  0.2127  0.1750  0.0591
20772W        W37619   2.677   3.994  11.552 -0.2775  0.2439  0.0570
20773W        W37620   8.652   4.395   0.108  0.1990 -0.1190 -0.0662
20774W        W37621  16.962  16.912  13.556 -0.1976 -0.0854  0.1771
20775W        W37622   4.354  11.172  14.225  0.0205 -0.2933 -0.0958
20776W        W37623   9.469   9.399  14.417  0.1957  0.0261  0.2622
20777W        W37624   0.117   7.592   2.324 -0.3366 -0.0701  0.2401
20778W        W37625  14.730  11.337   2.343 -0.0528  0.0132 -0.0953
20779W        W37626  16.115  15.211  15.384  0.1187  0.2940 -0.0451
20780W        W37627  14.808   2.675  14.604  0.1018 -0.0648 -0.0955
20781W        W37628   5.547  17.412  12.955  0.0552  0.1214 -0.3032
20782W        W37629   3.742  17.802   4.278  0.2309  0.0313 -0.0257
20783W        W37630   9.211   5.399  15.404  0.3308  0.2856  0.1402
20784W        W37631   1.817  12.599  11.300  0.0446  0.1892 -0.0357
20785W        W37632  15.860  10.489  15.610 -0.2161 -0.0307 -0.2009
20786W        W37633  13.161   2.941   0.126 -0.0846 -0.1160  0.4150
20787W        W37634  10.697   4.127  12.181  0.1136 -0.0548  0.0069
20788W        W37635  17.052  10.579  12.506 -0.0711 -0.0441 -0.0412
20789W        W37636   6.234  17.667  12.226 -0.3245 -0.1083  0.1052
20790W        W37637   3.528  15.223  13.142  0.0699  0.1502 -0.3259
20791W        W37638  10.700   2.132  13.747  0.3983 -0.1828  0.1064
20792W        W37639  10.227   0.236   1.436 -0.1896 -0.0408 -0.1387
20793W        W37640  11.680  17.351   0.417  0.1413 -0.0650 -0.0888
20794W        W37641   0.022  10.005  14.799  0.2771  0.0891  0.4029
20795W        W37642   8.911   7.424   0.416 -0.0471 -0.0532  0.0967
20796W        W37643   0.634   2.333  13.549  0.3967  0.1561  0.1074
20797W        W37644   3.202   2.035   3.914  0.0332  0.0280  0.1899
20798W        W37645   2.121   5.363  14.230 -0.0814  0.0500 -0.0865
20799W        W37646  10.374   4.560  10.691 -0.1444  0.0754  0.3056
20800W        W37647  17.302   5.635  14.190 -0.0820 -0.0607  0.0520
20801W        W37648  16.084  14.596   1.065  0.1028 -0.2342  0.0027
20802W        W37649   3.862  12.840   2.700  0.0542 -0.1505  0.0480
20803W        W37650  18.103   3.795  12.712 -0.0573  0.1860  0.3119
20804W        W37651  10.945   3.878  11.149  0.1795  0.2323  0.3131
20805W        W37652  17.628   4.728  11.003  0.2701  0.1436  0.2397
20806W        W37653   6.261   7.055   2.588  0.0872 -0.0881  0.4294
20807W        W37654  15.292  15.446  13.311  0.1697 -0.1518  0.0208
20808W        W37655  11.810   0.970   0.454  0.0017 -0.1527 -0.0576
20809W        W37656   9.836  11.850  11.337 -0.1290 -0.1615 -0.0526
20810W        W37657  15.176   7.113  15.937  0.2036  0.1578 -0.0549
20811W        W37658  16.316  13.239   2.720  0.1593 -0.1193  0.2191
20812W        W37659   3.913   9.954  12.873  0.1329  0.0677 -0.2128
20813W        W37660   6.440   5.884   3.677  0.2151 -0.0097 -0.1336
20814W        W37661   1.050   9.154  14.120  0.0289 -0.0923  0.0394
20815W        W37662  13.738  13.589  15.380 -0.2690 -0.2588 -0.0303
20816W        W37663  17.844  13.056   3.200 -0.0885 -0.4802 -0.3378
20817W        W37664  18.500  14.724  15.176 -0.0605 -0.1222  0.0623
20818W        W37665   8.166  17.190  11.217 -0.1334  0.1704  0.0400
20819W        W37666  15.523   3.951   5.537  0.0181  0.0824 -0.0147
20820W        W37667  13.798   7.977   5.182 -0.1808 -0.1185 -0.2663
20821W        W37668   9.174   0.492   3.209 -0.2072  0.0128 -0.1161
20822W        W37669  10.445   5.189  15.147  0.1010  0.1850  0.1275
20823W        W37670   3.164  11.489   2.651 -0.2639 -0.2183 -0.1317
20824W        W37671  13.731  13.642   0.792  0.0753 -0.0655 -0.4206
20825W        W37672  15.172   8.572   2.813  0.1343 -0.0142 -0.0647
20826W        W37673  13.384   3.447   2.217  0.1669  0.1600 -0.1079
20827W        W37674   1.000   5.578  14.925 -0.1824 -0.0917  0.0665
20828W        W37675   8.319   4.188   3.257  0.1680  0.2327  0.1904
20829W        W37676   1.642  12.947   4.740 -0.1325 -0.0640  0.1403
20830W        W37677   6.197   6.318  15.719 -0.0166 -0.2472 -0.3537
20831W        W37678   0.857   1.240  13.057 -0.0136 -0.1553  0.0870
20832W        W37679   2.008  15.619  15.047  0.0579 -0.0069  0.2207
20833W        W37680  17.149   5.721  14.640  0.0243  0.0423  0.0869
20834W        W37681   5.706   2.069   1.196  0.3234 -0.2024 -0.0640
20835W        W37682   6.779   4.377   2.697 -0.2114  0.0975  0.0094
20836W        W37683   4.915  16.816  15.538  0.3477 -0.1354 -0.1454
20837W        W37684   2.317  17.124  13.324 -0.1061 -0.3984  0.1389
20838W        W37685  12.682  12.412   1.696 -0.2925  0.0269 -0.4524
20839W        W37686   6.965  15.366  12.942  0.0003 -0.0422  0.3062
20840W        W37687   5.140   6.137   1.143 -0.1198  0.0743  0.2777
20841W        W37688  10.944   9.396   3.872  0.3353  0.1855  0.0081
20842W        W37689  14.226   7.057   0.025 -0.2436  0.3991 -0.0232
20843W        W37690   5.900  12.789  11.455  0.3480 -0.0383 -0.1655
20844W        W37691  13.265   7.293  12.276 -0.3096 -0.0770  0.0427
20845W        W37692   7.925  13.735  11.730 -0.1101  0.4233 -0.0275
20846W        W37693   6.108   5.065   5.333  0.3073  0.0669  0.2579
20847W        W37694   1.032   6.639   1.848  0.2892  0.2799  0.0293
20848W        W37695  14.495  17.721  13.814 -0.2177  0.3830  0.2085
20849W        W37696   2.138   3.824   4.289  0.1723 -0.0006  0.0244
20850W        W37697  14.241  11.005   1.201  0.2755  0.3441  0.0124
20851W        W37698   4.598   3.101   2.116  0.1858 -0.0466  0.0849
20852W        W37699  17.221  12.379   0.351 -0.0148 -0.1204  0.1400
20853W        W37700  15.086   7.550   3.606 -0.2303 -0.1632  0.0440
20854W        W37701   2.571  18.515  14.553  0.1144 -0.0175  0.0169
20855W        W37702  16.132  18.325   2.397  0.2696 -0.1261  0.2765
20856W        W37703   3.619  17.436  12.939  0.0382 -0.2161  0.1701
20857W        W37704   6.785  13.813  15.390 -0.3149 -0.0067  0.1110
20858W        W37705  15.073  12.671  15.876 -0.0895  0.0797  0.4149
20859W        W37706  14.917  13.986   0.365  0.3100 -0.0867  0.2566
20860W        W37707  11.114  13.340  12.762  0.0654 -0.1674 -0.5418
20861W        W37708   5.882   1.042   0.648 -0.0413 -0.0965  0.1647
20862W        W37709   4.657  17.725   2.232  0.1471 -0.0474 -0.0412
20863W        W37710  11.624   4.402   2.907  0.3633 -0.1650 -0.0003
20864W        W37711  12.574   2.360   2.812  0.1214  0.1661 -0.1804
20865W        W37712  11.900   0.876  11.934  0.2638  0.0475 -0.1083
20866W        W37713   6.660   0.767   2.265  0.0090 -0.0548  0.0083
20867W        W37714  12.556   5.998   9.376  0.5709 -0.0259  0.0190
20868W        W37715  13.515  13.241   2.628  0.1905  0.0020  0.3986
20869W        W37716   2.454   2.791  14.075  0.4068 -0.2399  0.1586
20870W        W37717   3.598  18.044  12.980 -0.1552 -0.2438 -0.4627
20871W        W37718  13.862   1.779   5.845 -0.1305 -0.1311 -0.1214
20872W        W37719  10.401   6.085  14.905  0.0750  0.2408 -0.0462
20873W        W37720   1.493  13.159   5.436  0.2191 -0.0068  0.0670
20874W        W37721  17.894   0.067   1.122 -0.0812 -0.0814  0.0663
20875W        W37722  17.877   9.573   0.203 -0.2004 -0.0463  0.2992
20876W        W37723   2.264  17.580  11.554 -0.0532  0.0990 -0.2221
20877W        W37724  12.196  18.004   3.221  0.0631  0.0492  0.0357
20878W        W37725   5.120   1.471   2.941  0.2336 -0.1080  0.1563
20879W        W37726  14.507   1.532  11.851  0.2180  0.2846 -0.0345
20880W        W37727  17.572   1.079  12.994  0.0350  0.0959  0.0231
20881W        W37728  12.950   3.166   3.577 -0.0719 -0.2817 -0.1237
20882W        W37729  15.281  13.030  12.466 -0.2840 -0.1239  0.1128
20883W        W37730   4.037  12.125   4.856  0.3815 -0.0980 -0.0791
20884W        W37731  14.600   3.780  14.663 -0.2023 -0.1096  0.0719
20885W        W37732   5.370   7.388  13.759 -0.1463 -0.1029 -0.0024
20886W        W37733   2.485  12.185   2.727  0.1420 -0.0840 -0.1272
20887W        W37734   9.628  10.234   0.154 -0.0905  0.0086  0.1639
20888W        W37735   5.307   1.906  10.903  0.1610 -0.1762  0.0886
20889W        W37736   4.499  17.014  14.050  0.0088  0.1291 -0.2363
20890W        W37737   4.083  15.061  13.982  0.1712 -0.1132 -0.2558
20891W        W37738  14.069   3.813  15.037  0.1326 -0.1613  0.1633
20892W        W37739   7.648  18.046   4.203 -0.1950  0.0199  0.2551
20893W        W37740   6.687  15.352   1.969  0.2352  0.1675 -0.2271
20894W        W37741   3.258  15.611  14.938 -0.2468 -0.1967  0.1447
20895W        W37742  17.554   2.496  14.171 -0.0931 -0.0370  0.1701
20896W        W37743   3.679  14.010   1.825 -0.0960 -0.0746  0.1295
20897W        W37744   5.310   3.231   2.636  0.1218  0.1979 -0.0389
20898W        W37745  15.521  15.423  12.366 -0.3441  0.0918  0.0007
20899W        W37746  16.022   4.011   3.026 -0.0558  0.3521  0.4485
20900W        W37747   6.994  10.492   3.004 -0.2198 -0.3866 -0.2170
20901W        W37748   4.260   8.730   3.706 -0.2117  0.4875  0.1516
20902W        W37749   2.607   7.845  12.012  0.0799  0.0743 -0.0483
20903W        W37750  14.909  11.545   0.545  0.1720 -0.0681  0.0458
20904W        W37751  11.135   2.021  13.996  0.0010 -0.0159  0.0082
20905W        W37752   5.933  13.101   0.670  0.1077  0.0101  0.1875
20906W        W37753  14.195  11.892   4.412  0.1873  0.2758  0.2110
20907W        W37754  15.554   0.484  15.004 -0.2758 -0.0861 -0.4381
20908W        W37755  12.821   5.302   5.656  0.1490  0.0593 -0.3415
20909W        W37756  11.760  12.488  12.327  0.0284 -0.0004  0.0261
20910W        W37757   9.980  15.379   2.314 -0.0106  0.1249 -0.0742
20911W        W37758  16.787   1.317   1.512 -0.1216  0.0283  0.1438
20912W        W37759   4.762  16.985   4.917 -0.0988 -0.0166 -0.0865
20913W        W37760  11.781   2.481  10.688 -0.0091  0.4226  0.0723
20914W        W37761  10.680   1.693   0.958 -0.0130 -0.1800 -0.0531
20915W        W37762  10.126  14.358   1.632 -0.0842  0.3197  0.1307
20916W        W37763  15.461   1.609   0.524 -0.1009 -0.1494  0.2125
20917W        W37764  16.434   9.061   0.617 -0.1194  0.1642 -0.0087
20918W        W37765  16.534   3.840   2.474  0.2044  0.0839 -0.0914
20919W        W37766  15.230   6.686   1.938  0.1569 -0.1029  0.2606
20920W        W37767   8.268  15.925   1.182  0.2008 -0.0514  0.2759
20921W        W37768   8.209   8.655  13.752 -0.1355  0.0802 -0.0476
20922W        W37769  12.133  13.102   0.108 -0.1509  0.4084 -0.0652
20923W        W37770   8.042   6.732   0.817  0.3346  0.0047 -0.1374
20924W        W37771   1.069   3.660   4.396 -0.0327  0.2652 -0.0930
20925W        W37772   7.459  11.832  15.400 -0.2954 -0.0810 -0.2847
20926W        W37773   1.987   8.631   4.683 -0.1647  0.2694 -0.0990
20927W        W37774  11.898  10.622   0.841 -0.0847 -0.1835  0.0512
20928W        W37775  12.393  13.353   2.770 -0.1083  0.0578  0.2550
20929W        W37776   2.986  14.480   4.710  0.0157 -0.0302 -0.4601
20930W        W37777   9.472   3.482   9.685  0.0540 -0.0327 -0.0940
20931W        W37778  10.622  17.764  13.989 -0.0163  0.2831  0.0939
20932W        W37779   8.253   8.087  13.720  0.0266  0.0194 -0.1658
20933W        W37780   8.714   3.532   2.630 -0.0929  0.2707 -0.0002
20934W        W37781  10.401  16.903   3.353  0.1783 -0.1004  0.1432
20935W        W37782  12.327  13.620   1.807  0.1636 -0.0387 -0.1892
20936W        W37783   4.564   5.630  15.519  0.1004  0.1636 -0.0696
20937W        W37784   0.053  14.099   2.061  0.2461 -0.3403  0.1905
20938W        W37785   0.062  11.823  14.972 -0.0207  0.2972  0.1388
20939W        W37786  17.668  10.769   3.704  0.0643 -0.0756 -0.2220
20940W        W37787   0.887  10.770  11.699 -0.2280  0.0491  0.2347
20941W        W37788  17.757   1.206   5.780 -0.0443 -0.1446 -0.2865
20942W        W37789   7.920  14.909  11.824 -0.0041 -0.2630  0.3066
20943W        W37790  18.014  17.919   0.475  0.1383  0.0374  0.0366
20944W        W37791  11.364   3.433  12.152 -0.2986  0.4550  0.0404
20945W        W37792   0.929   8.139  15.487  0.2507 -0.0419  0.1271
20946W        W37793  12.022   3.909  12.853  0.2393  0.0909  0.0973
20947W        W37794   1.174   0.704   2.720  0.2749 -0.1168  0.0389
20948W        W37795  18.399  12.507  11.235  0.2346  0.1347 -0.0046
20949W        W37796   3.954  10.940   2.924 -0.0553 -0.0221  0.1320
20950W        W37797   5.852  12.219  14.316  0.1367  0.0142  0.1277
20951W        W37798   0.089   4.298   3.655  0.1872  0.4098  0.2936
20952W        W37799   6.982  17.339   4.494 -0.0240 -0.0712  0.0371
20953W        W37800  17.597  13.601  11.193 -0.2156  0.0247 -0.0508
20954W        W37801   1.059   3.448  15.148  0.0990 -0.1282  0.3442
20955W        W37802   0.942  15.450  14.117 -0.0418  0.4634  0.0706
20956W        W37803   5.721   0.628   5.062 -0.1306  0.0926  0.0122
20957W        W37804  15.194   7.997  15.573  0.1650 -0.1898  0.0498
20958W        W37805   3.089   3.246  14.673 -0.1293  0.1805 -0.0122
20959W        W37806  12.057  12.204   5.205  0.1579  0.0836 -0.2345
20960W        W37807   1.230   1.439   0.795  0.1655 -0.0162 -0.2069
20961W        W37808  14.220   1.638  13.785 -0.2041  0.2632 -0.0396
20962W        W37809   8.302   3.425  10.982  0.1214  0.1595  0.1105
20963W        W37810   0.657  14.744  11.103  0.1144 -0.3216 -0.1600
20964W        W37811   2.221   9.583  15.341 -0.0812  0.0381  0.0027
20965W        W37812   9.762   0.115   5.855  0.0549  0.2191  0.2064
20966W        W37813   8.439  16.611  11.226  0.1113 -0.2600 -0.0649
20967W        W37814  17.906   4.173  11.284 -0.2540  0.2475  0.1363
20968W        W37815  11.330  12.019  12.692 -0.0056 -0.0482  0.1014
20969W        W37816   5.143  11.324   3.278 -0.0135  0.0758  0.0611
20970W        W37817   0.641  10.315  13.488 -0.0599 -0.1684  0.1146
20971W        W37818  18.325   2.938   1.369  0.1216 -0.1815 -0.0451
20972W        W37819   4.577  13.592   5.028 -0.1138  0.1111 -0.1903
20973W        W37820  18.143   0.102  11.464  0.0915 -0.0661 -0.6543
20974W        W37821   7.340   7.328   1.008 -0.1804  0.0112  0.2332
20975W        W37822   0.114   0.873   1.178 -0.0740  0.0146 -0.2333
20976W        W37823  15.335  13.796  14.313  0.1708 -0.3311 -0.2721
20977W        W37824  10.726  13.905   1.037 -0.1154 -0.0771 -0.1509
20978W        W37825  16.104  13.603  14.182 -0.3528  0.1587  0.2258
20979W        W37826   2.663   5.989   5.503  0.1749  0.1513  0.1172
20980W        W37827   1.329   1.690  12.388  0.1641  0.0939 -0.0107
20981W        W37828   2.952   4.085   0.156 -0.0703  0.1153  0.0082
20982W        W37829   5.452   3.509   1.241 -0.2192 -0.2576  0.0428
20983W        W37830   4.715   1.329   4.481 -0.0291 -0.0771  0.1344
20984W        W37831  16.849  12.740  15.456 -0.0324  0.2605  0.1249
20985W        W37832   9.125  14.973   2.085  0.1339  0.2123  0.0996
20986W        W37833   7.390   3.249  12.478  0.1672  0.1041 -0.1407
20987W        W37834   1.452   7.169  12.231  0.1269 -0.4652  0.1752
20988W        W37835  14.853  17.145  14.218 -0.0242  0.3437 -0.0691
20989W        W37836  13.688   3.088   2.953  0.0347  0.1355  0.0419
20990W        W37837  15.146  10.940   3.909 -0.0534  0.0452 -0.1476
20991W        W37838  10.864  14.830   4.333  0.1464  0.0212 -0.0248
20992W        W37839  14.674   1.833   5.294 -0.2255  0.1045  0.1401
20993W        W37840   3.367  14.745  12.085  0.1413  0.0527 -0.2431
20994W        W37841   3.500   5.884  11.568  0.1194  0.0475 -0.1299
20995W        W37842  13.575  16.977  14.594  0.3207  0.2292  0.0499
20996W        W37843   7.611  12.271  15.227  0.1885  0.1771  0.0995
20997W        W37844  15.870  10.180   5.673  0.1966  0.0117 -0.0700
20998W        W37845   3.988   5.646  10.683 -0.1217 -0.0128  0.0651
20999W        W37846   2.324   4.944  12.850 -0.1374  0.1488  0.0174
21000W        W37847  11.115  11.064   2.629  0.1698  0.1006 -0.0012
21001W        W37848   9.031   9.046  11.292  0.1844  0.3230  0.1545
21002W        W37849   3.482   2.541  15.831 -0.1471 -0.3982  0.3104
21003W        W37850  10.288   7.945  12.129  0.1079  0.2929 -0.1345
21004W        W37851  10.670  14.904   2.874  0.2265 -0.3033  0.0880
21005W        W37852   4.900  11.340  12.682 -0.0981 -0.0178 -0.2776
21006W        W37853   0.514   0.847   4.041  0.1248  0.0111  0.1061
21007W        W37854   0.917  16.845   5.489  0.0518 -0.0652 -0.3828
21008W        W37855   1.663   8.514   3.743 -0.5227 -0.3444 -0.3226
21009W        W37856   4.889  15.856  13.005 -0.0243 -0.0780  0.0078
21010W        W37857   7.243   6.475   1.191 -0.0442  0.1472  0.0015
21011W        W37858   2.865   3.046  14.200 -0.0536 -0.3591 -0.0561
21012W        W37859  12.982  18.294   3.684  0.0227  0.0498 -0.3350
21013W        W37860   6.324  10.456   4.917  0.1338  0.2415  0.1883
21014W        W37861   3.935   1.446   1.036  0.0333 -0.2562  0.1404
21015W        W37862  15.286  11.455  15.019 -0.2697  0.4108 -0.0853
21016W        W37863  10.252   2.622   2.332 -0.0289  0.3184  0.1713
21017W        W37864   4.138  15.442  13.598  0.2028 -0.3735  0.2740
21018W        W37865   2.466   2.689  11.254  0.2092 -0.2015 -0.1039
21019W        W37866  11.080   2.571  10.638 -0.2520 -0.0374 -0.2310
21020W        W37867   3.651   1.455  14.682 -0.1975  0.2919  0.0670
21021W        W37868   5.858  12.366  11.719 -0.1837  0.0963  0.3866
21022W        W37869  15.755   7.955  12.482  0.2831 -0.1524 -0.0299
21023W        W37870   2.438  15.858  11.818  0.0556  0.0877 -0.1184
21024W        W37871   5.713  13.768   6.115  0.0355  0.2538 -0.2905
21025W        W37872  18.098   5.859   1.848 -0.2190  0.2742 -0.1950
21026W        W37873  10.454   0.081   3.778  0.1979  0.1100  0.0857
21027W        W37874  13.855   1.938  15.716 -0.1172  0.0731  0.0331
21028W        W37875   3.778  12.251  11.911 -0.1535  0.1028  0.0107
21029W        W37876   7.592   4.308  15.251  0.0961  0.2486 -0.0632
21030W        W37877  13.818   2.813  12.033  0.1979 -0.1503 -0.1275
21031W        W37878   9.075  16.737  15.290 -0.0672 -0.1296  0.0758
21032W        W37879   9.226  15.988  11.428  0.2068  0.1144  0.0327
21033W        W37880   3.761  13.942  13.198 -0.0149  0.1659 -0.1581
21034W        W37881   0.135  14.305  14.919  0.1041  0.1139  0.0135
21035W        W37882  14.413   6.077  11.708  0.0331 -0.1189  0.0671
21036W        W37883   6.072   1.405   4.329 -0.0136  0.1638 -0.1086
21037W        W37884   3.816   7.104  15.778  0.2244 -0.0482 -0.0625
21038W        W37885   5.723   1.355  13.558 -0.0692  0.2941 -0.0173
21039W        W37886   1.748  14.093   3.117  0.1746 -0.1440 -0.3962
21040W        W37887  11.445   0.759  12.351  0.2832  0.1838  0.3356
21041W        W37888  17.263  11.794   4.369 -0.0152  0.1975 -0.0130
21042W        W37889  16.386  18.178   3.937 -0.0971 -0.1972 -0.1786
21043W        W37890  15.694   7.921   4.048  0.0510  0.1950 -0.0307
21044W        W37891   8.276   0.611   1.186 -0.0272  0.1779 -0.1460
21045W        W37892   2.244  11.183  14.701  0.1346  0.0693 -0.0479
21046W        W37893  10.695   2.283  12.480  0.1267  0.3863  0.1323
21047W        W37894  13.484   3.296   4.908 -0.0037 -0.2518  0.1554
21048W        W37895  13.251  10.947   3.941  0.2218 -0.1954  0.1037
21049W        W37896   6.550   7.175   5.028  0.0696  0.0193  0.0282
21050W        W37897   2.812  17.320   5.234  0.2746  0.0831  0.2211
21051W        W37898  14.609  13.006   2.624 -0.0516 -0.0057  0.2494
21052W        W37899   2.678   7.124   5.807 -0.0833  0.0595  0.1541
21053W        W37900   3.910   1.290   3.379  0.0954  0.1746  0.1374
21054W        W37901  17.526  11.555  11.769 -0.1077  0.1729  0.0909
21055W        W37902  14.481  15.869   4.619  0.0307  0.0377  0.1289
21056W        W37903  11.048  16.738   1.028  0.1174 -0.0364  0.1320
21057W        W37904   3.239  14.413  10.603  0.0755 -0.0360  0.2201
21058W        W37905   9.396  14.735   5.868 -0.0185 -0.2607 -0.0489
21059W        W37906   9.498  14.755   1.898 -0.2649 -0.1411 -0.3078
21060W        W37907  17.243   2.434   4.997  0.2589  0.3121  0.0229
21061W        W37908   5.005  14.700   4.917  0.2216 -0.2654 -0.2713
21062W        W37909   6.652   4.678   3.570  0.3957 -0.1161  0.5624
21063W        W37910   3.444   3.093   1.205  0.1502 -0.1443  0.0740
21064W        W37911  11.414  17.828   4.580  0.1216  0.1973  0.1370
21065W        W37912  10.892  11.729   3.290 -0.4476 -0.0796 -0.0122
21066W        W37913   9.363   4.524   4.301  0.0017 -0.0519 -0.2106
21067W        W37914  17.304  16.308   1.103  0.0369 -0.5026  0.4220
21068W        W37915  18.179   4.572  10.939 -0.1232  0.1921 -0.0603
21069W        W37916  18.369   5.996  15.582  0.1199 -0.0078  0.0316
21070W        W37917  14.738   7.406  15.030  0.2353 -0.1858  0.1626
21071W        W37918  11.090   0.484  14.963  0.0823 -0.1780 -0.1043
21072W        W37919  16.908  17.451   4.127  0.1887  0.1098 -0.0912
21073W        W37920   3.418  10.991  15.808  0.1741  0.0563 -0.2343
21074W        W37921   5.479   8.439  11.426 -0.2551  0.3595 -0.1208
21075W        W37922  18.053  12.144   4.817 -0.1045 -0.0867 -0.0712
21076W        W37923  18.346  14.763  12.301  0.2975 -0.0076 -0.0785
21077W        W37924   9.046   4.428   9.612  0.0582  0.1615  0.1464
21078W        W37925   0.999   2.561  14.599  0.0405 -0.1285 -0.1286
21079W        W37926   0.599  15.567  15.519  0.0481 -0.1856 -0.0002
21080W        W37927  14.008  12.831  14.080  0.0447  0.1967 -0.0168
21081W        W37928   1.917  11.493   3.008 -0.2429  0.0226 -0.1703
21082W        W37929   4.230   2.121   1.001 -0.1976 -0.0903 -0.0658
21083W        W37930   0.021  15.543   1.396 -0.2637  0.1037  0.1740
21084W        W37931   2.354   0.944   5.558  0.1625 -0.1562  0.0315
21085W        W37932   3.450   8.235   4.822  0.3565  0.0443 -0.2256
21086W        W37933   2.741  12.054  15.932  0.1994 -0.1216  0.1477
21087W        W37934  10.925   7.442   0.610 -0.0170 -0.1189  0.1191
21088W        W37935   5.774  15.797   3.993 -0.3271 -0.0716 -0.3987
21089W        W37936   1.579   4.233   3.592 -0.3291  0.3222  0.1073
21090W        W37937   6.190   3.210   0.764  0.0412  0.0371 -0.2259
21091W        W37938  15.017   5.177  14.932 -0.0116  0.0732 -0.1120
21092W        W37939   0.539   1.750  14.777  0.1156 -0.3315  0.1219
21093W        W37940  15.128   6.415  15.314 -0.0961  0.2785 -0.1353
21094W        W37941  17.074  11.107  12.176 -0.0120 -0.0769  0.1172
21095W        W37942  17.450   2.104  15.681  0.0574  0.2811 -0.0202
21096W        W37943   4.451  13.530   5.585 -0.2313  0.0893 -0.5191
21097W        W37944   5.211  12.089  15.429 -0.1202  0.0827  0.0452
21098W        W37945  18.187   1.441   2.108  0.0776  0.1887  0.3231
21099W        W37946  14.428   1.086  12.066  0.1503 -0.1609  0.3202
21100W        W37947   2.025   5.039  12.039  0.0263 -0.0455 -0.0047
21101W        W37948   5.152  13.228  12.835 -0.0304  0.1779  0.0302
21102W        W37949   5.319   6.661  14.349  0.0660 -0.3647 -0.2751
21103W        W37950   8.125   2.063   2.959  0.0200  0.2639 -0.1537
21104W        W37951  17.500   8.142  10.561 -0.3568 -0.0687 -0.0672
21105W        W37952  12.936   3.572  11.835 -0.2696 -0.2961 -0.3693
21106W        W37953  18.487   5.202   3.456  0.1483 -0.1378  0.1284
21107W        W37954  10.625   4.241   2.143 -0.0750  0.1014  0.2621
21108W        W37955  15.185   2.842   1.157  0.1888 -0.0211  0.0219
21109W        W37956  12.871  18.480   0.366  0.0044  0.3872  0.0297
21110W        W37957   0.419   4.553   4.879 -0.0368 -0.1206 -0.1145
21111W        W37958   4.048   7.075  13.459  0.1331  0.1762  0.0420
21112W        W37959   0.584  11.581   2.684 -0.1196  0.0502  0.1226
21113W        W37960   0.364  18.209  14.541 -0.1134 -0.0470  0.0868
21114W        W37961   0.197  16.004  11.060  0.1264 -0.1913  0.0186
21115W        W37962   4.891   4.946  11.408 -0.2599 -0.1188  0.1573
21116W        W37963   6.066  12.856   0.213 -0.1965  0.1150  0.2661
21117W        W37964   8.380  14.113  13.662  0.3722  0.0044 -0.1780
21118W        W37965  14.186  16.726   3.388 -0.0903 -0.3688  0.1548
21119W        W37966   3.751   6.744   3.271 -0.0335  0.0905 -0.1324
21120W        W37967   8.403   4.547   3.627 -0.0993  0.3256 -0.0593
21121W        W37968   7.963  15.094   2.647 -0.0739  0.1722  0.0139
21122W        W37969  10.094  13.935   1.208 -0.0022 -0.0278 -0.1919
21123W        W37970  14.619   5.454   9.805  0.0262  0.2100  0.0891
21124W        W37971   7.870   0.925   1.161  0.2218 -0.0152 -0.0363
21125W        W37972   1.309   2.900  14.616  0.0103 -0.1619 -0.1674
21126W        W37973  15.519   7.593  15.566  0.1003 -0.4248  0.1038
21127W        W37974   4.774  10.440  14.997 -0.1024 -0.0020 -0.3150
21128W        W37975   8.122  11.828   2.760  0.0031 -0.0601  0.0928
21129W        W37976  15.414  14.836  15.723 -0.1360 -0.4458 -0.1072
21130W        W37977  14.637  17.262   4.927  0.0957  0.1078  0.0577
21131W        W37978  14.957  13.459  13.377  0.2575 -0.1480  0.3161
21132W        W37979  11.486  13.970   1.665 -0.1799 -0.0343  0.4454
21133W        W37980  17.099   0.487  15.161 -0.0346  0.0029 -0.0058
21134W        W37981   1.141   5.230  11.894  0.2831 -0.0777 -0.0928
21135W        W37982   7.973  15.286  14.213 -0.1956 -0.2086  0.1784
21136W        W37983   7.975  11.787  15.493  0.0195 -0.0879  0.0541
21137W        W37984  15.504  16.110  13.807 -0.0092  0.0475  0.4057
21138W        W37985   5.327  10.484  12.125 -0.2017  0.1931  0.0858
21139W        W37986  16.605   5.456   2.439 -0.2119  0.0710  0.0624
21140W        W37987  10.445   0.797   0.586  0.0153  0.4181 -0.0548
21141W        W37988  11.924   0.850  11.087 -0.1943 -0.1179  0.0638
21142W        W37989  10.539  14.079  11.800  0.2647  0.2143  0.0645
21143W        W37990   6.802   0.492   3.557 -0.1570 -0.0543  0.2450
21144W        W37991  11.895  16.986   4.872  0.1541  0.0192  0.1347
21145W        W37992  12.240  18.384  11.172 -0.2938 -0.1427  0.1558
21146W        W37993  17.735   7.472   2.639 -0.0527  0.0232 -0.0240
21147W        W37994   7.005  18.310   5.003 -0.0978 -0.1482 -0.1931
21148W        W37995   3.974   9.805   4.437  0.0058 -0.0814  0.2351
21149W        W37996  11.911  16.821  14.678  0.1923 -0.0868 -0.0912
21150W        W37997  17.519   6.494  13.393 -0.2749 -0.0396  0.2172
21151W        W37998  13.027   4.638   2.409  0.1857 -0.2109  0.3012
21152W        W37999   5.554  17.469   1.188 -0.1580  0.2584 -0.0141
21153W        W38000   3.546  10.421   0.261 -0.0474 -0.1911 -0.0579
21154W        W38001  12.296   6.422   0.734  0.0521  0.0861 -0.0953
21155W        W38002  17.406  18.124   3.057  0.2190  0.0589 -0.1219
21156W        W38003   9.400   6.577  14.777  0.1100 -0.3114 -0.1032
21157W        W38004   7.606   7.326   3.842 -0.1946 -0.2487 -0.0811
21158W        W38005  10.404  17.704   2.481 -0.1001  0.0191 -0.2547
21159W        W38006   8.190  16.856  11.590  0.1520  0.1764  0.1823
21160W        W38007  14.675  15.717  12.059 -0.0553  0.1206  0.1799
21161W        W38008  15.372   5.535  13.245  0.0849  0.0739  0.0076
21162W        W38009   2.084   3.133   0.043 -0.0431  0.1113  0.0856
21163W        W38010   5.112   1.229   4.734 -0.3271 -0.1010 -0.1576
21164W        W38011  14.028   0.989  15.461 -0.2339  0.0216 -0.0319
21165W        W38012   3.838   6.223  11.283  0.2345  0.0640  0.0220
21166W        W38013   2.929  10.376  12.586 -0.0490 -0.3005  0.5542
21167W        W38014   0.177   7.530   4.343  0.0476  0.0319 -0.0677
21168W        W38015  16.355  12.612  15.938  0.0787  0.2216 -0.1131
21169W        W38016  14.764  13.413   1.307 -0.0496  0.2563  0.1423
21170W        W38017   8.195   0.643  10.276  0.1074 -0.4871  0.2279
21171W        W38018  13.777   1.988   3.369 -0.0412 -0.0445 -0.2425
21172W        W38019   2.860   9.827  10.913  0.1070  0.1103 -0.1184
21173W        W38020  11.978  15.808   1.564 -0.0716 -0.2106 -0.0200
21174W        W38021   2.476  10.401  12.240 -0.0450 -0.1593 -0.0364
21175W        W38022  17.257  16.037   1.510 -0.3662  0.1483 -0.4060
21176W        W38023  10.379   9.302   0.182  0.2070  0.3498  0.0792
21177W        W38024   2.032   8.914   1.042  0.1094  0.1734  0.1177
21178W        W38025  12.502  13.202   5.568 -0.0314  0.3819  0.1325
21179W        W38026  13.548   3.677  13.821 -0.0403  0.2260  0.2514
21180W        W38027  14.940  13.269   5.314  0.2543 -0.0296  0.0288
21181W        W38028   6.641   1.602  12.468  0.3664  0.0492 -0.0482
21182W        W38029   3.963  13.587   2.904  0.2088 -0.2484 -0.1801
21183W        W38030  10.372   6.506  13.819 -0.3669 -0.1539 -0.0406
21184W        W38031   8.050   0.916   0.681 -0.1323  0.1739  0.1688
21185W        W38032  12.184   4.396   1.218  0.1194 -0.1455  0.0711
21186W        W38033   0.554   5.217   3.449 -0.0015  0.3394  0.1316
21187W        W38034   7.609  10.362  13.584  0.2117  0.1336  0.1607
21188W        W38035   7.379   3.906  10.870 -0.1204  0.1290 -0.0156
21189W        W38036   3.921   9.471  12.175 -0.2218 -0.1817 -0.2150
21190W        W38037  17.926  13.524   3.511  0.0635 -0.0478 -0.0536
21191W        W38038   2.692  15.507  12.033 -0.1979  0.2367 -0.1392
21192W        W38039  10.242  17.088  10.043  0.0511  0.1391  0.1004
21193W        W38040   2.382   0.731   4.381  0.0187 -0.0638  0.0816
21194W        W38041   4.376  15.815  13.809 -0.1574 -0.2228 -0.0366
21195W        W38042  11.031  13.430  14.631  0.1725  0.1975  0.0340
21196W        W38043  17.973  17.238   0.355  0.0281 -0.1387  0.0073
21197W        W38044   2.689  11.866   0.857 -0.1866 -0.0096  0.0505
21198W        W38045   1.894   1.822   0.449 -0.4139  0.3369 -0.0397
21199W        W38046   3.133  12.052   5.180 -0.3669 -0.0861 -0.0855
21200W        W38047   4.522  10.675   1.556  0.1930  0.0498 -0.1381
21201W        W38048  14.012  14.188  12.001 -0.1943 -0.1952  0.1236
21202W        W38049  18.265   8.257   2.804 -0.0077 -0.0713  0.2086
21203W        W38050   8.820   3.765   2.202 -0.2209 -0.3343  0.1656
21204W        W38051  17.785  10.909   4.400  0.0308  0.0946  0.1999
21205W        W38052   9.232   2.671   2.087  0.0252  0.1247  0.4230
21206W        W38053  11.346   9.647  15.066  0.1708 -0.1718 -0.1319
21207W        W38054  15.851  14.103   1.173  0.1643  0.0631 -0.1248
21208W        W38055   3.377   9.835   3.510 -0.0076  0.2258 -0.1016
21209W        W38056   1.387  16.028   0.204  0.2077  0.1815  0.1783
21210W        W38057  15.335  13.544   4.245  0.0657  0.0348  0.1060
21211W        W38058  10.495  15.867   1.105 -0.2648  0.1494  0.2983
21212W        W38059  10.045   1.009   4.867  0.1666 -0.0546  0.1612
21213W        W38060  16.633  13.960   2.279 -0.0162  0.1182 -0.1633
21214W        W38061   4.237  18.078  13.200 -0.0592 -0.1159  0.1197
21215W        W38062   9.483  17.745   4.765 -0.1190  0.1420  0.0263
21216W        W38063   1.550   1.423  14.260 -0.1552  0.2250  0.1273
21217W        W38064   3.299   1.197  14.284 -0.2878  0.2000 -0.2591
21218W        W38065   7.000   0.059   0.147  0.0962 -0.0767 -0.2676
21219W        W38066   9.360   1.279  11.433  0.3017  0.0283 -0.0077
21220W        W38067  15.232  15.967   1.307  0.0297 -0.3311  0.2045
21221W        W38068   6.733   6.625  13.965  0.0171  0.0449  0.3105
21222W        W38069  12.632  15.141  15.376  0.0296  0.1787  0.0625
21223W        W38070  12.726  15.016  14.877  0.4507 -0.1387 -0.1138
21224W        W38071   5.916   9.255   2.617 -0.1647 -0.2690  0.2896
21225W        W38072  15.237   9.077   2.838 -0.1435 -0.0822  0.1321
21226W        W38073  13.277   8.101   1.165  0.1215 -0.1255 -0.0478
21227W        W38074   6.131   5.018  14.961  0.0879 -0.0385 -0.0521
21228W        W38075   2.464   2.578   1.905 -0.0442  0.1742 -0.1510
21229W        W38076   1.852   3.411  10.339  0.1455 -0.0630 -0.2168
21230W        W38077  12.342  14.336  11.533  0.0369  0.2058  0.0270
21231W        W38078  12.178   1.053  13.422 -0.1210  0.3800  0.0689
21232W        W38079  14.432  12.690   3.635  0.0241 -0.1867  0.2680
21233W        W38080  10.437   5.808   1.457  0.0912 -0.2553  0.2127
21234W        W38081   5.903  10.444   4.652  0.2372 -0.1097  0.1310
21235W        W38082   3.079   5.090   2.836 -0.1209 -0.2469  0.0245
21236W        W38083  14.933   5.483  12.930  0.1217  0.0409 -0.1020
21237W        W38084  15.361   4.213  10.820  0.0876 -0.1108  0.0658
21238W        W38085   1.598   4.293   1.903 -0.2139 -0.0062 -0.0521
21239W        W38086   5.635   8.980   4.225 -0.3618  0.0288  0.2530
21240W        W38087   3.607   9.645   2.716  0.1175  0.3290 -0.1373
21241W        W38088   7.420  10.544   1.724  0.3673 -0.1325 -0.0760
21242W        W38089  12.362   3.164   1.082 -0.2273 -0.2181 -0.0308
21243W        W38090   0.163  13.276   2.602  0.2103 -0.1950  0.0639
21244W        W38091  12.190  16.595  12.341 -0.0739  0.0163  0.0435
21245W        W38092   1.974   1.805  12.570  0.1731  0.1847 -0.1990
21246W        W38093  14.105   6.347  14.004 -0.0120 -0.0136 -0.0177
21247W        W38094  13.647   8.304   3.242 -0.2895 -0.0283  0.0425
21248W        W38095   2.839  10.458  14.186  0.1406 -0.1651  0.1387
21249W        W38096  11.952  16.025   0.184  0.2034  0.1618 -0.0356
21250W        W38097   3.683   5.144  13.601  0.1972  0.0414  0.2275
21251W        W38098  14.422  16.700  12.429  0.0112  0.1077  0.0836
21252W        W38099   6.566  10.488  11.613  0.1404 -0.2644 -0.0472
21253W        W38100  10.404  16.861   2.808  0.0558  0.0000  0.0707
21254W        W38101  18.154   2.438   3.281  0.1568  0.0154  0.0322
21255W        W38102   2.222   2.165   4.939 -0.1916 -0.1361  0.1860
21256W        W38103  11.996   5.665   5.101  0.5680 -0.0952  0.1355
21257W        W38104   1.970  11.423   4.378 -0.1746  0.2167 -0.1086
21258W        W38105   3.656   6.426   2.184 -0.0140  0.2391 -0.2764
21259W        W38106  13.726  18.055   3.403 -0.4293 -0.0744 -0.0057
21260W        W38107   4.188  18.135  12.164  0.3775  0.0027 -0.1736
21261W        W38108  14.454   1.576   0.899  0.1194  0.0977 -0.2895
21262W        W38109   3.542  15.098   1.128 -0.1145 -0.0273 -0.0266
21263W        W38110   6.956  14.118  14.031  0.0798 -0.1174  0.0814
21264W        W38111  12.453   9.657  15.195 -0.0884  0.1260 -0.0840
21265W        W38112   3.210  18.016   0.722  0.1469 -0.1707  0.1139
21266W        W38113  12.873   5.700  14.935  0.1073 -0.3046  0.1491
21267W        W38114  10.404   7.028   2.519  0.1009 -0.0981 -0.5117
21268W        W38115   1.734   5.676  14.400  0.2085 -0.0490 -0.0540
21269W        W38116   1.126   2.198   1.521  0.2587  0.0529  0.1953
21270W        W38117  14.903  13.060   0.666  0.1359 -0.1384  0.0210
21271W        W38118   2.067  17.718  15.917 -0.1849 -0.3393  0.2159
21272W        W38119  15.887   3.545   0.343  0.0305 -0.1182 -0.0050
21273W        W38120   8.577   0.403   4.582 -0.1625 -0.0706 -0.2750
21274W        W38121   4.578  10.158  14.559 -0.1004  0.1270  0.3095
21275W        W38122   2.493   1.187   4.612 -0.0551 -0.1785 -0.2468
21276W        W38123  17.193  11.534   3.838 -0.0388  0.1415  0.0383
21277W        W38124  17.542  17.822   1.241  0.0847 -0.1016 -0.1097
21278W        W38125  14.523  16.676  13.396 -0.1553  0.1306  0.1175
21279W        W38126   1.211   4.670  11.600  0.1122  0.1488 -0.2183
21280W        W38127   7.624   5.499   3.333  0.0872 -0.0689  0.1822
21281W        W38128   6.567  15.100  14.086  0.0301 -0.2091  0.3447
21282W        W38129  12.801   2.928   5.002  0.0624  0.0191 -0.1451
21283W        W38130   9.794  18.291  13.119  0.3242 -0.0824  0.0450
21284W        W38131  10.314  10.899  12.997 -0.2077 -0.0303  0.2944
21285W        W38132  12.959   5.701  12.706  0.0791  0.0490  0.0348
21286W        W38133  15.162   2.588  13.206  0.0558 -0.0815 -0.0352
21287W        W38134   7.370  16.853   2.674  0.2301  0.0131 -0.2226
21288W        W38135   3.452  11.550   4.119  0.1209  0.0036 -0.0125
21289W        W38136   1.357  14.995  14.116 -0.0214  0.0727 -0.0232
21290W        W38137   3.970  13.638   3.754  0.1560 -0.1394 -0.2548
21291W        W38138   9.981  15.190   1.370 -0.0113 -0.0935 -0.2844
21292W        W38139  15.382   9.820   3.215  0.2033 -0.1103  0.0756
21293W        W38140   6.182  15.483   2.275  0.5257 -0.1605 -0.1224
21294W        W38141   1.901   4.009  14.539  0.1816  0.1936  0.1777
21295W        W38142   4.361   2.593  12.183 -0.0207  0.5187  0.0962
21296W        W38143   8.944   0.806  15.321 -0.0294  0.1905 -0.1692
21297W        W38144  14.708  15.721  14.640  0.1306  0.3001 -0.1025
21298W        W38145   3.787   7.834  12.692 -0.0336  0.0266  0.1175
21299W        W38146   3.387  12.768   2.807  0.1562 -0.0172  0.2003
21300W        W38147   2.279   5.928  12.040 -0.1425  0.2260 -0.1811
21301W        W38148  15.653   3.519  11.663 -0.0666  0.0230 -0.3440
21302W        W38149   4.726  13.344   4.110 -0.0249  0.1144  0.4123
21303W        W38150   4.501   1.847   1.413  0.0684 -0.0364  0.2328
21304W        W38151  11.975  17.355  14.759 -0.1900  0.0825  0.1780
21305W        W38152  14.742  12.335  12.085  0.2668 -0.1774  0.1003
21306W        W38153   5.114   8.090   4.236 -0.2374  0.0887  0.1183
21307W        W38154  12.633   3.392  15.177  0.1441 -0.1059 -0.0976
21308W        W38155   8.741   8.249  11.848 -0.0409 -0.1535  0.2579
21309W        W38156   7.608   6.173  14.069  0.2185 -0.2367 -0.3357
21310W        W38157   7.062  12.388   4.906  0.0683 -0.1778  0.2091
21311W        W38158  14.840   4.104   0.863 -0.0096  0.1797 -0.0356
21312W        W38159   0.598  14.249  15.065 -0.0514  0.1790  0.0001
21313W        W38160   4.433   5.983   1.612 -0.0498  0.0756  0.0423
21314W        W38161  10.859   7.941  13.479  0.2273  0.0937 -0.1117
21315W        W38162  13.071   5.689  10.280  0.1831 -0.3599  0.1671
21316W        W38163   0.250   6.835  15.635 -0.0986 -0.1071  0.0571
21317W        W38164  13.706  17.445  15.259 -0.0380  0.0999  0.1899
21318W        W38165   0.713   1.535   0.938  0.0270 -0.0432  0.0612
21319W        W38166  15.038   3.270  14.850 -0.0100  0.1151 -0.0475
21320W        W38167  17.469  12.047  13.514 -0.3793  0.0583 -0.0706
21321W        W38168  17.751   8.105  14.306  0.0439  0.3689 -0.0862
21322W        W38169  14.232   3.682   5.880 -0.2040  0.2543 -0.0043
21323W        W38170  12.567  10.490  14.093 -0.1680  0.1797  0.2030
21324W        W38171   5.567   3.840  13.808 -0.1781  0.0471 -0.2321
21325W        W38172  17.983   4.616   5.380 -0.0625 -0.0566  0.0207
21326W        W38173  17.639  12.216  14.862  0.0794  0.0020  0.2163
21327W        W38174  16.832  13.052   5.003  0.1003  0.3828  0.0382
21328W        W38175  11.203  15.460   2.668  0.0945 -0.1062 -0.0365
21329W        W38176  14.942   7.945   3.260 -0.0352 -0.0837  0.1571
21330W        W38177   6.300   0.278  15.299 -0.3415 -0.0510  0.1328
21331W        W38178   0.061  10.639  11.871 -0.3794 -0.1591 -0.2960
21332W        W38179   7.670   2.112   2.072 -0.0480 -0.2381 -0.0358
21333W        W38180   4.984  15.797  13.670 -0.0834 -0.2320 -0.2292
21334W        W38181   3.859   5.230  15.911  0.0214 -0.0485 -0.0527
21335W        W38182   8.541   9.729   0.791  0.0987 -0.0174  0.3701
21336W        W38183  17.907  16.352  13.395 -0.0607 -0.1149 -0.4708
21337W        W38184   5.373  14.423  12.458  0.1063 -0.1210 -0.2172
21338W        W38185  16.622   5.457   0.991  0.1636 -0.1682  0.2433
21339W        W38186  11.144   2.927   2.200  0.1306  0.0797  0.2462
21340W        W38187  15.155   5.745   0.886 -0.3727  0.1640 -0.2866
21341W        W38188   1.736   8.514   0.712  0.0297  0.0033 -0.1226
21342W        W38189   6.312  12.588  11.579 -0.0628  0.0200  0.1623
21343W        W38190  13.676  10.578  15.452 -0.2812  0.1032 -0.0526
21344W        W38191  10.244  17.181   0.593 -0.1141 -0.1356  0.0544
21345W        W38192   2.204  12.812   4.647  0.0375 -0.0597 -0.0307
21346W        W38193  15.827   9.063  14.396 -0.4718  0.1274  0.1971
21347W        W38194   2.787   1.365  15.007 -0.0935  0.1393 -0.0431
21348W        W38195   8.094  12.562   1.601  0.1401 -0.0839 -0.2235
21349W        W38196  14.658   3.201  14.478  0.1729  0.0355  0.0852
21350W        W38197   5.258  13.918  12.199 -0.1505  0.0801 -0.1945
21351W        W38198  18.267   8.825  15.608  0.1705 -0.2993 -0.3070
21352W        W38199  14.491  11.527   1.915 -0.2020 -0.0073  0.3015
21353W        W38200   0.080   9.691   5.162  0.1108  0.1053 -0.1626
21354W        W38201  18.110  11.533   5.886 -0.0387  0.0542  0.1847
21355W        W38202  17.242   1.320   5.824 -0.0633 -0.0005 -0.0751
21356W        W38203  17.590   4.065  14.544  0.1670 -0.0750  0.0523
21357W        W38204   8.901   4.949  11.448  0.0229  0.0993 -0.0227
21358W        W38205  18.371  12.209  14.063 -0.0227  0.2666 -0.1702
21359W        W38206   6.819   6.639   2.346 -0.0057  0.2450  0.2524
21360W        W38207   9.914  16.746   2.461  0.1561  0.0190  0.0635
21361W        W38208  11.951   9.535   2.403  0.1638  0.0820 -0.1365
21362W        W38209   8.894  14.138  15.529 -0.0298  0.1111  0.0492
21363W        W38210   8.386  10.347   4.873  0.0702 -0.2317 -0.0102
21364W        W38211   0.641  13.553   2.884 -0.0760 -0.0945  0.0564
21365W        W38212   1.801   4.370   1.357 -0.3803 -0.0200 -0.0356
21366W        W38213   5.734   6.759   4.861  0.2202 -0.0954  0.0143
21367W        W38214  13.598  12.202  13.891  0.0305 -0.3720 -0.4175
21368W        W38215  11.382   4.441   2.464  0.0186  0.1052  0.2296
21369W        W38216  11.438   4.136  11.583  0.0582  0.0159 -0.0147
21370W        W38217  17.927   7.811  15.303  0.2820  0.1784 -0.3037
21371W        W38218  11.257   3.042  14.551  0.2351  0.0204 -0.1569
21372W        W38219  10.212   9.325  14.027 -0.2070  0.1279 -0.0065
21373W        W38220   8.955  16.597  10.928 -0.3118 -0.2571 -0.1236
21374W        W38221  12.594  10.749  13.652 -0.0829 -0.1512  0.1333
21375W        W38222  12.290   1.869   2.903  0.0075 -0.1496  0.1462
21376W        W38223  16.443  15.156  14.198 -0.4970  0.3270  0.1045
21377W        W38224  14.531  15.668   0.234 -0.1214 -0.1941  0.0305
21378W        W38225  12.162   6.290   2.957 -0.1175 -0.0372  0.1813
21379W        W38226   5.419  18.521   2.216 -0.0320 -0.1201  0.1729
21380W        W38227  12.712   6.696   0.758 -0.1164  0.1120 -0.0893
21381W        W38228   8.958  11.659   1.875 -0.1076  0.3973 -0.0293
21382W        W38229   4.792   2.632  15.118  0.2363  0.1140 -0.2327
21383W        W38230   6.778   2.918   1.232  0.0535  0.0353  0.2384
21384W        W38231   4.191   8.042   1.427  0.1186 -0.1723 -0.0381
21385W        W38232  11.305  11.046   0.059  0.1888 -0.0699 -0.1553
21386W        W38233  15.367   4.695  11.281 -0.0082  0.2023  0.1558
21387W        W38234   3.745  13.974  11.748  0.0406  0.0949 -0.0364
21388W        W38235  18.491   0.516  15.075  0.2489 -0.0499  0.1600
21389W        W38236   9.630   4.751   0.836  0.1496 -0.0740 -0.0491
21390W        W38237  13.988  11.970  15.683 -0.0455  0.1498  0.1382
21391W        W38238  13.286   6.273   4.387 -0.2109  0.3505 -0.0289
21392W        W38239  11.015   3.758   0.297  0.0879  0.0378 -0.1688
21393W        W38240   6.391  10.109  13.041  0.0578  0.2330  0.1857
21394W        W38241   4.151   9.102   1.582 -0.0605  0.2147  0.0278
21395W        W38242   7.755  18.013  15.558 -0.0654  0.0144  0.1702
21396W        W38243   3.718  10.814  13.998 -0.0884 -0.3439  0.2744
21397W        W38244   4.648  10.125   3.903  0.0235 -0.4738 -0.0039
21398W        W38245   3.918   2.368  10.352  0.2362 -0.0957  0.0484
21399W        W38246  14.894  11.920   2.650  0.1003  0.2225 -0.2107
21400W        W38247  15.313   5.867  14.092  0.0164 -0.1491  0.0331
21401W        W38248   0.297   7.599   3.211 -0.2825  0.0214 -0.1272
21402W        W38249  16.331   5.899   4.928  0.1363 -0.0903 -0.1191
21403W        W38250   3.546  16.420   0.481 -0.0633  0.1061  0.4560
21404W        W38251   0.565  12.078   0.662 -0.0512 -0.1427 -0.0874
21405W        W38252  11.468  15.988   3.303 -0.0749  0.0542  0.0903
21406W        W38253  18.308  11.683   4.755  0.1151 -0.1496  0.1685
21407W        W38254   6.870  18.027   2.897  0.0191 -0.0263  0.2579
21408W        W38255  12.273   0.295  12.770  0.2459 -0.1299  0.1536
21409W        W38256  15.789  17.246  11.546 -0.1147 -0.0491 -0.0204
21410W        W38257   7.446   1.979  11.394  0.1662  0.2039  0.1156
21411W        W38258  10.351   6.474  12.045  0.1923  0.4922  0.0791
21412W        W38259  10.839   5.991   0.686  0.2431 -0.1789  0.2606
21413W        W38260   7.953  14.761   4.493  0.0723 -0.2899 -0.2092
21414W        W38261  15.939  10.029  14.070  0.0395  0.2077  0.0778
21415W        W38262   9.503  17.833   0.954  0.2583 -0.1615  0.1124
21416W        W38263   5.427   9.497  11.324  0.0946 -0.4615 -0.0010
21417W        W38264   0.393   8.642  13.894  0.2075 -0.0607  0.3215
21418W        W38265   2.806   6.632  15.462  0.0442  0.0664  0.0539
21419W        W38266   3.394  10.913   0.351  0.3552 -0.1435  0.0443
21420W        W38267   4.366   8.535   5.658 -0.1373 -0.2218 -0.2414
21421W        W38268  10.069   6.672   3.474  0.2128  0.1218  0.2154
21422W        W38269  12.011  17.448  11.044  0.1301  0.3803  0.2862
21423W        W38270   2.411  16.118   4.025  0.1549 -0.3257  0.3098
21424W        W38271   6.322   5.937   4.930  0.2735 -0.0917  0.1473
21425W        W38272  15.580  10.670   3.607 -0.1707 -0.0349 -0.1951
21426W        W38273   9.833  11.735  11.854 -0.1008 -0.1007 -0.2841
21427W        W38274   7.798   7.559   0.805 -0.1228 -0.1006 -0.2414
21428W        W38275   8.304   2.605   5.344 -0.0861  0.1056  0.1212
21429W        W38276   8.486   1.127  12.681  0.0475  0.2084 -0.0082
21430W        W38277  10.815   9.805   4.273  0.2349 -0.0121  0.0440
21431W        W38278  14.448  14.506   3.423 -0.1049  0.2522 -0.1578
21432W        W38279   0.150   0.875   4.370  0.0028 -0.1228 -0.0044
21433W        W38280   3.880  15.498   4.683 -0.2070  0.2075 -0.3773
21434W        W38281   1.367  11.537  12.675  0.1417  0.0747 -0.2555
21435W        W38282   8.367   7.503  11.902 -0.0915  0.0519 -0.1730
21436W        W38283   7.955  14.554  13.086  0.0172 -0.1946 -0.0523
21437W        W38284   3.520  13.478  12.483 -0.0120  0.0549  0.1524
21438W        W38285   5.630  14.179  13.016 -0.0333  0.3564 -0.1195
21439W        W38286   0.251   4.969   3.042  0.4983 -0.1156  0.1493
21440W        W38287  10.915   5.760   5.311 -0.3454 -0.2580 -0.1966
21441W        W38288   9.062   2.155  12.811 -0.0451  0.2010 -0.1250
21442W        W38289  13.339   0.744   3.329 -0.1183  0.1753 -0.1179
21443W        W38290   3.159  12.200  13.199  0.0214 -0.0574 -0.0789
21444W        W38291  15.927  13.653   1.420  0.1705  0.4213  0.0978
21445W        W38292  14.990   0.602  13.151 -0.2822  0.1636  0.0978
21446W        W38293   0.569   7.825  12.170 -0.4105  0.5217 -0.0089
21447W        W38294  11.632   2.035   1.398 -0.0016  0.0087  0.0098
21448W        W38295   6.193  11.614   3.914 -0.1152  0.2229  0.5500
21449W        W38296   3.584  15.685   6.020 -0.3257 -0.1522 -0.0827
21450W        W38297  15.876  11.940   2.349  0.0814  0.3106  0.1370
21451W        W38298   9.274   7.079   4.834  0.0599 -0.1573 -0.0011
21452W        W38299   3.487  11.077  14.446 -0.1369 -0.1540 -0.1563
21453W        W38300  17.269   1.087   4.596 -0.2186 -0.0598  0.0998
21454W        W38301  11.379   7.986  11.418 -0.4034  0.2650  0.1432
21455W        W38302  14.750   6.016   2.625 -0.2383  0.0590 -0.0662
21456W        W38303   6.237   8.392   1.210  0.0456 -0.0366 -0.0293
21457W        W38304  14.122   2.789  15.643  0.1978 -0.2851 -0.3354
21458W        W38305  15.043  12.956   1.152 -0.0474 -0.2231 -0.1105
21459W        W38306   7.534   4.236  14.429 -0.2139 -0.1100 -0.0155
21460W        W38307   5.067  15.530  12.680  0.2713  0.2495 -0.1807
21461W        W38308   9.630   1.347   3.242 -0.3219  0.0236  0.2633
21462W        W38309  12.502   8.445  10.536  0.4106 -0.0139  0.0644
21463W        W38310  10.867   2.139  10.804 -0.1069 -0.1441  0.1808
21464W        W38311  13.851   8.629  13.510 -0.1269 -0.2044  0.0263
21465W        W38312   3.677  13.724   4.194  0.2782  0.0254  0.0118
21466W        W38313   0.973  11.336   0.519  0.0122 -0.0417  0.0464
21467W        W38314   5.753  11.159  15.927 -0.0042  0.0157  0.0192
21468W        W38315   3.573  12.850  14.199 -0.0825 -0.0563 -0.1125
21469W        W38316   6.158   6.140  14.516 -0.1665 -0.0955  0.2668
21470W        W38317   0.363   7.481  11.824  0.1973  0.1912  0.1376
21471W        W38318   3.244   1.158   5.707  0.1654  0.3672 -0.1137
21472W        W38319   7.312   6.082  13.130 -0.0285 -0.1074  0.3153
21473W        W38320  12.040  11.341   2.330  0.3025  0.2640  0.0209
21474W        W38321   6.207  17.046   0.649 -0.0065  0.2830 -0.2369
21475W        W38322  10.185   1.565  14.047  0.0770  0.2221 -0.0630
21476W        W38323   3.378  17.803  11.666 -0.2017  0.1648 -0.1065
21477W        W38324   8.229   7.179   0.770  0.3002  0.0196  0.2125
21478W        W38325   8.232  11.036  14.080  0.0044 -0.0019  0.0828
21479W        W38326  10.160   6.148  11.689  0.0049  0.1153  0.2741
21480W        W38327   5.602  13.351   3.922 -0.2529  0.2589 -0.2470
21481W        W38328  14.568   0.239   2.738  0.0475 -0.2470 -0.0445
21482W        W38329  13.958  12.040  11.070 -0.0346 -0.0880  0.1723
21483W        W38330  17.432  10.535   4.138 -0.1947  0.0318  0.2299
21484W        W38331  10.100  11.766   2.047 -0.2334  0.0930 -0.0264
21485W        W38332   2.074   4.125   3.387  0.2731 -0.1593  0.1040
21486W        W38333   4.262   7.597   6.109 -0.2485 -0.0868 -0.0759
21487W        W38334  10.796   1.412  14.412 -0.0202 -0.0071 -0.0816
21488W        W38335  13.103  11.031   4.406  0.0884  0.2956  0.0205
21489W        W38336  12.532  16.111  14.082  0.1281 -0.1406 -0.1076
21490W        W38337   0.903  16.740   3.457 -0.0352 -0.2763  0.0942
21491W        W38338  14.430  17.807  15.163  0.2023  0.1207  0.3415
21492W        W38339  14.528   3.270  15.672  0.3924 -0.2216 -0.1406
21493W        W38340  16.865   2.659  15.615 -0.0699 -0.2524  0.1483
21494W        W38341   0.785   0.248  15.041 -0.2218 -0.0144  0.0691
21495W        W38342  12.003  16.828  15.644  0.1445 -0.1251  0.0665
21496W        W38343   5.804   4.755  14.073 -0.0390 -0.0223  0.0086
21497W        W38344   5.560   9.997  12.372 -0.1155 -0.2456  0.1272
21498W        W38345  17.046   5.711   0.995 -0.2409  0.1633 -0.2465
21499W        W38346   3.680  16.397   4.271 -0.4545 -0.0944 -0.1236
21500W        W38347  10.145   8.960  11.945  0.2116  0.1141 -0.4196
21501W        W38348   2.676  10.887  15.450  0.4214  0.1077 -0.0397
21502W        W38349   8.215   6.978   1.777 -0.0236 -0.0567 -0.0544
21503W        W38350  12.039  13.860  13.871 -0.0796 -0.0694 -0.1738
21504W        W38351   5.947  14.586   2.123 -0.6136  0.0112  0.1596
21505W        W38352  17.302   9.887   5.781 -0.0887 -0.0889 -0.0567
21506W        W38353   6.913  17.267   0.969  0.2227 -0.1183  0.0186
21507W        W38354  11.582  12.568   5.169  0.2828 -0.0111  0.1706
21508W        W38355  10.162   2.363   4.010 -0.1674 -0.1085  0.0042
21509W        W38356   3.713  13.542   0.234  0.0122  0.1096 -0.2015
21510W        W38357   3.057   1.922  12.497 -0.1504  0.1268  0.0840
21511W        W38358   3.468  10.563   2.439  0.0599 -0.2015  0.1462
21512W        W38359   5.155   5.981   2.361 -0.1800  0.1123 -0.1951
21513W        W38360  17.568   9.455   2.731 -0.1281 -0.1549 -0.0383
21514W        W38361  17.754  15.721   0.179  0.0134  0.0438  0.1318
21515W        W38362   1.042   2.440   5.334 -0.2786  0.0861 -0.0100
21516W        W38363  16.655   0.388  12.254  0.2040  0.0190  0.0525
21517W        W38364   7.556   6.804   2.144 -0.1812  0.2802  0.0322
21518W        W38365   0.037  18.468   5.212 -0.1958  0.1307  0.0949
21519W        W38366  12.333   0.268  10.945  0.2117 -0.0663  0.0419
21520W        W38367   3.466  13.931   0.524 -0.1316 -0.3312  0.0073
21521W        W38368   2.266   9.867   4.003 -0.0262  0.0029 -0.0378
21522W        W38369   1.504  16.521  12.002  0.1392 -0.0890  0.2651
21523W        W38370   1.934   6.203   0.459 -0.1217 -0.2196  0.1966
21524W        W38371   0.342   3.910   3.498  0.3007 -0.2374  0.1086
21525W        W38372   3.998   2.408   5.207  0.2170 -0.0994 -0.0112
21526W        W38373   7.479  11.491   5.148 -0.2245  0.1724 -0.1280
21527W        W38374   2.048  12.899   1.713 -0.0130 -0.0276  0.2109
21528W        W38375  16.768   2.721   4.470 -0.0563 -0.1151  0.1769
21529W        W38376  16.314   8.695  11.207  0.2465  0.1026 -0.0695
21530W        W38377   8.469  15.849   1.742 -0.2510  0.1073  0.1569
21531W        W38378   2.200   1.711   0.798  0.1041  0.0371 -0.1770
21532W        W38379  14.737   2.922  11.636 -0.0058  0.0326  0.0558
21533W        W38380  16.650  14.335   1.416  0.1131  0.1459 -0.4220
21534W        W38381   4.960  13.669   5.473  0.0155 -0.3815 -0.0575
21535W        W38382  10.015  16.940  15.255 -0.0007 -0.1483  0.2855
21536W        W38383  17.713   6.968  14.199 -0.1142  0.0310 -0.3935
21537W        W38384   8.084   1.103  11.737 -0.0769 -0.1294  0.1993
21538W        W38385  11.435  10.141  11.914 -0.0951 -0.1942  0.2985
21539W        W38386  15.006   1.553   0.228  0.0719  0.0675 -0.0818
21540W        W38387   1.214  16.161   1.294 -0.2867 -0.3164  0.1686
21541W        W38388  10.184  11.868  15.489  0.3506 -0.0016  0.1921
21542W        W38389   9.886  10.657   0.291  0.3003  0.3803  0.0484
21543W        W38390   4.768   5.707   1.280  0.2811  0.3771 -0.1711
21544W        W38391  14.733   5.536   2.776  0.0201  0.1623  0.0200
21545W        W38392   9.335  13.033   6.275  0.1037 -0.1156  0.1306
21546W        W38393   7.731   4.385   0.694  0.1308  0.0567 -0.0265
21547W        W38394   9.248  15.345   0.549 -0.0299  0.0971  0.1953
21548W        W38395  17.043   2.443   3.942 -0.0658  0.0752 -0.2063
21549W        W38396   8.704   6.862   4.715  0.0923 -0.4092  0.1846
21550W        W38397  10.206   8.989   4.128  0.0716 -0.0180 -0.1500
21551W        W38398   1.724  13.035   3.854 -0.1728  0.0239  0.0261
21552W        W38399  12.573   8.041  13.443  0.1593  0.0082  0.2308
21553W        W38400   8.042  14.196   0.992  0.0870  0.0856 -0.1501
21554W        W38401   4.603   9.619   2.173 -0.1336 -0.2211 -0.4308
21555W        W38402   5.024   0.896   4.309 -0.0639 -0.0141 -0.1395
21556W        W38403  17.569   8.047  11.856  0.0661  0.1923 -0.0093
21557W        W38404  13.944  14.927   4.898 -0.2096  0.0231  0.1872
21558W        W38405   4.810  17.701  15.248 -0.2698  0.1946 -0.1256
21559W        W38406  17.386  16.014  14.195 -0.0690  0.2338 -0.0585
21560W        W38407  16.210  18.481   1.915  0.2619  0.1296  0.0006
21561W        W38408  15.143   1.666   3.079  0.1975  0.0876  0.0017
21562W        W38409   1.139  16.817   1.284  0.0786 -0.1898 -0.2142
21563W        W38410   9.131   3.257   5.007  0.0852 -0.0511 -0.2012
21564W        W38411   4.132   2.291   3.362  0.0471 -0.0450  0.3957
21565W        W38412   0.877   4.982   2.575  0.1684 -0.0802  0.5219
21566W        W38413  16.464   6.783  13.627 -0.0742 -0.2264 -0.0254
21567W        W38414   5.579  13.392   5.203 -0.0886  0.1130  0.0448
21568W        W38415  12.335   6.086   2.532  0.2871 -0.0841 -0.0448
21569W        W38416   9.387   0.210   5.080  0.0541 -0.0303  0.0477
21570W        W38417   4.219   0.679   4.663  0.1019 -0.2804  0.1647
21571W        W38418  12.407  14.072  14.154  0.0413 -0.1231 -0.0160
21572W        W38419   8.711  15.931   4.576 -0.1242  0.0716 -0.1444
21573W        W38420   9.243   6.786  13.767 -0.3816  0.0809 -0.2579
21574W        W38421   4.061  12.625  14.194 -0.0111  0.0933  0.1977
21575W        W38422  13.082   2.347   3.077  0.0053  0.1655 -0.1911
21576W        W38423   2.292   0.866  15.814  0.1027  0.1428  0.3762
21577W        W38424   4.100   6.230  14.972  0.4374 -0.1585  0.0355
21578W        W38425   4.561   0.328  12.539 -0.0707 -0.1848  0.1905
21579W        W38426   2.647  10.517   4.465  0.0268  0.1201 -0.1744
21580W        W38427   6.250   8.499  13.121  0.0737  0.0996 -0.2204
21581W        W38428   3.206   0.965  15.747 -0.1635 -0.0847  0.0188
21582W        W38429  15.908  17.646   1.152  0.0387 -0.1153  0.1656
21583W        W38430   0.567   1.473  15.425  0.2458 -0.2171  0.2751
21584W        W38431   7.435  12.978  14.547 -0.0372 -0.2096  0.2731
21585W        W38432   8.821   5.321  14.499 -0.3098 -0.4547  0.4080
21586W        W38433   9.060   2.493   0.740 -0.2148  0.3811  0.1392
21587W        W38434   5.115  14.718   1.071 -0.1478  0.2411  0.1632
21588W        W38435  17.916   8.173   2.260 -0.1855 -0.1310  0.1549
21589W        W38436   8.253  16.969   3.247 -0.0824 -0.1741 -0.1850
21590W        W38437  16.820   1.041   3.289  0.0138  0.0111 -0.1927
21591W        W38438  13.129   5.259   5.187  0.0486  0.3171 -0.2304
21592W        W38439   4.727   5.197   0.511 -0.3078 -0.1818 -0.1174
21593W        W38440  17.681  14.763   2.849 -0.0121  0.0370 -0.2025
21594W        W38441  14.663   9.376  15.668 -0.1290 -0.1769  0.1250
21595W        W38442   5.263   0.065   5.506  0.0494  0.1593 -0.1908
21596W        W38443   9.563  12.231   3.493 -0.1624  0.2904  0.1472
21597W        W38444   7.706  13.835   2.555 -0.0901  0.1699 -0.1108
21598W        W38445  12.955   5.944   1.886 -0.0784 -0.1547 -0.1991
21599W        W38446   8.120  10.938   0.929  0.0102 -0.1457 -0.2391
21600W        W38447  16.734  15.976  11.572 -0.0885 -0.1039  0.1950
21601W        W38448   4.390  11.958   2.883 -0.5032  0.2798 -0.0712
21602W        W38449   7.032   2.774   2.016 -0.2023 -0.0150  0.2675
21603W        W38450  17.919  17.306   1.111 -0.1627  0.0298 -0.1593
21604W        W38451   8.849  16.670   3.513  0.0408 -0.2870  0.1505
21605W        W38452  12.299  17.490  12.140  0.1471 -0.1574  0.0377
21606W        W38453  10.090  10.040   2.061  0.2976  0.0377  0.0339
21607W        W38454  13.907  13.126   2.167  0.2903 -0.0542  0.2667
21608W        W38455  17.279   3.548   0.170  0.3499 -0.1035 -0.0688
21609W        W38456   9.636   8.474  14.868 -0.2595  0.1467 -0.0945
21610W        W38457   3.825  12.348   3.501 -0.0407 -0.1748 -0.0914
21611W        W38458   5.320  16.455  15.455  0.1610  0.0849  0.0906
21612W        W38459   0.345   8.611  12.853 -0.1499  0.2779  0.0417
21613W        W38460   4.224  14.846   5.423  0.1621 -0.1496 -0.1979
21614W        W38461   9.685   3.605   2.790  0.0273 -0.3023 -0.2519
21615W        W38462   6.008  17.398  10.993 -0.3521  0.0061  0.0787
21616W        W38463   1.537  12.166  15.123 -0.0492 -0.2577 -0.3832
21617W        W38464   2.562   4.366  14.174 -0.0374 -0.2066  0.0597
21618W        W38465  16.477   7.894   3.253  0.2214  0.2145  0.0611
21619W        W38466   7.531   1.811  12.439  0.0635  0.0426  0.0463
21620W        W38467   1.271  17.054   3.185  0.1816  0.3447  0.0033
21621W        W38468   8.974   2.764  15.352  0.1179  0.1270  0.2268
21622W        W38469  11.414   7.402  13.335  0.0014  0.2075 -0.0426
21623W        W38470   1.861  16.193   1.103  0.2336  0.1042  0.3152
21624W        W38471   9.265  10.907   3.598 -0.0524  0.1144  0.1657
21625W        W38472  13.767  18.223  14.714 -0.3521  0.1976  0.0292
21626W        W38473  11.861   8.397  14.475 -0.1254  0.2359  0.1838
21627W        W38474   8.458   6.528  14.124  0.0213 -0.0180  0.0383
21628W        W38475   5.236   1.098   3.241 -0.0548  0.1366 -0.2673
21629W        W38476   4.831   7.057   2.408  0.3461  0.0703 -0.2539
21630W        W38477   7.671   4.853   3.139 -0.0659  0.0131  0.0383
21631W        W38478  12.913  15.790  15.900  0.0214 -0.3905 -0.2033
21632W        W38479   1.054  13.046  13.264 -0.1972 -0.0478  0.1488
21633W        W38480  15.295   7.828  11.217  0.2015  0.0731  0.0036
21634W        W38481   3.445   0.014  10.805  0.2318 -0.2077  0.2650
21635W        W38482   7.248  17.418  11.291  0.1157 -0.3518 -0.0460
21636W        W38483  10.699   9.850  11.312 -0.2183  0.0747 -0.1988
21637W        W38484  13.567  14.241  13.268  0.0510  0.1341  0.3435
21638W        W38485  17.176   1.494  13.429 -0.1821  0.4580 -0.1114
21639W        W38486   6.985   6.103   4.459 -0.0110  0.4077  0.1545
21640W        W38487   1.646   4.164  11.020  0.2966  0.1268 -0.2539
21641W        W38488  11.940   5.619   1.856 -0.4266 -0.1154 -0.0249
21642W        W38489   0.299  18.513   2.148 -0.2365 -0.1464  0.1220
21643W        W38490   1.030  15.766   2.570  0.0181  0.1447  0.0104
21644W        W38491  17.834  17.579   2.074  0.0427 -0.1070  0.1471
21645W        W38492  14.454  13.171  14.252 -0.0117 -0.0143  0.0585
21646W        W38493   8.398  17.420   4.711 -0.2961 -0.2678 -0.1752
21647W        W38494   2.336   9.905   2.178 -0.0843  0.1134  0.2269
21648W        W38495  11.106  14.813  12.888 -0.2584  0.0093 -0.0970
21649W        W38496  18.107  18.098   1.782 -0.1351  0.0179 -0.2150
21650W        W38497  11.050   0.360   5.444  0.1753 -0.2590  0.2545
21651W        W38498   4.259   1.564   1.806  0.1442 -0.1342 -0.0882
21652W        W38499  12.239  15.135  14.071  0.2872 -0.0293 -0.0313
21653W        W38500  11.813   6.249  14.873  0.1793  0.1640  0.0745
21654W        W38501  18.516   1.217   5.168  0.2676  0.2739 -0.0193
21655W        W38502   8.505  17.824  13.461 -0.2934 -0.0355 -0.0602
21656W        W38503  17.702  13.406  12.524 -0.0696 -0.1934 -0.2558
21657W        W38504   0.223  15.157   5.449 -0.2622 -0.0612  0.0883
21658W        W38505  10.194   9.883   1.543 -0.0644  0.2091 -0.1569
21659W        W38506  12.698   1.206  15.194  0.2000  0.0997 -0.6002
21660W        W38507  10.046   2.113   0.391  0.0669 -0.0443 -0.0201
21661W        W38508  10.638  10.585  14.418  0.1357 -0.0004  0.0432
21662W        W38509  16.848   3.717   3.504  0.2203  0.2853 -0.0097
21663W        W38510  15.975   6.040   3.055 -0.0950 -0.0747 -0.0989
21664W        W38511  14.331   9.745  15.530 -0.0309  0.2026 -0.0193
21665W        W38512   6.482  15.108   1.084  0.0316 -0.2892 -0.0186
21666W        W38513  14.861  13.572   3.435 -0.3049  0.1279 -0.0747
21667W        W38514  17.799   8.958  15.175  0.3248 -0.0017  0.0394
21668W        W38515   5.118   7.145  15.515 -0.0305 -0.1536 -0.2077
21669W        W38516  11.219   5.264   3.478  0.3834 -0.3332  0.2539
21670W        W38517   5.594  10.215  14.238  0.1530 -0.0521  0.0015
21671W        W38518   2.967   9.969  13.101  0.0796 -0.1566  0.3153
21672W        W38519  14.072  15.001   2.762 -0.2333  0.0928  0.1130
21673W        W38520  18.349   8.819   2.716 -0.1923  0.1314  0.0397
21674W        W38521   3.675   4.991   4.052  0.0349 -0.2149 -0.2396
21675W        W38522   8.664  10.985  11.385  0.0346  0.1589  0.3025
21676W        W38523  13.783  14.014   5.422  0.0738 -0.2493  0.0558
21677W        W38524   3.648   4.533   1.396 -0.1478  0.3478 -0.0483
21678W        W38525  13.043   3.881   1.126 -0.0723  0.3707 -0.1473
21679W        W38526  10.017  18.308   3.914  0.2331  0.0144 -0.2798
21680W        W38527  14.130  13.921  14.055 -0.4351 -0.1068  0.0329
21681W        W38528  13.571   4.998   3.493  0.2425  0.0908 -0.1218
21682W        W38529  12.180  11.052  11.892  0.1104  0.1649 -0.2810
21683W        W38530  17.534  15.055  11.327 -0.0202 -0.5712 -0.0768
21684W        W38531   7.553   4.212  13.085  0.1355 -0.0092  0.3021
21685W        W38532  17.478  15.897  11.465  0.1511 -0.0529  0.2198
21686W        W38533  11.897  16.114  13.312 -0.3540 -0.1127  0.1935
21687W        W38534  15.970   3.052  14.060 -0.0712  0.2931  0.1690
21688W        W38535  16.033   0.582   4.792 -0.0616 -0.0976 -0.1682
21689W        W38536   6.136  12.245  11.297 -0.0390 -0.0404  0.2486
21690W        W38537   0.334   6.101  14.318  0.1847  0.5933 -0.2495
21691W        W38538  12.201  15.104  14.890  0.1493  0.0397 -0.3663
21692W        W38539  13.167   3.075  15.030 -0.0153  0.1014  0.0683
21693W        W38540  13.168  16.295   1.507 -0.2668  0.0024 -0.0518
21694W        W38541   2.012  16.663  11.756 -0.1083 -0.0479  0.3576
21695W        W38542  10.612   5.201  12.067 -0.0597 -0.3007  0.1634
21696W        W38543   8.248  18.516   1.852  0.0142  0.3238  0.0197
21697W        W38544  13.572  16.803  15.610 -0.0920 -0.1392  0.1642
21698W        W38545  12.349   5.941  15.472  0.1140 -0.0199  0.1241
21699W        W38546   6.354   3.554  12.155  0.1753  0.0402 -0.2296
21700W        W38547   7.622  10.513  15.691 -0.0651 -0.0625 -0.1120
21701W        W38548  11.311  17.634  12.935  0.1858  0.0604  0.3206
21702W        W38549   7.176  16.375   3.524  0.0224  0.2666 -0.5080
21703W        W38550   4.794  10.496  12.242  0.0796  0.0136  0.0661
21704W        W38551  10.477   9.714   4.717  0.1300 -0.0666 -0.3115
21705W        W38552   6.911  10.223  12.972 -0.5510 -0.2333 -0.2830
21706W        W38553  10.579   1.318  13.795  0.1638 -0.3105  0.0275
21707W        W38554   0.005   2.571  15.012 -0.1567  0.1889 -0.1407
21708W        W38555   0.046   9.025  11.610  0.0857  0.0362  0.0855
21709W        W38556  12.708   3.909   0.755  0.5102  0.0842 -0.0012
21710W        W38557   7.650  11.403  13.474 -0.1265  0.1076 -0.0650
21711W        W38558   6.319   1.363  13.913  0.1220 -0.0560 -0.3034
21712W        W38559   8.025   2.181   4.097  0.1911  0.0434  0.2282
21713W        W38560   7.519   6.436  14.913 -0.2461 -0.3343 -0.2378
21714W        W38561   9.424  11.306   3.281 -0.0683  0.1822 -0.1373
21715W        W38562   0.116   9.674  12.180 -0.0537  0.1035 -0.0785
21716W        W38563   2.511  12.552   0.090 -0.1010  0.0920  0.1764
21717W        W38564  17.540   2.017  12.093 -0.2289  0.1084 -0.0021
21718W        W38565  13.093  12.170  15.539  0.2007  0.0831  0.1029
21719W        W38566   4.869   8.221   2.331 -0.0993  0.0476  0.3028
21720W        W38567  13.808  12.388  11.431  0.0170 -0.0792  0.0363
21721W        W38568   6.519  17.281  12.339  0.0145 -0.3011  0.0024
21722W        W38569   7.089  12.077   1.881 -0.4899 -0.1699  0.0060
21723W        W38570   8.698   5.057  13.013 -0.1573 -0.1830  0.1833
21724W        W38571   1.905   4.918  13.860  0.2191 -0.0986  0.1211
21725W        W38572   4.235  12.908   0.275  0.1474  0.1489 -0.2302
21726W        W38573   2.768   6.826  13.136  0.1389 -0.3699  0.1947
21727W        W38574  14.080   8.815  14.028  0.3805 -0.0050  0.0007
21728W        W38575  15.966   3.095  11.839 -0.2022 -0.2283 -0.1603
21729W        W38576  13.079  15.738  12.959 -0.0345 -0.1056  0.1117
21730W        W38577  13.916  14.861  14.078 -0.0186 -0.0936 -0.0298
21731W        W38578  10.670   8.566  15.534 -0.1783 -0.0265  0.0864
21732W        W38579  17.774  13.248  10.905 -0.0991 -0.2176  0.4566
21733W        W38580  14.844  15.491   2.211  0.1467  0.2928 -0.3262
21734W        W38581  15.158  13.757  10.248 -0.2872 -0.3404 -0.0434
21735W        W38582  15.986  13.510  10.837 -0.2694  0.0660  0.1556
21736W        W38583  18.082  10.652  15.110 -0.0446 -0.2681  0.1690
21737W        W38584   7.361   5.921  14.520  0.0995 -0.1209  0.0423
21738W        W38585  12.406  16.582   2.845 -0.2330  0.0140 -0.1996
21739W        W38586   5.546  14.114   3.559  0.0649  0.0672  0.2048
21740W        W38587  17.004   1.614  14.682  0.1796 -0.1850 -0.2366
21741W        W38588   7.294  10.797  13.757 -0.1884  0.0072  0.0232
21742W        W38589  17.839   4.548   1.313 -0.0988  0.3286  0.1604
21743W        W38590  15.031   3.768  15.066 -0.2886 -0.1294  0.1063
21744W        W38591  12.670  15.753   3.762 -0.2144 -0.4066  0.1357
21745W        W38592   2.734   1.318  12.691  0.0260 -0.1509  0.0845
21746W        W38593   6.800   4.851   2.483  0.2808 -0.1900 -0.0552
21747W        W38594   5.884  18.170  10.000  0.1923 -0.2469  0.0056
21748W        W38595  16.723  15.460  10.907  0.0430  0.0455 -0.1440
21749W        W38596   1.267  10.210  12.712  0.1656 -0.0938 -0.2891
21750W        W38597  11.211  10.989   3.686 -0.0320 -0.3916  0.1112
21751W        W38598  15.771  11.990   0.259 -0.1498 -0.1862  0.0835
21752W        W38599   5.895   0.610   1.661  0.0013  0.2466  0.0409
21753W        W38600  17.909   9.912   3.961  0.2864  0.0826 -0.1163
21754W        W38601   9.437   5.069   1.678 -0.1418 -0.1740 -0.3789
21755W        W38602  11.178   8.905   3.544  0.1427  0.0146 -0.1742
21756W        W38603   6.608  14.173  14.398 -0.2228  0.0043  0.1572
21757W        W38604   4.386  13.123   0.740 -0.1610  0.1235 -0.1969
21758W        W38605  11.316  14.683   4.926 -0.0605 -0.1791 -0.2151
21759W        W38606   7.141  13.391   4.714  0.2117 -0.2705  0.0331
21760W        W38607   1.023   3.245  11.072  0.1874 -0.1333 -0.0850
21761W        W38608  17.417  12.835  13.103 -0.0014 -0.0186  0.0549
21762W        W38609   2.975   0.808  11.321  0.0437  0.0483 -0.1790
21763W        W38610   6.597   2.549  13.101  0.2298 -0.2053  0.1981
21764W        W38611   5.497  17.215   0.177 -0.0516 -0.0094  0.0161
21765W        W38612   6.551  14.584  11.650  0.1499 -0.1656  0.1296
21766W        W38613  13.897   6.003  10.689  0.0120 -0.0912  0.1934
21767W        W38614   8.348  15.075  12.006  0.0887 -0.0708  0.1240
21768W        W38615   2.389   5.742  13.939  0.0132  0.2481 -0.0644
21769W        W38616   8.947   1.748   1.272 -0.0502  0.0857 -0.0656
21770W        W38617   0.747   6.874  14.922 -0.0581 -0.0466  0.1595
21771W        W38618  15.989   4.212  12.066 -0.2606 -0.4237 -0.0990
21772W        W38619  15.116   0.031   4.930  0.0014 -0.0417  0.1247
21773W        W38620   7.902  18.054   5.705 -0.0541  0.1019 -0.2095
21774W        W38621  15.433  13.341  13.412 -0.1393  0.0048  0.0209
21775W        W38622   8.728  17.700  15.577  0.1692 -0.0813 -0.1346
21776W        W38623   5.350  13.084  11.690  0.0424  0.2781  0.2239
21777W        W38624  18.278  10.194  14.223 -0.0066  0.2517  0.1159
21778W        W38625  16.457   2.811   2.996  0.0171 -0.3456 -0.0053
21779W        W38626   4.643  13.789  13.431  0.0881 -0.0049 -0.0602
21780W        W38627  14.794  11.705  15.143 -0.0076  0.2026  0.1697
21781W        W38628   0.151  12.107  10.366  0.0287 -0.2020 -0.0352
21782W        W38629   7.213  10.317   2.568 -0.2957 -0.0276 -0.0271
21783W        W38630  14.212   5.820   0.395 -0.1594  0.0235  0.0690
21784W        W38631  16.408  10.243   5.200 -0.0380 -0.1105  0.3593
21785W        W38632   6.698  11.431  15.572 -0.2064 -0.1484 -0.0882
21786W        W38633   4.200   9.936  14.946  0.1253  0.1506 -0.0269
21787W        W38634   8.822   1.442  14.562 -0.1172 -0.0681  0.5088
21788W        W38635  12.778  13.377  13.716 -0.3090  0.0563 -0.1179
21789W        W38636   7.978  16.294   4.878  0.0463 -0.4085  0.0723
21790W        W38637   5.560   2.788   0.188 -0.2722  0.4892  0.4205
21791W        W38638  10.485   6.948   1.350 -0.1696  0.0966 -0.0595
21792W        W38639  10.474  17.714  13.436 -0.1896  0.0008  0.1038
21793W        W38640  14.706  17.035  13.760 -0.1930  0.2017  0.5883
21794W        W38641   8.639   8.107  11.366  0.0731 -0.1691  0.1436
21795W        W38642  18.210   4.303  15.817  0.0307  0.1100  0.1514
21796W        W38643   7.646  15.628   0.884  0.3191 -0.1061  0.2386
21797W        W38644  16.966   1.440  15.168 -0.0409  0.2138 -0.2172
21798W        W38645   1.732   6.652  13.293 -0.3334 -0.0538 -0.1674
21799W        W38646   1.247   8.931   4.243 -0.0775 -0.0571 -0.1387
21800W        W38647  13.260  11.692   4.747 -0.0826  0.2195  0.3572
21801W        W38648  14.582  12.519  12.503  0.3223 -0.2628 -0.0928
21802W        W38649  14.047   7.677  13.466 -0.1592 -0.3354 -0.0399
21803W        W38650   7.456  16.546  14.594  0.1703  0.1548  0.0698
21804W        W38651   6.914  14.916   1.149 -0.0695 -0.0248  0.0471
21805W        W38652   6.725   7.793  14.397 -0.0576  0.0135  0.3152
21806W        W38653  14.681   9.999   1.081  0.4672 -0.0304 -0.3889
21807W        W38654  13.211   0.321   3.681  0.1066 -0.3725 -0.3072
21808W        W38655  13.378  14.295  11.894  0.1831  0.0157 -0.2468
21809W        W38656  15.280  11.626   0.987  0.2020  0.0285 -0.0746
21810W        W38657   9.954   8.909   2.709 -0.1717  0.3171  0.4102
21811W        W38658  14.910  14.438   3.616 -0.2231 -0.6431 -0.0718
21812W        W38659  17.801  10.462   2.370 -0.0427  0.1062 -0.0700
21813W        W38660   1.463  15.643   0.549  0.3014 -0.1805  0.3135
21814W        W38661  14.570  14.214   5.437  0.0781 -0.1562 -0.1259
21815W        W38662   3.407   2.261  15.356 -0.1153 -0.2422  0.0493
21816W        W38663  11.665  11.498  14.283 -0.0646  0.0039 -0.1099
21817W        W38664   6.558   6.868  12.764 -0.1720  0.1230 -0.1973
21818W        W38665  11.514   4.640  13.034  0.1053  0.2415  0.0605
21819W        W38666   9.541   8.303   0.293  0.0619  0.2126 -0.2907
21820W        W38667   4.543   0.040   4.094 -0.0512  0.1565 -0.1362
21821W        W38668  13.293   3.045  13.068 -0.1748  0.0540 -0.1394
21822W        W38669   4.313   1.497  14.824 -0.1899 -0.3750  0.0513
21823W        W38670   3.289  15.729   1.776 -0.1823  0.0995 -0.1304
21824W        W38671  13.624  17.279  12.824 -0.1441  0.3659  0.0329
21825W        W38672   7.521  14.949   4.279  0.0397 -0.5037  0.0938
21826W        W38673   6.857   0.039  15.140  0.0452  0.0133  0.0268
21827W        W38674  14.316   9.414   1.302  0.0056  0.2402 -0.0393
21828W        W38675   6.416  17.506  11.325 -0.1873 -0.0215 -0.2833
21829W        W38676  11.336  15.142   1.676  0.1845  0.3612 -0.1316
21830W        W38677   9.451   7.309  12.816  0.1263  0.3361 -0.0081
21831W        W38678  10.896   5.793  12.562 -0.3016 -0.3773  0.1044
21832W        W38679  12.962   5.652   0.284  0.2623  0.1135 -0.0986
21833W        W38680   4.085  17.851   1.993  0.0249 -0.0164  0.1187
21834W        W38681  11.264   3.528  14.398 -0.0276  0.4878 -0.1139
21835W        W38682  15.638  17.191  14.629 -0.0504  0.0376  0.0505
21836W        W38683   1.312   8.893   5.220 -0.0986  0.1652  0.0210
21837W        W38684   9.338  15.456   5.132 -0.0496  0.0376  0.0981
21838W        W38685  17.628   8.544   0.467  0.0968  0.0484 -0.0222
21839W        W38686   3.764   1.362  15.456 -0.2176 -0.0251 -0.2209
21840W        W38687   6.128   0.722  14.495  0.1619  0.1259 -0.1455
21841W        W38688  13.741  18.338  13.791  0.3085  0.0009 -0.1350
21842W        W38689   8.220  10.497   3.671 -0.2156 -0.1157 -0.0830
21843W        W38690   1.437   9.344  13.767  0.2233 -0.3604  0.1873
21844W        W38691   5.738  17.040  13.269 -0.0700  0.1187  0.0478
21845W        W38692  18.324   6.711   2.726 -0.0339 -0.1488 -0.1134
21846W        W38693   9.083  12.534   1.785 -0.1139  0.2313  0.0515
21847W        W38694   2.783  13.896  15.526  0.0187 -0.2257 -0.1512
21848W        W38695  15.604  11.298  14.158  0.0452  0.2326 -0.1542
21849W        W38696  13.991  16.865  13.458  0.3689  0.1890  0.0636
21850W        W38697  17.452  15.720  15.743  0.2586  0.0776  0.1767
21851W        W38698  13.856  14.400   6.009 -0.1082  0.0781  0.0165
21852W        W38699  11.394   5.847  10.840 -0.1246 -0.0826  0.0577
21853W        W38700   4.105  13.202  11.686  0.0938  0.0914 -0.1848
21854W        W38701   8.013  16.447  12.143 -0.1554 -0.0877  0.0997
21855W        W38702   9.802   7.652  14.870  0.0326  0.3674 -0.1593
21856W        W38703  14.317   1.206  11.460 -0.0514 -0.2287 -0.1423
21857W        W38704   3.428   9.655   4.542  0.1479 -0.1107  0.1262
21858W        W38705  16.533   7.747  13.953 -0.0387 -0.0373 -0.0351
21859W        W38706   7.289  16.855   5.402 -0.2285  0.0218 -0.0938
21860W        W38707  12.186   3.904   0.854 -0.0520 -0.0690 -0.2444
21861W        W38708  11.110   3.555   4.118  0.1223  0.2553 -0.0566
21862W        W38709   0.840  11.068   3.768  0.3242 -0.0264  0.0552
21863W        W38710  14.648  15.216   0.274 -0.0345 -0.1108 -0.1115
21864W        W38711   2.569   3.318  12.246  0.3204  0.2272 -0.0974
21865W        W38712  10.024  11.997   4.768 -0.2211  0.2594 -0.1522
21866W        W38713  17.410   7.995   2.377 -0.1543  0.2363 -0.1340
21867W        W38714   9.009   6.767  15.656 -0.1285  0.0120 -0.2188
21868W        W38715   7.998   0.820  10.693 -0.0265  0.2443  0.0100
21869W        W38716  13.455  15.678  12.594 -0.0712 -0.1401 -0.3490
21870W        W38717  11.664   6.324  12.566 -0.2942 -0.0520 -0.4222
21871W        W38718  12.992   0.405  14.305 -0.1556 -0.0292 -0.1939
21872W        W38719  13.938   2.186  13.560 -0.1783  0.0573  0.1903
21873W        W38720   5.004   4.827   2.355 -0.1862  0.2330  0.0428
21874W        W38721   7.761  11.618  10.868 -0.0046  0.0026 -0.0611
21875W        W38722   6.333   9.585   3.973  0.0166 -0.2147 -0.3421
21876W        W38723   9.713  11.054  12.376  0.0091 -0.0437  0.0125
21877W        W38724  12.466  16.941   1.479  0.2487 -0.0999 -0.0562
21878W        W38725  10.139   1.729  11.344 -0.1559 -0.0564  0.0694
21879W        W38726  10.166  15.581   0.155  0.3875  0.1296  0.1074
21880W        W38727  14.537  10.131  15.310  0.1839  0.0152  0.0938
21881W        W38728  10.593   9.790   5.683  0.4032  0.0692 -0.0243
21882W        W38729  14.797   6.329   9.557  0.0428  0.1316  0.2256
21883W        W38730  10.880  18.130  14.055  0.0126 -0.2941  0.0604
21884W        W38731   2.247  14.184   0.985  0.0954 -0.0234 -0.1593
21885W        W38732   3.020  14.913   5.469  0.2104  0.0776  0.2088
21886W        W38733   6.681  11.886   2.179 -0.2908 -0.0755  0.1058
21887W        W38734  11.516   4.788   3.782 -0.1614  0.1422 -0.1085
21888W        W38735   7.873  15.793  14.143 -0.0555 -0.1649 -0.1129
21889W        W38736   4.885   5.826   4.110  0.1050  0.1081  0.1446
21890W        W38737  15.071  13.928  13.896  0.1490  0.0957 -0.3208
21891W        W38738  15.707   3.136  12.742 -0.2859 -0.2267  0.1260
21892W        W38739   1.946  15.609  14.559  0.1520 -0.0553  0.1888
21893W        W38740   2.275   3.488   0.280 -0.1201 -0.3513 -0.3178
21894W        W38741   3.819  10.296   5.080  0.0838  0.2209  0.0424
21895W        W38742  16.518  11.687  11.865  0.1260 -0.1080 -0.0763
21896W        W38743   3.624  18.297  13.983  0.1484  0.1679  0.2272
21897W        W38744   0.606  12.363   1.628  0.0687  0.2204  0.3349
21898W        W38745   1.160  13.607   2.801 -0.2395  0.0156 -0.1078
21899W        W38746   6.221   1.058  11.259  0.1195  0.0061  0.3211
21900W        W38747   6.787   8.312  12.627  0.1211 -0.2166  0.0591
21901W        W38748   1.510   9.324  14.414 -0.0936  0.1566 -0.1891
21902W        W38749   7.056   9.288   2.950  0.1326  0.1285 -0.0972
21903W        W38750   4.410   0.071   5.324  0.0176  0.3231 -0.0411
21904W        W38751   3.736   9.675  13.315  0.1873 -0.1354 -0.0833
21905W        W38752   7.867  10.614   4.883 -0.2687  0.0358 -0.0339
21906W        W38753  13.776   4.891   0.362 -0.1353 -0.0074  0.0720
21907W        W38754  16.645  17.571  12.516 -0.0340 -0.0636 -0.2457
21908W        W38755  10.493  11.083  11.247 -0.0316 -0.1524  0.1539
21909W        W38756   4.061   0.939  15.474 -0.0513  0.1392 -0.1324
21910W        W38757   6.007   9.783   5.360 -0.2191  0.2745 -0.0557
21911W        W38758   7.205   4.541  14.238 -0.1508 -0.3298  0.1113
21912W        W38759  17.932  13.284  14.401 -0.1370  0.2953 -0.1233
21913W        W38760   2.997   2.037  14.466 -0.3432  0.0218 -0.0832
21914W        W38761  18.372   9.457  15.544  0.1069  0.0468  0.0448
21915W        W38762  18.236   3.914   4.949 -0.0147  0.0141  0.1382
21916W        W38763  18.387   3.481   4.038 -0.4907  0.0733  0.0651
21917W        W38764  11.586   4.713   4.893 -0.0430  0.3357  0.0608
21918W        W38765  10.056  10.886   5.578 -0.3700 -0.0955  0.0226
21919W        W38766   3.824   7.210   0.325 -0.2050  0.0118  0.0822
21920W        W38767   5.077   1.705  13.244 -0.3449 -0.1731  0.2274
21921W        W38768   2.650  12.335   2.296 -0.1278 -0.0475 -0.0669
21922W        W38769  18.448  14.075   0.413  0.0377 -0.0480  0.0774
21923W        W38770  16.903   6.624   0.139 -0.0714  0.2403  0.0186
21924W        W38771   9.708   5.927   3.879  0.5072 -0.3611 -0.2540
21925W        W38772  13.465   9.424   0.799  0.1697 -0.0599  0.0357
21926W        W38773   9.225  11.186  15.569 -0.1155  0.2363 -0.3624
21927W        W38774   7.997   5.437   3.774  0.0140  0.2344  0.1800
21928W        W38775   8.492  13.005   3.040  0.1324 -0.1683  0.3801
21929W        W38776   0.773  16.257  12.973 -0.2399 -0.1248 -0.1422
21930W        W38777  10.699   2.403  14.190  0.0565  0.0736  0.0279
21931W        W38778   0.114  13.329   0.720 -0.0042 -0.0665  0.0487
21932W        W38779   9.557  13.159  14.423  0.0584  0.0744  0.2194
21933W        W38780   8.338   5.423  15.630 -0.3094  0.0390  0.2065
21934W        W38781   2.702   4.816  11.007 -0.1274 -0.2759 -0.3596
21935W        W38782  17.686   1.187  13.580 -0.0109  0.0370  0.1846
21936W        W38783   4.377   7.757  12.453 -0.2347  0.1733  0.1904
21937W        W38784  15.594  10.571   1.733  0.1770 -0.0781  0.0975
21938W        W38785  15.792  13.612  11.634  0.1629  0.0338  0.1749
21939W        W38786  17.836   6.994  14.690  0.0640 -0.0522  0.0343
21940W        W38787  13.134  15.316  14.267  0.0208  0.1103  0.1453
21941W        W38788  13.926  16.515   4.231 -0.0791  0.2529 -0.1561
21942W        W38789  14.268   2.204   1.565 -0.1075 -0.2333 -0.1706
21943W        W38790  16.025   7.204   0.128  0.1452 -0.2472 -0.0297
21944W        W38791  13.688   9.997   0.313 -0.1803  0.2084  0.2557
21945W        W38792   8.215  11.820   5.573 -0.3802 -0.2555 -0.1539
21946W        W38793  17.576   8.973  11.612  0.0178 -0.0719  0.1660
21947W        W38794   2.460   1.757  12.957  0.0896 -0.1404 -0.0834
21948W        W38795  14.609   2.053   3.990  0.1456 -0.0047 -0.3674
21949W        W38796   3.757   8.277   5.651 -0.1770  0.2991 -0.1794
21950W        W38797   6.600  14.959   4.621 -0.1177  0.1281  0.1902
21951W        W38798   4.136  11.401  11.399  0.1470 -0.0648 -0.3276
21952W        W38799   5.358   5.209  11.261  0.2623 -0.0013 -0.0357
21953W        W38800  11.875  14.453  11.442 -0.0512 -0.1787 -0.2121
21954W        W38801   8.503  13.049   4.556 -0.0227  0.1642  0.0057
21955W        W38802  15.524   1.834  11.376 -0.2847  0.1218  0.0606
21956W        W38803  14.423  13.366  12.011 -0.0499  0.1611  0.0021
21957W        W38804  12.392  10.958  14.041 -0.1628 -0.0432  0.2554
21958W        W38805   9.884   9.151   1.800 -0.1022 -0.1067 -0.0184
21959W        W38806  16.657   9.277   2.981  0.0719 -0.2061 -0.1618
21960W        W38807  17.407   3.023   3.039 -0.1889  0.0925  0.0866
21961W        W38808  16.197  15.805   2.438  0.0667  0.0747 -0.0414
21962W        W38809  16.699   6.828  11.763  0.0490  0.0582  0.0940
21963W        W38810  10.945  16.570   2.025  0.0478  0.0319 -0.3995
21964W        W38811  16.277  10.076   4.220 -0.0287  0.0309 -0.2436
21965W        W38812  12.006   8.300   0.126 -0.1785  0.0482  0.0313
21966W        W38813   7.904   8.516   0.887  0.0656  0.3158 -0.0696
21967W        W38814   7.419   4.638   5.692  0.1875  0.0232 -0.2100
21968W        W38815   4.710   6.141   0.095 -0.4265  0.1127  0.0553
21969W        W38816   6.926   2.900   3.184 -0.2816  0.2344  0.0743
21970W        W38817  18.388   8.853  11.158  0.0932  0.0407 -0.2756
21971W        W38818  10.989   5.312   2.841 -0.0440  0.1057 -0.0860
21972W        W38819  12.269   5.111  14.028  0.2298  0.0001 -0.0787
21973W        W38820   0.472   4.619   4.021  0.1251  0.0972  0.4102
21974W        W38821   5.352  12.922  13.669  0.4114 -0.0739 -0.2538
21975W        W38822   5.580  16.300  13.061  0.3707  0.3196  0.1520
21976W        W38823  16.702  16.055  13.552  0.0788 -0.1285  0.0425
21977W        W38824  14.350  16.914  11.776 -0.0070 -0.2706  0.1522
21978W        W38825   9.285  18.405  11.287  0.1925 -0.0406  0.3086
21979W        W38826   7.102   3.085   1.578  0.0484 -0.0310  0.3542
21980W        W38827   5.029  10.371  13.631  0.3441  0.3705 -0.2634
21981W        W38828  11.567  13.945  13.969  0.1794 -0.2327  0.0674
21982W        W38829   9.657   6.026   0.933  0.1557  0.4781  0.0824
21983W        W38830  12.431  11.846  11.849 -0.0991  0.0889  0.1419
21984W        W38831   2.248  11.393   2.214  0.0093  0.0070 -0.1519
21985W        W38832  14.744   4.693   1.120 -0.0750 -0.0018  0.1160
21986W        W38833  15.556   1.978   4.387  0.1555 -0.0943  0.2390
21987W        W38834  18.403   4.097  11.340 -0.3152  0.1989  0.0104
21988W        W38835   2.661   1.206   4.107 -0.2440 -0.1090 -0.2710
21989W        W38836   1.442   2.002   2.506  0.1592  0.2210 -0.2042
21990W        W38837  15.756   3.357   2.396  0.3244 -0.2126  0.1324
21991W        W38838  10.359  16.595   1.806  0.0883 -0.0313 -0.0046
21992W        W38839   8.771  17.780  14.233 -0.2576 -0.1764  0.1610
21993W        W38840  12.832   4.728  15.379 -0.0023  0.3142  0.1151
21994W        W38841   7.933   6.265   3.103  0.1032  0.2216  0.0709
21995W        W38842  10.032   3.149   5.274  0.1818 -0.3623  0.2291
21996W        W38843  12.591   9.211   0.747  0.4429  0.0265 -0.2569
21997W        W38844  17.472   2.185   4.165  0.2442 -0.0352  0.1368
21998W        W38845   0.161   5.830  12.621 -0.0078  0.2227 -0.0887
21999W        W38846  11.397   0.092  13.604  0.0588  0.2700  0.0220
22000W        W38847   0.836  15.625   0.327 -0.3694  0.0395 -0.0998
22001W        W38848   7.544  14.537   4.648 -0.2553 -0.1497  0.0150
22002W        W38849  15.438   2.794   4.763  0.1348  0.1591  0.1473
22003W        W38850  12.006   2.658  11.997 -0.0029  0.4276  0.1434
22004W        W38851  17.158  18.396  12.275 -0.0033 -0.1779 -0.1677
22005W        W38852  15.041  10.367   0.935  0.2969  0.1853  0.1028
22006W        W38853  15.240  17.818  12.235 -0.0238  0.1049  0.0820
22007W        W38854  15.079  17.727  14.608 -0.0122 -0.1158  0.0682
22008W        W38855  18.203  17.585   0.759  0.0235 -0.3475 -0.2432
22009W        W38856   5.061   6.150  13.049  0.1597 -0.3536  0.1991
22010W        W38857  17.173   1.032   1.249  0.1751 -0.1563 -0.1078
22011W        W38858  11.546  13.206   4.522 -0.1110 -0.1246 -0.0794
22012W        W38859  14.663  17.242  11.407  0.2761 -0.0568  0.0080
22013W        W38860  17.772   5.992  12.173 -0.0190  0.0021  0.0271
22014W        W38861  17.284  17.073  14.163 -0.2129  0.0872  0.5840
22015W        W38862  15.613  17.241   4.203  0.0741  0.0717  0.1602
22016W        W38863  17.181   2.263  13.162  0.1080 -0.1082  0.0940
22017W        W38864   6.030  16.060   4.496  0.0273  0.1674  0.1916
22018W        W38865   3.997  17.534  11.916  0.2296 -0.2318  0.1397
22019W        W38866   9.709   3.763   2.263  0.2592 -0.2847  0.0233
22020W        W38867   1.608  17.095   5.031  0.4012  0.1440 -0.1459
22021W        W38868  12.866   0.983  14.787  0.0699  0.2015  0.3059
22022W        W38869   1.740  16.434   2.687 -0.3303 -0.0687 -0.3279
22023W        W38870  12.788   3.792   1.525  0.2611  0.0534  0.2768
22024W        W38871   4.401   5.834   2.948 -0.1241 -0.3347  0.2310
22025W        W38872   9.652   4.575   1.848  0.0246  0.1268  0.0521
22026W        W38873   2.508  17.631   4.884  0.2507 -0.0969  0.2071
22027W        W38874   0.804   3.193  12.320 -0.1348  0.0752  0.0628
22028W        W38875  10.827  13.888  14.598 -0.1243 -0.1092 -0.0767
22029W        W38876  17.128   6.330   3.484 -0.0520  0.0033 -0.1578
22030W        W38877  14.579   0.817  12.919  0.1970 -0.2372  0.0708
22031W        W38878   8.141  12.276   0.230  0.0112 -0.1865  0.1378
22032W        W38879  10.431   8.018  10.783 -0.1103 -0.3840  0.2104
22033W        W38880   3.479  13.054   4.805  0.1691 -0.0234  0.1591
22034W        W38881   8.856  16.603  12.745 -0.1457 -0.0625  0.0336
22035W        W38882   6.399   5.725   0.956  0.0829 -0.0553 -0.2004
22036W        W38883   8.378   0.214   1.441 -0.1679  0.1372  0.0304
22037W        W38884   7.302   7.472   0.514  0.1534 -0.1623 -0.0722
22038W        W38885   1.572  18.189  14.792  0.0060  0.0379  0.4155
22039W        W38886  12.399   9.234   2.556  0.3773  0.0150 -0.3448
22040W        W38887   8.786  12.945   1.659  0.0685  0.0012 -0.1707
22041W        W38888   7.704  11.709  11.387  0.2352 -0.0011  0.0981
22042W        W38889   0.341  17.074  13.798 -0.2343 -0.3096 -0.2981
22043W        W38890   1.848   7.710  10.495  0.0703 -0.1134 -0.1659
22044W        W38891   9.848  13.017  14.989 -0.0592  0.2683 -0.2211
22045W        W38892  16.496  13.003   3.338  0.2499  0.0927  0.0649
22046W        W38893  13.657   1.287   1.347 -0.1567  0.0047  0.3101
22047W        W38894   8.701   6.954  14.204  0.1238  0.1009 -0.0489
22048W        W38895   6.541   3.239  14.453 -0.0068  0.2550  0.0163
22049W        W38896   8.216   3.143  14.166  0.1683  0.1262 -0.0576
22050W        W38897  17.592   0.087  14.459  0.2061  0.1442  0.0606
22051W        W38898  14.080   3.466  13.849  0.1027 -0.2505  0.1076
22052W        W38899  11.404  11.632  14.742  0.0793  0.1679 -0.2083
22053W        W38900   9.893  15.391  11.159  0.0514 -0.1992  0.0187
22054W        W38901  14.915  12.257  15.287  0.1908  0.1017 -0.0481
22055W        W38902  14.456   1.930   2.015 -0.1463  0.0106 -0.3980
22056W        W38903   2.453  12.166  13.997 -0.3299 -0.0905 -0.2353
22057W        W38904  11.249   2.952  11.930 -0.1932 -0.1936  0.0509
22058W        W38905  11.220  10.640   3.240  0.1618 -0.0227  0.3197
22059W        W38906   4.724  14.601  13.789 -0.3095  0.0232 -0.1164
22060W        W38907  12.399   0.709  11.311  0.5648  0.0951 -0.0129
22061W        W38908  12.590  14.233   2.424  0.0046 -0.1482  0.1971
22062W        W38909  12.840  12.394   2.752 -0.1450 -0.1207 -0.3384
22063W        W38910   1.892  11.824  12.160  0.2132 -0.3034  0.1529
22064W        W38911   6.539   2.553   5.168 -0.1857 -0.0880 -0.0239
22065W        W38912  16.007   1.068   0.978  0.1595  0.0489  0.0495
22066W        W38913  17.719  10.910  14.772  0.1724 -0.0005  0.0442
22067W        W38914  14.179   2.819  11.518  0.0886  0.1778 -0.1175
22068W        W38915   8.925   8.530   2.250  0.0774  0.0435 -0.0686
22069W        W38916   6.278   2.472  11.927  0.1450 -0.1448  0.0819
22070W        W38917   2.362   4.934  14.110  0.0522 -0.1901  0.0521
22071W        W38918   5.527  16.240   1.575 -0.0108  0.0729  0.3541
22072W        W38919  11.226  18.351  15.273  0.0109  0.0040 -0.1834
22073W        W38920   6.282  16.941  12.636 -0.1386 -0.3171  0.0769
22074W        W38921  12.139   1.046  11.562 -0.0907 -0.2902  0.2323
22075W        W38922  10.118  10.284   0.044 -0.1116 -0.0211 -0.1303
22076W        W38923   1.888  16.976   2.209 -0.0706  0.1461  0.0644
22077W        W38924   5.591  16.149   0.216 -0.0126  0.0690  0.1808
22078W        W38925  10.496   4.158  11.433  0.0884 -0.1227  0.2181
22079W        W38926  15.782  13.903   2.221  0.2044 -0.0379  0.0255
22080W        W38927   1.600   5.247   2.894  0.2871  0.2454 -0.0005
22081W        W38928   1.682  16.390   0.260  0.0460  0.1688  0.0739
22082W        W38929   6.445   8.874  15.196 -0.0823 -0.0015 -0.0378
22083W        W38930   1.761  16.551   3.581  0.0327  0.0078  0.1938
22084W        W38931   9.882  16.798  14.200  0.0046 -0.0451  0.0107
22085W        W38932  17.582   0.984  11.984  0.3755  0.1705 -0.0391
22086W        W38933  18.313   8.222   5.756  0.0332  0.2839 -0.2473
22087W        W38934   2.654  15.364  13.703  0.0673  0.1626 -0.0326
22088W        W38935  12.554  11.165   3.845  0.0313 -0.0300 -0.0556
22089W        W38936   8.811  13.504   4.602 -0.1218 -0.2652 -0.0479
22090W        W38937   9.062   8.505  13.989  0.2907 -0.1229 -0.1400
22091W        W38938   2.649  18.262   3.093  0.0061  0.0098 -0.1625
22092W        W38939   8.748  10.032   3.037  0.1355 -0.2695  0.2290
22093W        W38940   7.280   5.088  12.767 -0.4595  0.0212 -0.0541
22094W        W38941   1.061  14.035  10.908  0.0342  0.0405  0.3760
22095W        W38942  14.731   2.423   3.622  0.0088  0.0823  0.1702
22096W        W38943   5.721   2.115   4.699 -0.0916  0.0575  0.2440
22097W        W38944   0.041  11.598  14.567 -0.1287  0.4850 -0.2463
22098W        W38945   2.684   4.370   3.915  0.0588 -0.4831 -0.2058
22099W        W38946  18.444  15.955  11.965 -0.1259 -0.0830  0.0621
22100W        W38947  17.037   6.124  13.306  0.3431 -0.1521  0.1526
22101W        W38948   1.407  10.404  14.698  0.0598 -0.1877 -0.1593
22102W        W38949  12.964   3.204   4.088  0.1219 -0.0485  0.1262
22103W        W38950  12.875  17.208   0.350 -0.1854 -0.0577 -0.1210
22104W        W38951   7.063  18.237   4.210 -0.2137  0.1612 -0.1374
22105W        W38952   3.241   9.573  15.585 -0.2305 -0.0996 -0.1217
22106W        W38953  12.890   2.397  14.285 -0.1524  0.3745  0.0852
22107W        W38954   2.978  15.352  13.301 -0.0629  0.1421 -0.0289
22108W        W38955  15.153  17.100   4.330 -0.1516 -0.0302  0.2764
22109W        W38956  12.416   4.202  11.532  0.2006 -0.4451 -0.0926
22110W        W38957   9.485   8.560   2.951 -0.2302 -0.0342 -0.0336
22111W        W38958   8.845   4.936  12.523 -0.1107 -0.0747 -0.3292
22112W        W38959   2.505   1.864   5.288 -0.1480  0.1509  0.1487
22113W        W38960   2.578  18.369   6.037 -0.0534 -0.1564  0.1804
22114W        W38961  10.854   2.413  13.337  0.2060  0.0813  0.2172
22115W        W38962   1.539  16.228   4.702  0.1976 -0.2209 -0.2977
22116W        W38963   5.418   4.667  14.927 -0.1836  0.4325  0.0110
22117W        W38964  15.829  16.268  15.108 -0.0259  0.3158 -0.0055
22118W        W38965   1.724   3.215  14.774 -0.1981 -0.0309 -0.1397
22119W        W38966   1.369   3.816   3.663 -0.0953 -0.1529  0.1634
22120W        W38967   0.403   1.246  13.371  0.4857  0.2231  0.3593
22121W        W38968  16.432  17.553  13.347  0.4065  0.2150  0.0211
22122W        W38969  10.725  16.542  12.718 -0.0021  0.0944 -0.1161
22123W        W38970   5.106  17.625   2.436  0.4208 -0.0752 -0.0672
22124W        W38971  16.365   5.461   0.157  0.0823  0.1052  0.1257
22125W        W38972  13.347   1.324  15.210  0.1540 -0.0977 -0.2802
22126W        W38973  16.030  14.523   5.330 -0.0115  0.0397  0.2985
22127W        W38974  11.890   0.198  13.590  0.0291 -0.0067  0.1372
22128W        W38975   7.518  11.576   4.335 -0.1664 -0.1771  0.1748
22129W        W38976  13.056  14.209   4.068 -0.0563 -0.2070  0.1261
22130W        W38977  12.310  17.857  13.012 -0.0420 -0.2449 -0.1910
22131W        W38978  15.020  10.925  11.896 -0.2521 -0.2662  0.1452
22132W        W38979  16.163   4.288   4.675 -0.0161  0.1354  0.2251
22133W        W38980   8.927  14.954  13.207 -0.0673 -0.2080 -0.1814
22134W        W38981  10.110   2.318   1.435  0.0810 -0.0505 -0.1109
22135W        W38982  13.799   2.046  11.420 -0.6235 -0.3461  0.1691
22136W        W38983   5.451  13.355   5.699 -0.3597  0.0542 -0.0054
22137W        W38984  11.104   1.512  13.932 -0.1190 -0.1618  0.3101
22138W        W38985   8.972   4.900   1.436 -0.1843  0.0465  0.2105
22139W        W38986   4.553   1.917  13.452  0.0251 -0.0986 -0.0366
22140W        W38987   8.317  11.485   1.216  0.1471 -0.0211 -0.3539
22141W        W38988   2.188  11.822  14.475 -0.1250 -0.0708 -0.2532
22142W        W38989  16.752   0.413   0.828 -0.0475  0.0821  0.1594
22143W        W38990   9.057   7.831   2.971  0.0200 -0.1773 -0.3827
22144W        W38991   0.137   6.947   1.456  0.0439  0.0473  0.3483
22145W        W38992  15.640  17.689  13.900 -0.0515  0.3927 -0.2592
22146W        W38993  18.035  15.005  13.353 -0.1539  0.1589 -0.1675
22147W        W38994  14.318   6.738   0.419 -0.0482 -0.1448  0.1598
22148W        W38995  10.575   6.423   3.968 -0.0471  0.2659  0.2341
22149W        W38996   1.434   0.059   3.339 -0.0497 -0.0163 -0.0890
22150W        W38997  18.436   4.143  12.828 -0.2196 -0.1901  0.1946
22151W        W38998   5.032  14.509  13.445 -0.1005 -0.0316  0.1801
22152W        W38999   0.166   9.570  14.640 -0.0987 -0.0308 -0.1850
22153W        W39000  18.191   8.482   0.561 -0.1421 -0.2711  0.2984
22154W        W39001  12.392  17.871  12.491 -0.0446  0.3580 -0.1079
22155W        W39002   1.681   0.876  13.435  0.1415 -0.1503  0.0676
22156W        W39003  11.723  14.088   2.593  0.3217  0.0363  0.1431
22157W        W39004  10.163  14.498   4.116 -0.0060  0.2088  0.1191
22158W        W39005   3.797  12.576  13.703  0.2463 -0.2408 -0.0462
22159W        W39006  11.138   9.883   4.629 -0.2183  0.0925 -0.0098
22160W        W39007  14.406  14.630   4.614 -0.2915 -0.1524  0.1234
22161W        W39008   7.646   1.120  10.941  0.1573  0.0429 -0.0494
22162W        W39009  10.763   7.269   1.647  0.2711 -0.0959 -0.1569
22163W        W39010   6.154  14.727   3.298 -0.3644  0.0493  0.0056
22164W        W39011  13.259   6.971   3.544  0.1542  0.1767  0.1114
22165W        W39012  16.662   8.031   1.867 -0.1612  0.1258 -0.1392
22166W        W39013  17.337  17.771  11.545 -0.3302  0.3155 -0.0700
22167W        W39014   1.241   5.230  13.619 -0.1393 -0.0369  0.0626
22168W        W39015   1.512  17.388   1.942  0.0215 -0.4001  0.2853
22169W        W39016   2.140  12.245   2.293 -0.0534  0.2980 -0.1299
22170W        W39017  16.953   4.515   2.916 -0.0745 -0.0276 -0.1846
22171W        W39018  10.057   0.492   0.731  0.2498  0.0795  0.3383
22172W        W39019  12.024  12.582   4.893 -0.0375  0.2286  0.0294
22173W        W39020   9.667   5.327  11.584 -0.1895  0.0082 -0.0963
22174W        W39021   5.445   1.913   2.634 -0.0237 -0.0024  0.0464
22175W        W39022  14.509   3.045   4.338  0.0922  0.0545 -0.1145
22176W        W39023  15.042   6.004   5.263  0.0170  0.1313 -0.0087
22177W        W39024   1.018   7.295   3.802 -0.0742 -0.1488  0.0866
22178W        W39025   1.954   5.300  15.830  0.0879 -0.1067  0.0026
22179W        W39026   6.421  10.392   0.182  0.0060  0.3289  0.0896
22180W        W39027   8.750   5.638   1.631 -0.0199  0.1075 -0.1108
22181W        W39028   2.047   0.790  14.793  0.1218 -0.3937  0.5088
22182W        W39029  14.318   0.206  15.816 -0.1505 -0.3121 -0.2100
22183W        W39030  16.059  15.415   2.888  0.1531  0.2141 -0.0144
22184W        W39031   9.161  13.282  12.872 -0.0109  0.2298 -0.2906
22185W        W39032  10.056   1.786   1.257  0.0489 -0.0459 -0.1074
22186W        W39033   2.338   1.885   2.569  0.4293 -0.2719  0.0539
22187W        W39034  13.702  11.214  13.019 -0.0905  0.3960  0.2149
22188W        W39035   7.266   5.160   0.755 -0.1690  0.0246  0.0222
22189W        W39036   9.964   9.745  15.182 -0.3403  0.1308  0.2220
22190W        W39037  12.152   5.424   3.336  0.1329 -0.1358 -0.3761
22191W        W39038   4.678  15.227   3.433  0.0237 -0.0258 -0.1684
22192W        W39039   3.266  16.057   3.282  0.0927  0.1566 -0.1302
22193W        W39040  15.923   0.376   0.433  0.0445 -0.3988 -0.2873
22194W        W39041   6.964  13.698  11.539 -0.1121 -0.0297  0.1397
22195W        W39042   2.004  10.024  15.434  0.0484 -0.0309  0.4688
22196W        W39043   6.414  14.099   1.442 -0.1447 -0.1868 -0.2768
22197W        W39044  15.442   1.893  12.012  0.0063 -0.0515  0.0919
22198W        W39045   4.854  11.887  12.734  0.0240 -0.2756  0.3562
22199W        W39046   5.665  13.889   3.019 -0.1324 -0.1732  0.0911
22200W        W39047   4.751  17.457   0.687  0.0611  0.0755  0.1377
22201W        W39048   4.768  10.254  14.021  0.0442  0.1326  0.0100
22202W        W39049  12.019   4.357  12.691  0.0697 -0.4582  0.0042
22203W        W39050   5.123  16.638   1.280  0.1966  0.2378  0.0289
22204W        W39051   9.185   4.936   4.507  0.4176  0.1068  0.2597
22205W        W39052  11.153  16.552   3.551 -0.0240  0.1190  0.0420
22206W        W39053   9.445  14.418   1.444 -0.2293 -0.0613 -0.3811
22207W        W39054  14.765   4.189   5.622 -0.2718 -0.1117  0.0883
22208W        W39055   1.448   2.493   5.064  0.3788  0.0569  0.2659
22209W        W39056   3.621   1.094   1.389 -0.1959  0.0371 -0.0327
22210W        W39057  13.291   2.834  12.162 -0.0305  0.5940  0.0136
22211W        W39058  15.693   8.585   0.167  0.0054 -0.1304 -0.1401
22212W        W39059   4.623  16.771   1.190 -0.0462 -0.1052 -0.0861
22213W        W39060  16.569  18.357  11.572 -0.2554  0.0174 -0.2396
22214W        W39061   1.662  14.349   1.665 -0.1463 -0.2719  0.2465
22215W        W39062  17.298   7.904  12.230  0.0185 -0.1501 -0.0293
22216W        W39063   5.334   2.391   0.832 -0.0566 -0.0717  0.0754
22217W        W39064   4.078   4.705   3.522 -0.1193 -0.1590 -0.2772
22218W        W39065  10.701   5.864   4.083  0.1722 -0.0965  0.0827
22219W        W39066  13.515  13.902  12.157  0.1271  0.0764 -0.0081
22220W        W39067   2.463   4.845   3.246  0.0537  0.0358 -0.1178
22221W        W39068   6.662   8.864   5.319 -0.0138 -0.0326  0.2046
22222W        W39069   8.299  17.660  11.106 -0.1647  0.2841 -0.0705
22223W        W39070  13.784  15.707  12.249  0.1472  0.0728  0.0285
22224W        W39071   1.659   7.435  14.743 -0.4230 -0.2253 -0.0720
22225W        W39072   2.382  13.626  15.941 -0.0150  0.2275 -0.1688
22226W        W39073  16.431   8.953  14.845 -0.0581 -0.0194 -0.2170
22227W        W39074  11.297   3.056   3.883  0.0816  0.1227  0.2283
22228W        W39075  16.613   4.789  11.167 -0.4214 -0.0226 -0.0538
22229W        W39076  14.842  10.399  12.940 -0.1388  0.1896 -0.2877
22230W        W39077   3.908  13.310  12.133 -0.0510  0.1321 -0.1540
22231W        W39078   2.379  13.615   5.577  0.0747  0.1811  0.3686
22232W        W39079   5.121  11.841   0.912  0.1238 -0.0754  0.1432
22233W        W39080   0.135   0.517  14.613  0.0245 -0.0433 -0.0505
22234W        W39081   9.785  18.433  11.149  0.1348  0.0045  0.4648
22235W        W39082   9.273  14.119  13.351  0.0779  0.1051  0.0794
22236W        W39083   7.966  16.994   1.059  0.2534 -0.1891  0.1006
22237W        W39084   5.951   4.263   4.016  0.0334 -0.4206  0.0155
22238W        W39085   5.771  13.242   4.586 -0.3151  0.0358  0.0134
22239W        W39086   7.101  14.410   1.011 -0.0541  0.0599 -0.1237
22240W        W39087   7.408   8.206   4.290 -0.3035  0.1226 -0.3367
22241W        W39088   3.331   6.318   5.189 -0.2141  0.0543 -0.1377
22242W        W39089   5.871  17.970  12.043  0.2418 -0.0247  0.0819
22243W        W39090  18.034   6.000  11.376 -0.0522  0.1780  0.1097
22244W        W39091  12.075   2.463   5.453 -0.0445 -0.0030 -0.1890
22245W        W39092   4.558   7.390   3.150  0.0250 -0.0321 -0.0687
22246W        W39093   9.012   9.357  14.607 -0.0665  0.1506 -0.2425
22247W        W39094  17.169  11.400  11.440  0.1089  0.0643  0.0234
22248W        W39095  14.394  17.033   0.468 -0.0526 -0.2047  0.0443
22249W        W39096   8.772  16.744  13.414 -0.1088 -0.0819  0.0949
22250W        W39097   3.291   4.054   5.435  0.2324  0.0427  0.0111
22251W        W39098   5.188  15.509  14.045 -0.1709  0.4234 -0.3262
22252W        W39099   4.601  14.127   1.010 -0.1031 -0.1082 -0.0812
22253W        W39100  13.793   9.363  15.224  0.2434 -0.1627  0.1144
22254W        W39101  17.459  14.957   5.089 -0.0158  0.2707  0.3164
22255W        W39102   7.841   3.948  15.017 -0.1433  0.0132 -0.0140
22256W        W39103  16.894  11.047   0.771  0.1583  0.0215 -0.0071
22257W        W39104  10.798   8.078  11.121 -0.1442 -0.2265 -0.0277
22258W        W39105  10.116   5.139  11.484 -0.3298  0.0033 -0.2353
22259W        W39106   0.391  12.648   4.161  0.3073 -0.0843 -0.1237
22260W        W39107   3.898  15.022   1.418 -0.0246  0.3670 -0.1913
22261W        W39108  12.268  14.382   1.636  0.2232  0.0020 -0.2912
22262W        W39109   6.938   9.608  12.254 -0.1194  0.1893  0.1137
22263W        W39110   8.319  17.495   1.148  0.0338  0.1685  0.0700
22264W        W39111   8.354  10.669  15.662  0.3249 -0.3569 -0.0698
22265W        W39112   3.681   9.792   0.918  0.0807  0.1367  0.2636
22266W        W39113   0.032  16.564   0.020  0.2505 -0.1167 -0.2309
22267W        W39114   7.565   8.426  13.054  0.0523 -0.0995 -0.1614
22268W        W39115   1.724   8.879  15.331  0.0273  0.2103  0.0530
22269W        W39116   1.249   6.949   2.992  0.1228  0.1212 -0.0013
22270W        W39117  12.285  18.379  12.030  0.2571 -0.0721 -0.2207
22271W        W39118   6.856  11.179   4.491 -0.0436 -0.0720 -0.1947
22272W        W39119   0.146   7.749   3.627  0.1788  0.0376 -0.2415
22273W        W39120  12.812   8.827   5.900  0.0072  0.2815 -0.2986
22274W        W39121   2.786   2.125   1.775  0.1546  0.1838 -0.1304
22275W        W39122   4.220  13.500   0.264 -0.1295 -0.0927 -0.1714
22276W        W39123   1.339   5.138   4.233  0.0424 -0.2121  0.0474
22277W        W39124   6.739   1.206  15.476  0.0272  0.1390 -0.1855
22278W        W39125  17.763   1.824  11.724 -0.0275 -0.0436 -0.1215
22279W        W39126  11.303   5.627  10.063  0.3741 -0.0965  0.1829
22280W        W39127   6.153   1.321  13.046  0.0601  0.0122 -0.1053
22281W        W39128  13.937   6.779  11.077  0.0347 -0.2225  0.1772
22282W        W39129   5.365  10.386   0.540 -0.1901  0.1308 -0.0327
22283W        W39130   2.170  11.818   1.973  0.0380  0.0106 -0.1110
22284W        W39131  14.001   9.074   4.697  0.0007  0.0361 -0.1880
22285W        W39132  17.652  12.795  11.874 -0.3512  0.0435  0.1425
22286W        W39133  13.064  18.396   4.251 -0.2722 -0.0005 -0.2855
22287W        W39134  12.066  13.965   2.135 -0.0618 -0.1341 -0.3309
22288W        W39135   3.770   1.673  15.938 -0.4106 -0.0020  0.1729
22289W        W39136  17.462  15.112   4.523 -0.1431 -0.2679 -0.0327
22290W        W39137   4.389  15.353  11.341  0.1599 -0.0207  0.0502
22291W        W39138  12.062   4.369  15.658  0.1494 -0.3012  0.0945
22292W        W39139  10.766  11.751   1.296  0.0523 -0.1719 -0.1150
22293W        W39140  13.809   7.290  13.167 -0.0261 -0.0896  0.1629
22294W        W39141   6.155  10.695  11.695  0.0002 -0.1991  0.1797
22295W        W39142   4.517   0.997  11.148 -0.1036 -0.1059  0.2105
22296W        W39143   4.216  15.858  15.226  0.2749 -0.2271 -0.2613
22297W        W39144   5.158  16.865   0.235  0.0283  0.0403 -0.2571
22298W        W39145   1.375   3.396  12.445  0.1786 -0.3137  0.3102
22299W        W39146   2.234  14.392  13.859 -0.0254  0.1526  0.1951
22300W        W39147  12.015  13.949   1.569 -0.1752  0.2610  0.1030
22301W        W39148   1.296  14.762   3.894 -0.1546  0.0203 -0.0864
22302W        W39149   3.327  16.723   4.530 -0.0564 -0.2415 -0.1674
22303W        W39150  17.952   3.830   1.811  0.1882 -0.1581 -0.3954
22304W        W39151   7.990   2.795  10.910 -0.1328 -0.0167  0.3515
22305W        W39152   4.344  15.676   0.607  0.4694 -0.0704 -0.1763
22306W        W39153   8.464   5.279  11.540 -0.0074 -0.1027  0.5011
22307W        W39154   8.865   2.989   2.222  0.1218 -0.2782  0.1883
22308W        W39155  18.215  14.251  14.708  0.1647  0.0078 -0.0733
22309W        W39156  12.971  10.649  11.340 -0.2132 -0.1342  0.2561
22310W        W39157   7.192   5.158  10.214  0.1702 -0.1929  0.0540
22311W        W39158   7.054   3.081  14.321 -0.1231 -0.0440  0.1817
22312W        W39159  18.339  10.738   1.653  0.2051 -0.0628 -0.0497
22313W        W39160   1.054   1.113   4.182 -0.0736 -0.0454  0.1217
22314W        W39161   9.860  12.079   5.665 -0.0163  0.1324 -0.0850
22315W        W39162   0.147   0.449   2.090  0.0555  0.1797 -0.1553
22316W        W39163   6.639  16.119  15.393 -0.3671 -0.2462  0.0656
22317W        W39164   5.047  14.997  14.043  0.0148  0.0273  0.2105
22318W        W39165  16.896   6.949  13.933  0.6124  0.0116 -0.0473
22319W        W39166   6.236   4.215  11.629 -0.1610 -0.1020  0.0986
22320W        W39167   0.748   9.816   3.788 -0.0755  0.4211 -0.1390
22321W        W39168  10.509   8.458  12.370  0.1066  0.0475 -0.1225
22322W        W39169   7.232  16.030  15.026  0.2536 -0.1092  0.3576
22323W        W39170  14.378   7.192  11.414 -0.2481 -0.2329  0.0351
22324W        W39171   9.466   9.430   1.883  0.0163 -0.0336 -0.0741
22325W        W39172  16.232   1.533   5.614 -0.0293  0.3355  0.1898
22326W        W39173   7.401   5.441   5.383  0.1144  0.0693 -0.1674
22327W        W39174   6.489  13.482   2.910 -0.0478 -0.0791  0.2029
22328W        W39175   7.118   2.264   2.104 -0.0544 -0.4284 -0.3184
22329W        W39176   1.971  17.544  14.014  0.0488  0.1180 -0.0193
22330W        W39177  12.960   0.751   2.474  0.1933  0.0442  0.0541
22331W        W39178   7.902  10.474   2.102 -0.2343  0.1289  0.3233
22332W        W39179   1.798  15.188  11.258 -0.2062  0.1320  0.2512
22333W        W39180  11.771  11.134   0.251  0.0075 -0.1190 -0.2696
22334W        W39181   4.722   4.575  13.095  0.1136  0.2669  0.2654
22335W        W39182   2.934   6.468  11.402  0.1534 -0.0844  0.3916
22336W        W39183  12.563  17.052   2.613 -0.0661 -0.0853  0.1462
22337W        W39184  17.355   1.920  15.203 -0.0821  0.5161 -0.0566
22338W        W39185   5.657  15.234  11.806  0.2678  0.1946 -0.0169
22339W        W39186  18.358  16.249   1.832 -0.4242 -0.1420  0.0442
22340W        W39187  17.697  11.548   4.519 -0.2749 -0.3417 -0.3669
22341W        W39188   6.347   8.646   2.437 -0.1350 -0.0466  0.1735
22342W        W39189   8.610  15.605   1.341 -0.1968 -0.4996  0.0235
22343W        W39190   4.852   0.765  14.740 -0.0955  0.0084 -0.0099
22344W        W39191   8.566  15.654   3.162  0.1027  0.0122  0.4343
22345W        W39192   1.658  15.357   4.149  0.1236 -0.3188  0.2310
22346W        W39193  13.658   6.240  12.932 -0.0156 -0.2638  0.3281
22347W        W39194  11.492   1.643  10.978 -0.0550  0.0913 -0.1432
22348W        W39195  17.661   0.901  11.497 -0.0381 -0.2886  0.0147
22349W        W39196   6.089  16.586  10.905  0.1591  0.1274 -0.3882
22350W        W39197  16.313  13.493  10.408 -0.0972 -0.2019 -0.1104
22351W        W39198   6.013  16.286   4.030 -0.0366 -0.0065 -0.1024
22352W        W39199   2.259   8.094   1.398  0.0204  0.0821  0.0940
22353W        W39200   9.716  14.757   4.177  0.2240 -0.2118  0.3242
22354W        W39201   2.918   7.191   3.690 -0.0101  0.2045  0.0455
22355W        W39202   4.677   0.407  13.038 -0.2562 -0.1207 -0.4059
22356W        W39203   3.283   0.477  10.947 -0.1178 -0.0848 -0.1787
22357W        W39204  14.860  11.120  15.264 -0.1328 -0.2208 -0.0572
22358W        W39205  18.053   6.802  10.981 -0.0907 -0.3393  0.4169
22359W        W39206  14.165   6.718  11.597  0.1935 -0.0941 -0.1751
22360W        W39207   4.801   1.254   3.408 -0.0389 -0.2197 -0.1868
22361W        W39208  13.262   8.665   1.994  0.0766  0.0401 -0.0384
22362W        W39209  16.452   1.065  15.754  0.2937  0.0556 -0.0388
22363W        W39210  16.649  11.223   0.406 -0.0263  0.0932 -0.0332
22364W        W39211   6.604   3.909   1.057 -0.1150  0.1129 -0.2486
22365W        W39212   4.123  10.053  15.494  0.0517 -0.0258  0.1623
22366W        W39213  12.895  11.343   4.717  0.0500  0.0648  0.1482
22367W        W39214   7.942   8.209   5.482  0.2950 -0.2335  0.0893
22368W        W39215   1.316   3.205   4.401  0.0061  0.1273 -0.0753
22369W        W39216   1.723  13.663   0.019  0.1926  0.2400 -0.0899
22370W        W39217   6.062  10.845   3.143  0.0283  0.1079  0.2097
22371W        W39218   6.240  14.833  13.366 -0.1859  0.0626  0.0491
22372W        W39219  12.861  10.167   0.707 -0.0736 -0.1744  0.0227
22373W        W39220   1.898   5.079  12.552  0.1344 -0.0772 -0.4972
22374W        W39221   6.170   7.674  15.615  0.4081 -0.3012  0.2935
22375W        W39222  13.851   5.858   4.782  0.2941 -0.1578 -0.1139
22376W        W39223  11.316   6.301   0.832  0.0057 -0.2773  0.2312
22377W        W39224   4.771  11.057  13.100 -0.3235 -0.1943  0.1934
22378W        W39225   9.517   5.591   4.398  0.0494 -0.2340  0.1405
22379W        W39226   8.448   0.109  11.627 -0.0474  0.0596 -0.0467
22380W        W39227  10.365  13.838   2.823 -0.1314 -0.2005  0.2587
22381W        W39228   9.435  17.324   0.250 -0.0726 -0.1186 -0.2111
22382W        W39229  13.677   9.985  13.194 -0.0932 -0.3006 -0.2082
22383W        W39230   9.624  18.004  11.330  0.2037 -0.0256  0.1594
22384W        W39231  13.507   3.852  14.300 -0.2382 -0.1412 -0.3326
22385W        W39232   9.747  10.583   3.818 -0.1544 -0.2550  0.2216
22386W        W39233   8.585  17.809  11.597  0.2873 -0.0044 -0.3466
22387W        W39234   7.976   8.983   1.817 -0.3970 -0.0013  0.1341
22388W        W39235   4.335   9.424  14.088 -0.0211 -0.1968  0.1269
22389W        W39236   0.996  14.320   4.703  0.0252 -0.1002 -0.0132
22390W        W39237   0.595   8.763  13.385  0.2584  0.1301  0.0257
22391W        W39238   7.250   0.458   1.368 -0.0807 -0.3133 -0.0302
22392W        W39239   2.821   6.876   4.933  0.0382  0.0452  0.2245
22393W        W39240  18.116  16.379  15.093 -0.0932 -0.0284  0.0911
22394W        W39241   3.690  10.707   1.090  0.0549  0.1169 -0.0438
22395W        W39242  12.152   9.821  13.967  0.2061  0.0629  0.2722
22396W        W39243   9.674  14.210  11.873  0.1506 -0.2697 -0.0212
22397W        W39244  15.683   0.981   3.432 -0.0843 -0.0470  0.0908
22398W        W39245   9.660   0.670  14.458 -0.0167 -0.0591 -0.0250
22399W        W39246  11.208  15.162   5.056 -0.0754 -0.0367 -0.0077
22400W        W39247   6.550   4.395  10.735 -0.1637  0.2560  0.1876
22401W        W39248  14.981   7.214   1.749  0.1905  0.1037  0.0073
22402W        W39249   0.928   8.909  10.402  0.0581  0.0384 -0.1244
22403W        W39250   3.235   2.285   0.235  0.1742  0.3554  0.0164
22404W        W39251  11.091   4.595   4.988  0.1784  0.1165  0.1264
22405W        W39252   2.000  14.501   4.513  0.0321 -0.0990 -0.0390
22406W        W39253  16.386   3.264   4.670  0.0230  0.0950 -0.0396
22407W        W39254   7.645  17.883  12.412 -0.4440  0.0320  0.2602
22408W        W39255   6.051   5.672   3.921  0.1367  0.0463 -0.2087
22409W        W39256   4.263  17.909   5.164  0.0098 -0.1925  0.0689
22410W        W39257  12.117  14.945   4.683  0.2398 -0.1955  0.2328
22411W        W39258   5.147   3.663   3.283  0.1146 -0.1770  0.0093
22412W        W39259   8.240  16.766   1.523 -0.2552  0.0920 -0.3973
22413W        W39260   4.886  16.917  12.337 -0.1626  0.2280 -0.0679
22414W        W39261   1.762  13.152  13.698  0.0279  0.1973  0.2775
22415W        W39262  14.409   6.043  14.229  0.1431  0.2070  0.4023
22416W        W39263   3.323  10.670  12.401 -0.2115 -0.3775 -0.1494
22417W        W39264   1.852   7.015  14.357  0.1022  0.0201  0.0788
22418W        W39265   5.119  17.741  15.695  0.2818 -0.2685 -0.0404
22419W        W39266  15.142  17.985   4.856  0.0747  0.1203 -0.2705
22420W        W39267  10.111   2.370  12.800 -0.0139 -0.1383 -0.0710
22421W        W39268   6.251   1.968  11.728 -0.2789  0.0462 -0.2081
22422W        W39269   5.320   0.354  15.116  0.3691  0.0168  0.2800
22423W        W39270  15.061   4.079   4.807 -0.2116  0.0627 -0.0973
22424W        W39271   2.377  17.085   4.493 -0.0881 -0.0449  0.1646
22425W        W39272  14.872   0.002   2.409 -0.1467 -0.0153 -0.1581
22426W        W39273   6.890  17.331  14.460 -0.5717  0.0697  0.0775
22427W        W39274   9.408  17.184   5.551  0.0097 -0.0101 -0.0601
22428W        W39275  10.561  11.325  12.789 -0.0066  0.2001  0.0456
22429W        W39276   5.246  17.716   4.875  0.0958  0.0659  0.1173
22430W        W39277   3.176  17.017   3.428  0.2509 -0.2317 -0.2776
22431W        W39278  12.830   4.997  11.712 -0.1571  0.1331  0.1484
22432W        W39279  16.779   2.657   0.212  0.1958 -0.1260  0.1233
22433W        W39280  12.162   4.801  15.872 -0.1258  0.0749  0.2757
22434W        W39281   2.866  13.095  13.321  0.2266  0.0395 -0.1129
22435W        W39282   0.578   6.535  14.645  0.1321  0.1175 -0.1517
22436W        W39283   8.944   9.128  13.289 -0.1973  0.4298 -0.1580
22437W        W39284  12.427   3.480   0.635  0.2885  0.0686  0.0548
22438W        W39285   5.503   8.981  15.603 -0.1205 -0.2060 -0.1098
22439W        W39286   8.659   4.920  14.712  0.1239  0.2298  0.0928
22440W        W39287   5.319  14.266   3.103 -0.2953  0.1063  0.0702
22441W        W39288  12.799   1.763   0.977 -0.1961 -0.3507 -0.3027
22442W        W39289   7.738  13.711  14.089 -0.2582 -0.0231 -0.0595
22443W        W39290   8.351   1.345  11.325 -0.3210  0.2155 -0.3758
22444W        W39291  17.091   4.476   1.884 -0.0573  0.1299 -0.1352
22445W        W39292  12.759  17.368   1.392  0.1800 -0.1077 -0.2294
22446W        W39293  11.971   9.398   0.022 -0.0595 -0.1289  0.1615
22447W        W39294   0.631  12.772  13.321  0.1622 -0.2127  0.0960
22448W        W39295   7.495  16.526  10.918 -0.2045  0.0783  0.2064
22449W        W39296   0.958  17.805  11.069  0.1047 -0.2096  0.1657
22450W        W39297  18.465   5.834  14.118 -0.1327  0.3032 -0.1137
22451W        W39298   9.139  13.260   5.647 -0.2276 -0.1171  0.2026
22452W        W39299  16.957  12.659   4.119  0.0864  0.0943 -0.0985
22453W        W39300   1.522   6.240   2.729  0.1975  0.1154  0.2716
22454W        W39301   5.711   1.488  14.513  0.0742 -0.1113 -0.1754
22455W        W39302   7.106   0.799  13.894 -0.1848 -0.0807  0.2950
22456W        W39303  11.929   5.605   0.491 -0.0512  0.1519 -0.0300
22457W        W39304  15.529  12.971   1.622 -0.2832 -0.1073  0.2197
22458W        W39305   6.704   0.682   5.269 -0.2910 -0.3058  0.4222
22459W        W39306   0.566   5.188  11.152 -0.0942 -0.0604  0.1333
22460W        W39307   0.930  18.161   2.403  0.1651  0.0632  0.0541
22461W        W39308  10.863   4.369  15.014  0.1231 -0.1591  0.1073
22462W        W39309   9.725   7.846   0.272 -0.0412  0.2279  0.3660
22463W        W39310  13.570   1.238   0.800 -0.0068 -0.0003  0.0717
22464W        W39311  16.774  15.805   2.608 -0.1706  0.2465  0.2606
22465W        W39312  13.988   3.896   5.340  0.0139 -0.0056  0.0842
22466W        W39313   5.789  12.543   0.777  0.2276 -0.1305 -0.1615
22467W        W39314   7.024   1.482   3.904  0.1829 -0.0346  0.1096
22468W        W39315  12.112  16.419   1.541 -0.0360 -0.0793 -0.3045
22469W        W39316   4.886  15.797   5.891 -0.0318  0.3127  0.1483
22470W        W39317   1.642   8.102  13.136 -0.0939  0.2121 -0.0050
22471W        W39318  12.868  14.596   2.132  0.0586 -0.0789 -0.1320
22472W        W39319   7.632  10.931  13.443 -0.0698  0.4195 -0.0041
22473W        W39320   8.102  10.179  13.565 -0.1202 -0.1160 -0.0901
22474W        W39321   7.775   6.339  13.008 -0.1771 -0.0896 -0.1167
22475W        W39322   6.300   6.820   4.772  0.0309 -0.1058  0.1158
22476W        W39323   1.515   6.378   3.780  0.1853 -0.2335  0.0179
22477W        W39324   8.724  17.890   0.781 -0.1241 -0.0362 -0.1663
22478W        W39325  15.455  11.371  15.472 -0.1702  0.0079 -0.0257
22479W        W39326   0.165   8.444   2.834 -0.0729 -0.0452 -0.1113
22480W        W39327  13.540  18.406  12.524  0.2095 -0.0343  0.2173
22481W        W39328  14.817   6.050  11.990 -0.0122 -0.1109  0.0377
22482W        W39329   0.874   2.045  13.217 -0.1356  0.0987  0.0130
22483W        W39330  11.041  13.516   1.405  0.0938  0.0032  0.1335
22484W        W39331  16.933  14.165   5.798 -0.0907  0.1196 -0.1010
22485W        W39332  14.425   4.547  11.453  0.0914  0.2662 -0.1661
22486W        W39333  13.838   2.232   4.302 -0.0655  0.0338 -0.3719
22487W        W39334   0.404   0.443   3.119  0.0349  0.1228 -0.3265
22488W        W39335   1.376   0.969   0.610  0.0232 -0.0158 -0.0070
22489W        W39336   8.623  18.399   3.254 -0.3442 -0.0159  0.0374
22490W        W39337   3.695  15.914   1.385  0.2323  0.1737  0.0345
22491W        W39338  13.514   6.592  11.203 -0.2068 -0.2883  0.0302
22492W        W39339   8.976   1.381   2.830  0.0531  0.2116 -0.1448
22493W        W39340   6.418   6.132  11.650  0.2429  0.1834 -0.1637
22494W        W39341  12.899   9.911  12.031  0.1261  0.2820  0.0107
22495W        W39342   5.110   2.634   4.455  0.0433 -0.4921  0.3574
22496W        W39343  11.743   0.591   2.567 -0.0698 -0.2568  0.0664
22497W        W39344   1.227   0.705   4.001 -0.3531 -0.2745  0.0512
22498W        W39345   8.175   6.092   0.291  0.1573 -0.1608 -0.0139
22499W        W39346  10.002   3.250  15.038 -0.0473 -0.0161 -0.1852
22500W        W39347   9.923   6.178   3.296 -0.0773 -0.1646  0.0441
22501W        W39348   2.930   0.953  12.453  0.2772 -0.0953 -0.1211
22502W        W39349  11.683   9.041  15.734  0.4917 -0.1654 -0.1791
22503W        W39350  18.205   9.823  11.490 -0.3843  0.0212 -0.2598
22504W        W39351  16.464  12.953  11.853  0.3487  0.1152 -0.1342
22505W        W39352  16.591   5.529  15.497  0.1632  0.2957 -0.0694
22506W        W39353   9.752  16.970  13.500 -0.1057 -0.2510  0.0472
22507W        W39354  11.376  15.904  11.982  0.0838  0.1889  0.2427
22508W        W39355   6.330   2.075  13.465  0.1311 -0.1397  0.1666
22509W        W39356   8.346  15.422  15.417 -0.2079 -0.1683  0.1227
22510W        W39357  14.143   5.726  15.018 -0.0002  0.0091  0.1524
22511W        W39358   1.815  14.816   3.226  0.0015 -0.2094  0.0150
22512W        W39359   6.657   3.586   4.079 -0.2680  0.0656 -0.2073
22513W        W39360   2.926   6.276  15.010 -0.2133  0.0876 -0.1881
22514W        W39361  14.546   4.922  14.743 -0.0501  0.2696 -0.1821
22515W        W39362   1.271   9.927   4.061 -0.1459  0.1042  0.0687
22516W        W39363   5.115   6.657   4.727 -0.2604  0.0901 -0.2604
22517W        W39364   5.585  13.120  11.251 -0.2494 -0.1447 -0.0864
22518W        W39365  12.512   1.613  14.242 -0.1043 -0.1624  0.0233
22519W        W39366   4.351   8.000   3.099  0.2976 -0.0988  0.2532
22520W        W39367  18.502   5.567   4.940  0.4637  0.0923 -0.0405
22521W        W39368   3.884   4.292   1.027  0.0011 -0.0997 -0.0084
22522W        W39369  12.256   4.262  13.971  0.1058  0.0766  0.0799
22523W        W39370  16.473   8.855  13.860  0.2688  0.0180 -0.0049
22524W        W39371   3.054   9.774  10.420 -0.1584  0.0189 -0.1446
22525W        W39372  15.209   5.453   3.082  0.0340 -0.2784 -0.1804
22526W        W39373   8.113   0.476   1.834  0.0465 -0.0699  0.0442
22527W        W39374  12.958  10.441  12.715 -0.3268 -0.0850 -0.0353
22528W        W39375  12.714   5.830   2.744  0.0582  0.2811  0.1027
22529W        W39376  17.099   4.580  12.900 -0.0321 -0.1476 -0.3670
22530W        W39377   3.303   2.967   1.652  0.0118 -0.0106 -0.0973
22531W        W39378   2.982   7.572   5.591 -0.2301 -0.1213  0.1231
22532W        W39379   0.483   0.672  14.956  0.0123 -0.0948 -0.0292
22533W        W39380  15.746   0.127   3.602 -0.0080  0.2896 -0.2506
22534W        W39381   2.869   7.557  15.351  0.0450  0.1402  0.1922
22535W        W39382  12.454   5.417   0.603 -0.0669  0.1403 -0.1727
22536W        W39383   7.389  17.619   4.958 -0.1643  0.0789  0.1906
22537W        W39384   3.767  15.030  15.766 -0.2494 -0.1085 -0.0428
22538W        W39385  10.119   5.368  12.372  0.2037 -0.2236  0.1912
22539W        W39386  11.784   0.329   4.479 -0.0130 -0.2079 -0.0670
22540W        W39387   2.283  13.338   2.321  0.0061  0.1052  0.2134
22541W        W39388  13.492   1.714   0.542 -0.0472 -0.1565 -0.1750
22542W        W39389   2.587   1.854  15.565 -0.0461  0.0036 -0.0180
22543W        W39390   7.273   4.381   2.861 -0.0753 -0.0296 -0.1718
22544W        W39391   3.506  17.799  14.728 -0.1593 -0.1299 -0.0703
22545W        W39392  10.757  18.240   3.571  0.1696  0.1848 -0.3372
22546W        W39393   1.761   9.603  13.535  0.0562  0.0914  0.1683
22547W        W39394  13.050  17.644   0.581  0.1450  0.1997 -0.0973
22548W        W39395  16.737  13.424  12.149 -0.1490 -0.0162 -0.0228
22549W        W39396  13.528   2.196  15.403 -0.2094 -0.0690  0.0162
22550W        W39397   3.955   8.282   4.015 -0.1831 -0.0798 -0.1287
22551W        W39398   8.000   1.010  12.677  0.0516 -0.0860  0.1218
22552W        W39399   0.016   3.966   1.236 -0.0652  0.2452 -0.0642
22553W        W39400  17.931   1.197   0.850  0.0602 -0.3035  0.1922
22554W        W39401  12.844  17.094   3.783 -0.3625  0.0333  0.1507
22555W        W39402   3.485   6.435  14.513 -0.0204  0.0603  0.0520
22556W        W39403   3.402   6.719   1.789  0.2667 -0.1050 -0.0061
22557W        W39404  16.695   4.618   5.138 -0.0162  0.0639  0.0113
22558W        W39405   5.614  12.593   2.787 -0.1904  0.2461  0.0919
22559W        W39406  17.308   7.783   2.783  0.3247 -0.1841  0.3675
22560W        W39407   9.821  12.167   0.407 -0.1004  0.1427 -0.2451
22561W        W39408   2.675   3.566   2.026 -0.0044  0.3676  0.1093
22562W        W39409  15.183   7.700  13.823 -0.0189  0.1473  0.1294
22563W        W39410   1.648  17.458  15.929  0.0625 -0.0394  0.0083
22564W        W39411   5.096  12.762   1.976 -0.0084 -0.0259  0.4036
22565W        W39412   7.017  15.666   4.699  0.0190 -0.0084  0.1891
22566W        W39413   2.697   3.703  13.601  0.1814  0.2257  0.4269
22567W        W39414   5.497  11.356  11.586 -0.1375  0.2353  0.0992
22568W        W39415  10.333  10.715   2.817  0.2706 -0.0523 -0.0777
22569W        W39416   9.686   6.640  10.880 -0.2535 -0.2346  0.2257
22570W        W39417  17.274  16.793   0.461  0.2907  0.0704  0.0916
22571W        W39418  15.898  17.482   0.281 -0.2698  0.0077 -0.0351
22572W        W39419   8.887   4.872   2.829  0.1167 -0.2779  0.0882
22573W        W39420   8.504   8.291  13.279 -0.0223 -0.1837  0.3699
22574W        W39421  11.599  14.404   3.983  0.0379  0.0633 -0.5123
22575W        W39422  10.779  15.559   3.822 -0.2994  0.3505 -0.1272
22576W        W39423  11.654   7.827   3.068 -0.1708  0.1557 -0.3044
22577W        W39424  11.886   5.294  12.631  0.3776 -0.0071 -0.1112
22578W        W39425  16.717   5.262  12.858  0.1597 -0.0261  0.1480
22579W        W39426  13.138  10.834  13.115  0.0967 -0.1298  0.1614
22580W        W39427   0.327   9.613   2.788 -0.0938 -0.0421 -0.0097
22581W        W39428  11.210  12.354  13.023  0.2045  0.3407  0.0566
22582W        W39429   0.317   1.704  11.629 -0.2344  0.0246 -0.1009
22583W        W39430   9.224  12.333   3.858 -0.2901 -0.0433  0.0297
22584W        W39431   1.154  16.265   6.256  0.2879 -0.0365 -0.1140
22585W        W39432   6.436   6.587   2.013 -0.1823  0.1978 -0.0859
22586W        W39433   9.208  18.186   2.881  0.0322 -0.0749  0.0111
22587W        W39434  14.876   9.006  11.972 -0.2956 -0.0841 -0.4101
22588W        W39435   0.355  12.225   4.481 -0.1939 -0.3747  0.0889
22589W        W39436  10.745  13.122   1.530  0.2607 -0.3252  0.2688
22590W        W39437  17.537  14.538   0.385  0.0823  0.0412 -0.0380
22591W        W39438   2.014   5.334   5.890 -0.0356  0.1310 -0.0310
22592W        W39439  11.648   3.260  10.263 -0.1413 -0.2415 -0.2134
22593W        W39440   5.494   0.728  13.055  0.1857 -0.1672  0.0736
22594W        W39441   4.392  10.233   4.523 -0.2525  0.1037  0.1616
22595W        W39442  18.283   4.450  14.514 -0.1419  0.1091  0.2735
22596W        W39443  10.348   8.081   1.078 -0.1030  0.0853  0.2029
22597W        W39444   7.145  11.506  12.691  0.0861 -0.1358 -0.1096
22598W        W39445  13.936   7.603   4.387  0.2428  0.1550 -0.3620
22599W        W39446  12.616   4.025   3.282  0.0673 -0.0957 -0.1919
22600W        W39447  13.826   3.379   6.118 -0.1349  0.0247 -0.1535
22601W        W39448   2.889   5.206  11.391 -0.0205  0.0620  0.1701
22602W        W39449  16.124  12.006   5.396 -0.3497 -0.0498 -0.1353
22603W        W39450  12.900   3.736  12.497  0.0053 -0.0120 -0.1365
22604W        W39451   6.609   0.885   2.759 -0.0116 -0.0026 -0.1465
22605W        W39452  12.587  14.396   6.190 -0.0214  0.1578  0.0416
22606W        W39453   7.033   2.287   0.415  0.3091 -0.0862  0.0601
22607W        W39454   1.328   1.189   1.846  0.4043  0.2341  0.0390
22608W        W39455   5.084   6.202  14.293  0.3017  0.0024 -0.0257
22609W        W39456  12.998   3.017   1.634 -0.0865 -0.3961 -0.0130
22610W        W39457  10.984  12.803  10.614  0.0493 -0.1420 -0.0120
22611W        W39458  15.569   6.457   4.987  0.1278 -0.0099  0.1494
22612W        W39459   9.800  12.396  11.340 -0.3241  0.0875 -0.3450
22613W        W39460  16.400  10.396  14.597 -0.1981  0.1309 -0.0567
22614W        W39461   0.247   6.854  13.715 -0.0320  0.1325 -0.3383
22615W        W39462  10.596   9.028  11.769 -0.0362  0.1251  0.0332
22616W        W39463  12.443   0.296  12.295 -0.1113 -0.2992  0.0885
22617W        W39464   4.928   2.548   3.219  0.3003  0.0176 -0.0113
22618W        W39465  15.280   4.110   2.431 -0.0151  0.2593  0.1493
22619W        W39466  10.300  11.708  11.710 -0.1438  0.2022 -0.0393
22620W        W39467   9.305   6.120   2.392 -0.0336 -0.2305  0.2418
22621W        W39468  13.612   6.359  14.797 -0.2004 -0.1047  0.1063
22622W        W39469   6.473   5.707  11.455 -0.2238 -0.0170 -0.0357
22623W        W39470   7.683  10.560   5.368 -0.1837  0.0449 -0.1300
22624W        W39471  17.273   7.103   4.606  0.0365 -0.0303  0.2740
22625W        W39472   4.017   8.967  12.210 -0.0497  0.0658 -0.0471
22626W        W39473   9.322  11.074  13.183  0.0222  0.1876  0.1029
22627W        W39474   5.558   5.574   4.184  0.1115  0.0634 -0.2303
22628W        W39475   7.398  17.549  14.690  0.0236  0.1389  0.1405
22629W        W39476  13.153   7.687   1.391 -0.0409  0.1389 -0.4936
22630W        W39477  13.170  18.529   2.947 -0.1773 -0.0528 -0.0677
22631W        W39478   3.718   0.173  14.686  0.2580 -0.1348  0.0583
22632W        W39479  13.446  15.689   2.690  0.1286 -0.0431  0.1890
22633W        W39480  18.186   7.377  12.389 -0.0261  0.1542  0.1167
22634W        W39481   2.820   3.186  13.631  0.2785 -0.0577 -0.3136
22635W        W39482  15.916   0.347   1.706 -0.1335  0.1743 -0.0018
22636W        W39483   3.864   0.408  11.088 -0.2552  0.0706 -0.1480
22637W        W39484   6.207  14.361   4.072  0.0327 -0.1025 -0.1739
22638W        W39485  11.920  15.939  12.766 -0.1289  0.1099  0.0161
22639W        W39486  11.218   2.548  14.308 -0.0412 -0.0248 -0.1422
22640W        W39487  15.370  17.305  14.221  0.0984  0.2062  0.1417
22641W        W39488   1.959  14.839  13.443  0.0474 -0.0414  0.0227
22642W        W39489  10.444   1.575  13.086  0.0628  0.2234 -0.0656
22643W        W39490   1.907   3.501   5.122  0.0681 -0.0609 -0.0461
22644W        W39491   4.735  10.537   4.198 -0.3311 -0.0542  0.0004
22645W        W39492   5.865   6.817   2.841  0.1242  0.0527 -0.0152
22646W        W39493  14.695  16.716   5.189  0.1544  0.1121 -0.1378
22647W        W39494  13.417   5.695  15.712 -0.2415 -0.0212  0.1894
22648W        W39495   5.494  10.752   0.116 -0.3588  0.0739 -0.0236
22649W        W39496   5.664  10.843   2.810  0.0876 -0.1564  0.1650
22650W        W39497  16.785  17.501  14.888  0.1486 -0.0180 -0.0278
22651W        W39498  18.479  13.916  11.073 -0.1360  0.1420 -0.0995
22652W        W39499  13.866   2.572   0.712  0.1525 -0.1423  0.1168
22653W        W39500  13.701   7.272  10.998 -0.2429 -0.1004 -0.3030
22654W        W39501   3.279  13.587  10.654  0.2025 -0.1575  0.0434
22655W        W39502  11.257   2.406  12.496 -0.0050  0.2861  0.3239
22656W        W39503  16.480  12.736  13.117  0.0189  0.2713 -0.4677
22657W        W39504   5.708   2.818   2.608 -0.2308 -0.1251  0.1245
22658W        W39505   6.818   0.166  13.524 -0.1410  0.1530 -0.0689
22659W        W39506  11.359   6.779   0.472 -0.3202 -0.1132 -0.1228
22660W        W39507   3.905  14.291  13.985 -0.1831 -0.0310 -0.1939
22661W        W39508   3.005   8.333   4.457 -0.1394 -0.0263 -0.0652
22662W        W39509   5.149   4.729  14.160 -0.0166  0.3159  0.0543
22663W        W39510  11.338   5.319   0.423  0.2665  0.0884 -0.0006
22664W        W39511  16.631  16.014   1.053  0.0217  0.1801 -0.1380
22665W        W39512  14.652  11.062   4.076 -0.1650  0.1540 -0.0105
22666W        W39513   9.655  13.349   5.383 -0.1875 -0.1241 -0.2260
22667W        W39514   3.937  16.722  15.529  0.0760 -0.2244  0.0825
22668W        W39515   5.873   0.121  13.941 -0.0235 -0.0670  0.0170
22669W        W39516  16.345   0.310  12.699  0.0146 -0.3542  0.1541
22670W        W39517  17.158  10.490   3.140  0.0079 -0.1291 -0.1159
22671W        W39518  12.530  14.047   1.966 -0.0323 -0.0041  0.1674
22672W        W39519   0.347  17.295   4.192 -0.2803 -0.0716 -0.1556
22673W        W39520  15.404  12.501   1.543  0.0991 -0.1552  0.1391
22674W        W39521  15.138   9.262  14.859  0.0263 -0.0894  0.1767
22675W        W39522  10.027   8.833  11.081  0.2554  0.0186 -0.1348
22676W        W39523  13.954   2.743   1.293 -0.0919 -0.1395  0.1600
22677W        W39524   9.891  12.601   5.595 -0.3339  0.2774  0.0395
22678W        W39525   7.920  16.183  11.640  0.0057 -0.0737  0.0402
22679W        W39526  11.316  11.885  13.217  0.1063  0.1048 -0.1269
22680W        W39527   9.103  11.703  15.524  0.1631  0.0657  0.2053
22681W        W39528  13.712  17.168  11.343 -0.0448 -0.0569 -0.1285
22682W        W39529  13.860   8.851  15.470  0.0003  0.0707  0.1834
22683W        W39530   3.814  17.171  13.335  0.2564  0.4657  0.0515
22684W        W39531   9.597  10.231   4.142  0.1609 -0.0003 -0.2184
22685W        W39532  13.081   9.648   2.210  0.0473  0.0972 -0.2434
22686W        W39533  14.894   6.743  15.574  0.0546  0.2053  0.3082
22687W        W39534   9.064   0.736   3.696 -0.1089 -0.0553 -0.2175
22688W        W39535   7.928   5.616  12.342  0.0405 -0.1519 -0.1796
22689W        W39536  13.501  18.235  14.191  0.0227  0.1712 -0.2560
22690W        W39537  16.666  16.582  11.583 -0.1287 -0.1803 -0.3698
22691W        W39538  17.180   1.034  11.680  0.0827 -0.2557 -0.0889
22692W        W39539   7.333  17.439  15.224  0.2371 -0.0850 -0.0373
22693W        W39540  14.832  10.377   1.373  0.1762  0.0674  0.1172
22694W        W39541   4.252   6.885  15.630  0.2867 -0.2972 -0.1581
22695W        W39542  12.506  13.508   5.146 -0.2129 -0.2619 -0.1217
22696W        W39543  10.297  13.658  13.365 -0.3150  0.0044  0.1038
22697W        W39544  11.162  13.086  11.578  0.2587  0.2610  0.0865
22698W        W39545   3.031   6.294   5.748 -0.0652  0.0121  0.0461
22699W        W39546  17.077  10.499  11.731  0.0742  0.3483  0.1069
22700W        W39547   7.377   8.941   2.839 -0.2599  0.1503 -0.0129
22701W        W39548  13.312   5.200  12.050  0.2154  0.0505  0.1313
22702W        W39549   2.892  16.148   4.123 -0.0923 -0.0970 -0.1855
22703W        W39550  16.854   2.564   1.617  0.0908 -0.1366  0.0517
22704W        W39551   6.959  12.751  14.311  0.2556  0.0624 -0.3205
22705W        W39552  15.779  14.010   0.630 -0.0239 -0.0328  0.2846
22706W        W39553   9.823  14.297   2.069 -0.0560 -0.0537  0.1125
22707W        W39554   4.049  13.810   5.208  0.1473 -0.0745  0.0344
22708W        W39555   2.927   1.546  11.605 -0.0556  0.2226 -0.0807
22709W        W39556   3.159  18.535  15.050 -0.1105 -0.3240  0.0157
22710W        W39557   7.284   1.111   5.902  0.2973  0.2827  0.1424
22711W        W39558   8.455  11.715   4.653  0.3323  0.0040  0.1891
22712W        W39559   3.569  17.469  10.043 -0.1483  0.0108 -0.1146
22713W        W39560   4.829  13.972  14.471 -0.2590 -0.1741 -0.1542
22714W        W39561   8.581   6.636  11.741  0.0610 -0.3758  0.0876
22715W        W39562   3.143   4.215   0.622  0.1308  0.1045 -0.0551
22716W        W39563   1.520  11.399  15.798 -0.1260 -0.1678  0.1968
22717W        W39564  13.159   9.483   2.808  0.1407  0.2936 -0.1166
22718W        W39565  17.998   9.743  15.614  0.1414 -0.1241  0.1056
22719W        W39566   6.880   3.132   2.349 -0.0895 -0.0424  0.2923
22720W        W39567  10.883  18.370   5.976 -0.1824 -0.0265  0.0292
22721W        W39568   6.589  10.877  14.612 -0.3846  0.3009  0.0214
22722W        W39569   7.839  12.694   0.383  0.1099 -0.1275  0.0186
22723W        W39570  14.535   6.990   0.788  0.1727  0.0056 -0.1371
22724W        W39571  16.334  18.419  14.610 -0.0316 -0.1112 -0.0495
22725W        W39572  13.760   3.565  12.445 -0.2344 -0.1346  0.0866
22726W        W39573   9.433  11.522  13.339 -0.3774  0.3562  0.1972
22727W        W39574   6.954   6.942  15.296 -0.2586  0.0590 -0.2947
22728W        W39575  14.053  14.884  14.720 -0.0287  0.0452 -0.3239
22729W        W39576  17.447   6.761   3.640 -0.1911  0.0716  0.0109
22730W        W39577  13.525   8.925  10.772  0.1454 -0.1051  0.0927
22731W        W39578   7.259   2.255   5.030  0.0801 -0.1640  0.0268
22732W        W39579   8.195  16.427   2.814 -0.0500  0.0476  0.0789
22733W        W39580  11.062   4.978  13.791 -0.0737 -0.0863  0.0229
22734W        W39581   2.153  14.993   5.182 -0.2190 -0.1977  0.2630
22735W        W39582   3.062   1.588  14.101  0.2317 -0.2800 -0.0002
22736W        W39583   6.877  10.363  11.986  0.1699 -0.5134 -0.3185
22737W        W39584  10.245   4.685  13.928  0.2366 -0.0274 -0.1610
22738W        W39585  17.059  14.169  15.190 -0.0442  0.0015 -0.0485
22739W        W39586   8.923  15.619   0.918  0.1416 -0.0029  0.0896
22740W        W39587   4.122   5.349   4.631 -0.2391 -0.1075 -0.1690
22741W        W39588  10.470   0.842  10.865  0.0713  0.1127  0.2257
22742W        W39589   9.328   3.605  13.689  0.0219 -0.1139 -0.0381
22743W        W39590   2.131  12.483   0.580  0.1463  0.0112 -0.1399
22744W        W39591  16.361  16.545   2.884 -0.1925  0.0750  0.1108
22745W        W39592  10.403   6.196  14.214 -0.1620 -0.1611  0.0898
22746W        W39593   2.499  11.196  12.557  0.2664 -0.0853  0.0966
22747W        W39594  14.438   8.187   4.555  0.2295  0.1406 -0.0083
22748W        W39595   7.090   8.711  15.270 -0.0124  0.2685 -0.0697
22749W        W39596   9.053  12.895  13.384 -0.1247 -0.0802 -0.0744
22750W        W39597   6.933  16.590   0.416 -0.0237  0.4814  0.0324
22751W        W39598   3.242   0.156   1.945 -0.1688 -0.1005  0.6313
22752W        W39599   8.301   9.861  11.746  0.2142 -0.2523 -0.0590
22753W        W39600  11.591  13.153  12.927  0.2621  0.1023  0.1040
22754W        W39601  13.830  15.850  15.384  0.1700  0.2645  0.4416
22755W        W39602  18.228  11.192  12.749  0.0479  0.0302  0.1200
22756W        W39603  11.071  10.223  11.234  0.1060 -0.0035  0.0415
22757W        W39604   1.909   2.126  13.015  0.0885 -0.0603 -0.4148
22758W        W39605  13.578  16.785   3.310 -0.2323 -0.3765 -0.1454
22759W        W39606   2.537   9.421   1.484  0.1656 -0.2357  0.2367
22760W        W39607  10.477  15.567   2.363 -0.1145 -0.0396  0.0713
22761W        W39608   6.308   9.221   1.177 -0.0356 -0.0024 -0.0680
22762W        W39609  13.375   1.586  13.864  0.3068  0.0313  0.2422
22763W        W39610  11.505   3.858  13.510  0.0356  0.0099  0.0595
22764W        W39611  10.108  16.443   4.823 -0.0341 -0.1512  0.3218
22765W        W39612   8.858  12.190  12.458 -0.0863 -0.0314  0.0630
22766W        W39613  13.140   9.962   2.645  0.0820 -0.5072  0.1260
22767W        W39614  10.121   4.756  15.825  0.0095 -0.1933  0.2127
22768W        W39615  10.937   6.950   0.588  0.1312 -0.0626  0.0100
22769W        W39616  12.700  17.458   4.108  0.2193 -0.1335 -0.2025
22770W        W39617   5.779   2.672  13.754  0.0080  0.0566  0.1376
22771W        W39618  16.765   6.067  14.818  0.1349 -0.0420  0.0312
22772W        W39619   6.546   2.123   4.449 -0.1082 -0.0828 -0.3824
22773W        W39620  14.030  10.399   0.266 -0.0722 -0.2167 -0.3156
22774W        W39621   7.867   0.124   0.292 -0.0076  0.0872 -0.0896
22775W        W39622   3.379   1.801  11.564  0.1275  0.3840  0.1147
22776W        W39623   1.975  16.039  11.602 -0.2743 -0.0770  0.1150
22777W        W39624  16.069  15.149   6.042  0.1635  0.3471 -0.2538
22778W        W39625   2.465  16.402   2.703  0.0502 -0.4412 -0.0222
22779W        W39626  14.648  13.615  13.838 -0.0755  0.3287 -0.0108
22780W        W39627   1.726   6.581  15.692 -0.0522 -0.0046 -0.0113
22781W        W39628   6.483  17.485  13.213 -0.1020  0.0385 -0.0820
22782W        W39629  11.115   0.302   4.218  0.2005 -0.1351  0.1712
22783W        W39630   6.913  12.715   4.053 -0.3578  0.2086 -0.1098
22784W        W39631   3.459  12.066   4.778  0.1604  0.4183  0.1287
22785W        W39632  10.324  17.072   1.552  0.1004 -0.2225  0.0183
22786W        W39633   4.574   8.825  12.790  0.1141  0.0579  0.3023
22787W        W39634  16.223   1.198  14.605 -0.0080 -0.1348  0.0669
22788W        W39635   5.488   7.346  15.089 -0.1789  0.0753 -0.1900
22789W        W39636  15.087   8.830  13.975 -0.1430  0.3431 -0.1096
22790W        W39637   9.806  10.780  11.902  0.1503  0.1182  0.2244
22791W        W39638   6.131   1.202   3.378  0.2681  0.0238  0.1247
22792W        W39639   9.436  16.327   5.610  0.0531 -0.1641 -0.0117
22793W        W39640  13.942   8.130  13.123  0.0802 -0.0053  0.0609
22794W        W39641  18.508  17.331  14.956  0.2069 -0.0466  0.0144
22795W        W39642   9.760  14.526  13.721 -0.2093 -0.1174  0.2965
22796W        W39643  10.408   9.486   3.239  0.0397  0.1224  0.1029
22797W        W39644   4.803   4.502   3.207  0.0826 -0.0094 -0.2079
22798W        W39645  12.582  10.900  14.474 -0.0667  0.2445 -0.0244
22799W        W39646   2.131  13.881  14.756  0.2339 -0.2252  0.0527
22800W        W39647  10.165   9.286  10.944 -0.2744 -0.0254 -0.0941
22801W        W39648  17.789   6.460  14.976 -0.0157  0.0004 -0.4505
22802W        W39649  11.275  12.691  15.779  0.0494 -0.3441  0.1561
22803W        W39650   8.014  16.785   3.783 -0.1974 -0.0913  0.1430
22804W        W39651   8.809  11.368  15.270  0.1150 -0.0549  0.1237
22805W        W39652  17.074  14.273  12.620 -0.0212  0.1570 -0.0398
22806W        W39653   3.306  18.462  12.830 -0.1707  0.3131 -0.1335
22807W        W39654  18.099  15.687  14.075 -0.1671 -0.3108 -0.0363
22808W        W39655  11.528   5.285  14.899  0.1449  0.0588 -0.1224
22809W        W39656  14.873  15.422  15.838 -0.1582 -0.0391  0.1858
22810W        W39657   1.995  10.068  13.965 -0.0194 -0.0756 -0.4146
22811W        W39658  12.898  12.771   2.395  0.0261  0.0589  0.0620
22812W        W39659  12.404   5.238  11.961 -0.1923  0.1525 -0.0340
22813W        W39660   1.405   2.966   4.816  0.0960 -0.2436 -0.3352
22814W        W39661  14.979  10.469  12.455 -0.2575  0.1391 -0.0322
22815W        W39662   9.355  10.267  13.813  0.0395  0.0386  0.0866
22816W        W39663  18.488  15.209  13.249  0.0842 -0.0246  0.0815
22817W        W39664  15.790   2.145  12.353  0.0366 -0.1864  0.1238
22818W        W39665   1.136   5.830  15.901 -0.3133  0.0041 -0.6767
22819W        W39666   8.130   1.559   3.362 -0.2689 -0.0808  0.0581
22820W        W39667   1.448   1.979  15.172 -0.0466 -0.0240 -0.0715
22821W        W39668  10.636   6.306  11.668 -0.2421 -0.1359  0.0095
22822W        W39669  10.924   1.087  14.044  0.2350  0.1175 -0.0431
22823W        W39670   7.947   2.358   4.618  0.0764 -0.3399  0.0956
22824W        W39671   3.932  12.969  14.633  0.1459  0.2141 -0.1086
22825W        W39672   7.579   3.099   4.357  0.0147  0.0519 -0.1354
22826W        W39673  16.322   7.888  14.848  0.0530  0.1626  0.3039
22827W        W39674   7.143   9.064  13.324 -0.1551  0.0140 -0.0468
22828W        W39675   8.841   9.840  10.921  0.0269  0.1958  0.1096
22829W        W39676   1.652  11.066   0.807  0.0033  0.0911 -0.1838
22830W        W39677  17.174   5.314   5.336 -0.2170 -0.2183 -0.3556
22831W        W39678   5.394   5.010  14.478  0.0519 -0.3528 -0.0148
22832W        W39679   5.465   7.532  11.362 -0.0756 -0.0045 -0.0196
22833W        W39680  17.433  18.175   4.838  0.0075 -0.1851  0.0133
22834W        W39681   1.754   6.607   1.104  0.0026  0.1871  0.1362
22835W        W39682  12.220   1.302   4.842 -0.0167 -0.2242 -0.1558
22836W        W39683   6.065   1.704  14.230 -0.0672 -0.1660 -0.0322
22837W        W39684  17.218  17.409  11.973  0.0563  0.0031  0.0973
22838W        W39685   9.479   8.435  11.908  0.2243  0.0722 -0.3984
22839W        W39686   5.629   5.877   3.719 -0.1592  0.1918  0.3503
22840W        W39687   8.267  11.366  15.358  0.2917  0.1465 -0.0946
22841W        W39688  15.921  13.351   1.807  0.0561  0.3466 -0.2122
22842W        W39689  10.958  12.443  14.132  0.0856 -0.1281 -0.2939
22843W        W39690   7.504  11.444   1.206 -0.0069 -0.0540  0.2535
22844W        W39691   4.824  16.855   4.460  0.2205  0.2207  0.0108
22845W        W39692  11.698   3.936  15.061 -0.2175 -0.1309  0.1512
22846W        W39693  16.404   1.611   3.416 -0.1599 -0.0108  0.0216
22847W        W39694  13.528  10.707   5.138 -0.0388  0.3414 -0.0797
22848W        W39695   9.159   4.249   3.943 -0.0945  0.2953 -0.0539
22849W        W39696  11.746   6.859  12.214  0.1426  0.1915  0.0474
22850W        W39697   2.302   3.478   3.903 -0.1086  0.0256  0.0620
22851W        W39698   0.708   3.171   3.654 -0.2722  0.2130 -0.1020
22852W        W39699   8.080  14.469  15.267 -0.1500  0.0096  0.1393
22853W        W39700  16.357  17.450  11.687  0.1780  0.1048 -0.1819
22854W        W39701  15.814  11.137   0.475 -0.0531 -0.0450  0.3465
22855W        W39702  13.143  12.007   1.903 -0.0867  0.4545 -0.1641
22856W        W39703  17.077  16.328  11.414 -0.1687 -0.0138  0.1668
22857W        W39704  14.631   0.342   4.867  0.0339 -0.1371 -0.0301
22858W        W39705  17.342  15.146   3.969  0.0311 -0.2517 -0.2285
22859W        W39706   6.566  10.090   4.723  0.3420 -0.2024  0.4277
22860W        W39707   9.105   3.910  14.216  0.2148 -0.0972 -0.0730
22861W        W39708   8.821   1.320   5.780 -0.0645 -0.3374  0.2777
22862W        W39709   4.989  16.274   3.783 -0.0280  0.1468  0.2280
22863W        W39710   1.955  10.558  14.677 -0.3692 -0.2148 -0.0177
22864W        W39711  16.183   1.273  12.541 -0.0956 -0.0162  0.1135
22865W        W39712  11.256   5.112   4.767 -0.0577  0.0553  0.1616
22866W        W39713  16.274  13.211   5.029  0.0257 -0.1256 -0.0936
22867W        W39714   7.101  17.634   2.731 -0.0569 -0.4954 -0.0192
22868W        W39715  14.959   7.959   2.305  0.2120  0.2467  0.2973
22869W        W39716   9.138  10.676  15.574  0.0852 -0.1845 -0.0433
22870W        W39717  17.074   3.496   1.742  0.0347  0.0657  0.0174
22871W        W39718   8.482   7.253   4.429 -0.3125 -0.0565 -0.3112
22872W        W39719  11.526   3.177   2.486 -0.1290 -0.2194  0.0789
22873W        W39720  10.431   8.573   3.963  0.4674  0.3652  0.1701
22874W        W39721  10.088   6.694  13.250  0.2330 -0.1255 -0.1293
22875W        W39722   8.183  17.122   2.312  0.2201 -0.2465 -0.0435
22876W        W39723   8.847   1.235   3.623 -0.3771 -0.1223 -0.0722
22877W        W39724  14.790   5.532   4.027  0.1221  0.1496 -0.1160
22878W        W39725  15.535  12.811   1.121  0.0134 -0.0899  0.1473
22879W        W39726  18.031   5.006  11.224 -0.0752 -0.1537 -0.0646
22880W        W39727  16.428  15.576  11.296  0.0999 -0.1755 -0.0611
22881W        W39728  17.096  11.430  15.835 -0.0933 -0.0818  0.0150
22882W        W39729   7.751   7.338   3.184  0.0114 -0.2173 -0.0918
22883W        W39730   0.376   0.128  14.253 -0.1421 -0.0192  0.0104
22884W        W39731   7.762  18.426   3.001  0.0692  0.0077 -0.1303
22885W        W39732  13.146   9.022  11.645 -0.0997 -0.2601 -0.1026
22886W        W39733   9.586  14.074  14.378  0.3574 -0.0779  0.1031
22887W        W39734  15.534  15.737  12.736  0.3846 -0.0506  0.2023
22888W        W39735   0.099  14.394   2.995 -0.1273 -0.1298  0.3404
22889W        W39736  16.530  12.200   0.710  0.1056 -0.1853  0.3699
22890W        W39737   5.129  10.029   4.973 -0.2974 -0.0716  0.1277
22891W        W39738  16.815  10.139  14.785 -0.3482  0.0793  0.0693
22892W        W39739   7.330   7.563  15.461 -0.2072 -0.1876 -0.0121
22893W        W39740   3.034  18.178  11.787  0.0417 -0.0271  0.3917
22894W        W39741   7.416   0.201   3.270 -0.2591 -0.3686  0.1120
22895W        W39742  13.368  18.442   3.393 -0.3363  0.0603 -0.3929
22896W        W39743   2.642  17.800   2.284 -0.0032  0.0093  0.1118
22897W        W39744   5.386  11.284   4.285  0.1433 -0.1049  0.2068
22898W        W39745   4.620  16.015   4.458 -0.2881  0.3297  0.0921
22899W        W39746   8.522  11.843  15.337  0.2775 -0.0940 -0.1064
22900W        W39747   1.366  17.526  11.814 -0.0777  0.0720  0.0973
22901W        W39748   6.618  17.679   4.390  0.0949  0.0648 -0.1977
22902W        W39749   8.956  17.516   1.985 -0.0846 -0.0855  0.2332
22903W        W39750   3.353  16.942  14.597 -0.0460  0.0644  0.0014
22904W        W39751  11.857   4.751   3.175  0.0942  0.0640 -0.0651
22905W        W39752   1.271  15.742   6.093 -0.2552 -0.1094 -0.0478
22906W        W39753   0.347  16.090   3.727  0.0163  0.2379  0.1133
22907W        W39754  11.760   8.088   1.110 -0.0779  0.0699  0.3821
22908W        W39755   4.442   1.850   2.781 -0.0891 -0.0060  0.1273
22909W        W39756  10.570   1.494   4.176  0.3180  0.0016 -0.2775
22910W        W39757  11.678  17.453  12.236 -0.0964 -0.0626  0.3445
22911W        W39758  10.538   6.815  13.399 -0.3678 -0.0732  0.0560
22912W        W39759   2.367  10.767  15.004  0.1397  0.1400 -0.1434
22913W        W39760   8.432   3.116   3.628  0.3065 -0.0033 -0.1729
22914W        W39761  12.086   8.894   1.307 -0.2366  0.0462 -0.0900
22915W        W39762  15.831  10.286  13.139  0.1334 -0.3735  0.0469
22916W        W39763  11.272   3.025  11.429 -0.1039  0.3168  0.3425
22917W        W39764   3.560   8.004   2.073 -0.0471  0.0639  0.0132
22918W        W39765  13.417   2.206   4.575  0.2212  0.4108 -0.1924
22919W        W39766  13.673  12.317  14.791  0.0035 -0.0870 -0.2246
22920W        W39767   5.414   1.141  12.631  0.2032  0.2214 -0.0177
22921W        W39768   4.324  14.101  15.241  0.1185  0.0254 -0.0075
22922W        W39769   5.990   2.541  15.002  0.1066  0.2697  0.0586
22923W        W39770  16.626   9.572  12.713 -0.0482  0.1974 -0.1903
22924W        W39771   7.883  11.289  14.307  0.0346 -0.1614 -0.0658
22925W        W39772  12.032  17.061  12.297  0.2771  0.3033 -0.1437
22926W        W39773  11.284   8.481   2.526  0.1340 -0.0912 -0.0966
22927W        W39774   2.420   9.134  11.403 -0.3814 -0.0076 -0.0256
22928W        W39775  15.836   3.591  14.065 -0.1512 -0.1605  0.3603
22929W        W39776  11.712   8.175   3.866  0.3301 -0.0745  0.0922
22930W        W39777   9.858   4.035   0.959  0.2029  0.0776  0.2786
22931W        W39778   9.625   4.536  11.735 -0.4619  0.2071  0.1263
22932W        W39779  17.499   8.445   2.252  0.1837 -0.0042  0.5616
22933W        W39780  13.056  15.203   1.548  0.0921  0.0559 -0.0481
22934W        W39781   3.756  17.694  15.261  0.0358 -0.0052  0.0137
22935W        W39782   7.849  10.912   0.525  0.1444 -0.1173 -0.1616
22936W        W39783   1.040   9.412   2.514  0.3470 -0.2581 -0.0510
22937W        W39784  17.481   9.914   0.458 -0.1266 -0.1430  0.0698
22938W        W39785  10.870   1.578   4.600 -0.2556  0.0050  0.1828
22939W        W39786   4.448   3.801   4.371  0.0049 -0.2385 -0.0388
22940W        W39787   6.896  13.602   4.233  0.0355 -0.1039  0.1140
22941W        W39788   7.250   8.088  13.667 -0.4414 -0.0153  0.1363
22942W        W39789  14.670  18.185   4.803 -0.0599 -0.0465  0.3067
22943W        W39790   7.672   0.049  15.393 -0.2190 -0.0553  0.2366
22944W        W39791  10.565   9.697  13.869 -0.2753 -0.1880  0.1350
22945W        W39792  17.052   8.239  14.581 -0.1319 -0.0961 -0.2963
22946W        W39793   7.863  16.638  11.290 -0.4342 -0.4387 -0.2494
22947W        W39794  11.660   7.104  12.990  0.4544 -0.0764  0.0575
22948W        W39795  11.728  17.870   2.926 -0.1003 -0.0148  0.1432
22949W        W39796   5.220  17.351  12.521  0.1359  0.1907 -0.1807
22950W        W39797   0.789   6.444   1.371  0.0819 -0.3689  0.2912
22951W        W39798   1.706   6.039   2.282 -0.0824  0.1183  0.3612
22952W        W39799   2.991  13.532  12.371  0.2307 -0.0136  0.0153
22953W        W39800  15.844  13.593  15.614 -0.0039  0.0290 -0.0691
22954W        W39801   5.390   7.190   0.835 -0.0557 -0.0619 -0.0025
22955W        W39802  10.587   3.234   2.937  0.3786 -0.2577 -0.1640
22956W        W39803   7.111  17.456   1.401 -0.1514 -0.1909 -0.0385
22957W        W39804  15.432   8.904   3.284  0.0838 -0.1399 -0.0863
22958W        W39805  11.849   9.025   0.334  0.0645  0.1328  0.1096
22959W        W39806  16.681  16.513  15.894  0.0725 -0.1203 -0.1000
22960W        W39807   8.967   4.205  15.735 -0.0126  0.1011 -0.1558
22961W        W39808  17.777  18.347  15.723 -0.0548 -0.0077 -0.1703
22962W        W39809  17.859  13.693   2.586 -0.2925 -0.1754 -0.1724
22963W        W39810  15.857  11.391  11.590  0.0836 -0.3909 -0.0004
22964W        W39811   4.728  11.946   3.532 -0.2756  0.3792  0.0769
22965W        W39812  15.469   9.414   0.252 -0.1853 -0.0438 -0.0271
22966W        W39813   5.421  14.214  15.127 -0.1052 -0.2610  0.3041
22967W        W39814   4.174  15.466   0.038 -0.4431  0.1113  0.0221
22968W        W39815  17.158   9.184  14.225 -0.1587  0.0811  0.0711
22969W        W39816   0.731  15.856  14.325  0.1351  0.1534 -0.2413
22970W        W39817   8.392   4.084   2.013  0.2531  0.2900  0.0447
22971W        W39818  11.890  10.461   3.836  0.2585 -0.1134 -0.1244
22972W        W39819  12.117  17.262   5.249 -0.0369  0.2001  0.2111
22973W        W39820  14.562   6.632  15.917 -0.0644 -0.0474 -0.0327
22974W        W39821  16.636   1.393  12.288  0.1056 -0.0350  0.1169
22975W        W39822  10.595  14.900  11.260 -0.0379 -0.0877 -0.2399
22976W        W39823  16.670  15.167   0.439  0.1294  0.0638  0.0607
22977W        W39824   9.239   4.285   1.750  0.1770 -0.0150 -0.3647
22978W        W39825  13.638   0.309  13.702  0.1624 -0.3109  0.1657
22979W        W39826  13.416   5.830   0.288 -0.0246  0.0754  0.1253
22980W        W39827  13.337  10.929  13.935  0.1308 -0.1258  0.2261
22981W        W39828   2.141   5.508  11.752  0.0217 -0.0119  0.0975
22982W        W39829   5.687  13.946  12.533 -0.0478  0.1943  0.2191
22983W        W39830   9.008   7.117   4.333 -0.3224  0.0866  0.1848
22984W        W39831   0.859  16.412   2.048 -0.0967  0.0254  0.1590
22985W        W39832   7.394  16.889  13.591 -0.0847  0.0951 -0.3860
22986W        W39833  12.686  11.420  15.825  0.1488 -0.0351 -0.0554
22987W        W39834   1.198   9.599   0.568  0.1396 -0.3001  0.1110
22988W        W39835   1.592   1.201   4.997  0.1716 -0.1312  0.0486
22989W        W39836   5.881   8.659   1.406 -0.0186  0.3458 -0.0143
22990W        W39837   0.726   7.686  15.929  0.1754  0.2018  0.0661
22991W        W39838   7.728   2.040   4.949 -0.0473 -0.1212  0.2215
22992W        W39839   6.252   1.974   0.447 -0.1121  0.0815  0.0862
22993W        W39840   1.224  12.437   0.519  0.0153  0.2847 -0.0140
22994W        W39841   7.236   3.414   0.694 -0.2639 -0.1827 -0.1564
22995W        W39842  11.454   5.212   2.973 -0.0313  0.2902 -0.0212
22996W        W39843   2.195  18.456   1.629  0.1336 -0.1486  0.0320
22997W        W39844   3.677  16.856  12.372  0.3641 -0.2283  0.2256
22998W        W39845   1.929  16.692  12.245 -0.0050 -0.1635 -0.0880
22999W        W39846   8.806  12.188  15.623  0.1695 -0.1211  0.0363
23000W        W39847   9.153   4.700  11.102 -0.0053 -0.2051 -0.0071
23001W        W39848  10.087   2.399   3.125 -0.1375  0.2371  0.3016
23002W        W39849  10.458   3.544  13.342 -0.0055 -0.1042 -0.0002
23003W        W39850   7.846  10.460   0.768  0.1772 -0.2381 -0.0697
23004W        W39851   3.103  10.448   0.633 -0.1530 -0.0074  0.0279
23005W        W39852  12.832  10.135   4.035 -0.1610  0.2643  0.2230
23006W        W39853  11.867   3.358   2.167  0.2175 -0.0252 -0.5791
23007W        W39854  14.266   6.620   4.898 -0.1550  0.0612 -0.1273
23008W        W39855   7.681  10.991   2.720 -0.1142  0.2247 -0.1894
23009W        W39856   3.041  10.816  14.398 -0.1095 -0.1748 -0.0673
23010W        W39857  14.068   1.586   1.955  0.2728 -0.3479  0.1894
23011W        W39858   0.938  15.220   1.342 -0.2217  0.0196 -0.2226
23012W        W39859   0.045   1.646   3.406  0.1229  0.0461  0.0912
23013W        W39860  16.460   1.160   3.640 -0.0090  0.0330  0.1002
23014W        W39861  11.565   2.457  13.939  0.0647  0.3197  0.1302
23015W        W39862  13.779   4.905   4.519  0.0707  0.0161 -0.3420
23016W        W39863  11.840  17.577  13.069 -0.1792 -0.1539  0.0420
23017W        W39864   7.624   3.145  12.037  0.1501  0.0479 -0.0587
23018W        W39865   6.342   1.993   1.699 -0.0190  0.1051 -0.2607
23019W        W39866   2.511  13.464  13.815 -0.2998 -0.1061 -0.0261
23020W        W39867   2.099  17.340   5.031 -0.2103  0.0045 -0.2441
23021W        W39868   3.296  11.626   3.667 -0.2425  0.3273  0.0387
23022W        W39869   1.181  14.608   0.689  0.0183  0.0720  0.0483
23023W        W39870   1.940  13.362   2.762 -0.4612 -0.0433 -0.2643
23024W        W39871  12.670  16.838  11.544 -0.4112 -0.2920 -0.0384
23025W        W39872   8.893   0.339   1.261  0.1535  0.0462 -0.3904
23026W        W39873  15.773   3.461   1.870 -0.2054  0.3099 -0.0546
23027W        W39874  14.995   3.962   3.903 -0.1960  0.1823 -0.0529
23028W        W39875   1.129   2.306   3.269  0.0442  0.0286  0.0772
23029W        W39876  17.530   9.934  13.888 -0.1324 -0.0607 -0.0781
23030W        W39877  18.400   7.948   4.334 -0.0335 -0.1597 -0.0237
23031W        W39878  13.556   2.992   2.363 -0.2579  0.0014 -0.3440
23032W        W39879  16.099   6.146   0.265  0.0346  0.1660  0.0379
23033W        W39880   5.111  16.428   4.305  0.1004  0.1319  0.0742
23034W        W39881  13.254  12.190  14.540 -0.1153  0.0280  0.1640
23035W        W39882  14.230  15.332   2.376  0.0589  0.1356 -0.1063
23036W        W39883   4.173   6.609   2.883  0.0495  0.1608  0.2001
23037W        W39884  12.277   5.394   0.118 -0.0895 -0.1203  0.1753
23038W        W39885   3.319   9.160   4.391  0.1574 -0.0337 -0.0221
23039W        W39886  10.781  11.189   1.034  0.0646  0.2671 -0.1157
23040W        W39887  14.077  15.951  13.835 -0.3009  0.1623  0.0138
23041W        W39888   4.088  16.783   1.153 -0.0156  0.1986  0.0551
23042W        W39889  11.412   1.347  10.525 -0.1117  0.0812  0.3345
23043W        W39890  13.756   4.050  11.059  0.0779  0.1410  0.2872
23044W        W39891  10.645   7.758   3.093 -0.1034 -0.3125  0.1170
23045W        W39892   4.906   7.310   2.817  0.2353  0.3720  0.0279
23046W        W39893  13.762   8.627  11.151 -0.0715 -0.0007 -0.0504
23047W        W39894  16.466  11.987   4.439 -0.0968  0.0817 -0.0172
23048W        W39895   3.900  10.686  15.496  0.3101 -0.0287  0.1599
23049W        W39896   2.856   4.375   1.590 -0.2486  0.0522  0.0858
23050W        W39897  10.486   5.180   2.831  0.1299  0.0305 -0.1854
23051W        W39898   1.206   0.464  12.697  0.1406 -0.1980  0.1491
23052W        W39899  13.366   8.683  13.651  0.0318  0.3284  0.1783
23053W        W39900   7.269  13.615  15.416 -0.1611  0.2796 -0.0686
23054W        W39901   9.839  16.795   0.982  0.2837  0.1247  0.0193
23055W        W39902   8.525  12.964  13.576 -0.2244  0.2500 -0.0592
23056W        W39903  12.878   0.319   5.223 -0.2385  0.0091  0.0932
23057W        W39904   9.201   0.982   2.315  0.1218  0.1682  0.3701
23058W        W39905   2.959   7.982   5.960 -0.0470  0.0281 -0.1041
23059W        W39906  10.539   3.214  15.480 -0.0453 -0.1995  0.0632
23060W        W39907   7.419  17.130  11.942  0.1270  0.0287  0.2007
23061W        W39908   2.044  15.863  11.102  0.0761  0.3685  0.0050
23062W        W39909   8.428   7.411  14.290  0.0886 -0.1168 -0.5258
23063W        W39910  17.434   3.728  14.218 -0.1129  0.1828  0.1182
23064W        W39911   6.513  15.378  12.540  0.0933 -0.0342 -0.0599
23065W        W39912  15.348   6.158  14.981  0.1969  0.0393 -0.1719
23066W        W39913   4.197   6.109  15.813  0.1096  0.3829 -0.0768
23067W        W39914   8.592  16.054  14.512 -0.1276 -0.2860 -0.3187
23068W        W39915   1.688   2.237   4.179 -0.0716 -0.1051 -0.1102
23069W        W39916  11.979  13.131   2.505  0.0337  0.0506  0.0984
23070W        W39917   7.050   6.887  13.065  0.2465 -0.1883 -0.1481
23071W        W39918   2.503   3.367  13.993  0.5038 -0.2352  0.0579
23072W        W39919   4.911  10.004  11.347 -0.1014  0.4124  0.0513
23073W        W39920   9.671  10.314   2.661  0.0669 -0.1152 -0.0572
23074W        W39921  13.953   3.878  13.596 -0.2742  0.1129  0.0032
23075W        W39922   8.929   9.691  11.397 -0.0292  0.0247 -0.2714
23076W        W39923  14.165   5.841   1.418 -0.2104 -0.0274 -0.1829
23077W        W39924   4.937   6.677   1.875 -0.2245  0.3387 -0.3127
23078W        W39925  18.056   6.326  14.580 -0.3958 -0.0775  0.4622
23079W        W39926  17.708  15.818  14.924  0.0649  0.0423 -0.1296
23080W        W39927   4.765   9.551  12.580 -0.0701  0.0305 -0.3945
23081W        W39928  15.921   6.170  14.247 -0.1814 -0.0991  0.0652
23082W        W39929   1.863   7.069  14.990 -0.0232 -0.1765  0.2666
23083W        W39930  14.034   4.390  13.639 -0.0575  0.0983  0.2475
23084W        W39931  10.922   9.640  12.639  0.3672  0.2821  0.2163
23085W        W39932  10.132  10.723  15.215  0.0688 -0.3842  0.0152
23086W        W39933  10.289  13.478   2.222  0.2395  0.1969 -0.0509
23087W        W39934   2.285  11.933  11.768  0.0302  0.0848 -0.0425
23088W        W39935  10.360  10.154  14.195  0.1054  0.0338  0.0314
23089W        W39936  15.744   4.473   3.853  0.1046  0.1484 -0.1582
23090W        W39937  13.666   7.176   3.329  0.2710  0.0790  0.2726
23091W        W39938   8.566  10.112   4.026  0.2872  0.1502  0.0155
23092W        W39939   8.743   8.116  13.659 -0.1225  0.2674  0.2588
23093W        W39940   2.899   3.009   4.637  0.3219  0.1623  0.1385
23094W        W39941  11.542   5.359   1.865 -0.1662 -0.1823  0.2407
23095W        W39942   2.983   1.599   1.694  0.0906 -0.1489 -0.0872
23096W        W39943  11.053  16.850  13.211 -0.1070  0.2874 -0.0288
23097W        W39944  16.876   6.907  15.627  0.0498  0.1118 -0.0366
23098W        W39945  17.079   4.581   2.389  0.1213 -0.2891  0.2006
23099W        W39946   7.296   3.838  13.252 -0.0233  0.1708 -0.0715
23100W        W39947   9.477  12.561   2.787 -0.6002 -0.0408  0.0050
23101W        W39948   2.647  11.737  12.066 -0.1385  0.0349 -0.2962
23102W        W39949   5.702  10.526  12.507  0.1001 -0.1118  0.2860
23103W        W39950   7.450   8.090  12.118 -0.1112  0.0321  0.5077
23104W        W39951  12.482   1.677   0.195 -0.0812 -0.0293  0.1335
23105W        W39952  17.529   2.864   1.981 -0.1120  0.0656  0.0425
23106W        W39953  17.424   1.361   0.943 -0.1819 -0.1817  0.0892
23107W        W39954   7.208   7.530   9.932 -0.1101 -0.1326 -0.0344
23108W        W39955   7.370   1.150  15.338 -0.1390  0.2904  0.0595
23109W        W39956  18.511  16.355  15.471  0.1723 -0.2895 -0.1861
23110W        W39957  10.566  14.487  11.578 -0.1466  0.2526 -0.0889
23111W        W39958  15.464  17.566   1.455 -0.3062 -0.1046 -0.2565
23112W        W39959   8.658   0.527  14.473 -0.0671 -0.2518  0.2272
23113W        W39960   8.554  12.199   4.711  0.1186 -0.2654  0.3095
23114W        W39961  17.123   2.697   1.112  0.3182  0.2361  0.0609
23115W        W39962   7.085   7.394   4.545  0.0813 -0.2127 -0.0142
23116W        W39963   3.836  11.744  14.878  0.0459 -0.0623 -0.4519
23117W        W39964   6.216   3.214   2.822  0.0458  0.0899  0.0797
23118W        W39965  11.707   6.207   1.342  0.3145  0.2878  0.1617
23119W        W39966  12.383  12.284  15.718 -0.0435  0.0978  0.2116
23120W        W39967  17.549  18.105   4.313  0.1871 -0.0329 -0.0639
23121W        W39968   2.389  13.415  12.211  0.0444 -0.0092  0.3161
23122W        W39969  10.262   7.162   3.807  0.2714 -0.1388  0.0659
23123W        W39970   6.276  14.010  12.273  0.2070 -0.0213  0.0272
23124W        W39971  14.394  18.153   3.625 -0.1121  0.0181 -0.2449
23125W        W39972   4.052   8.167   1.903 -0.2707  0.3417 -0.1232
23126W        W39973   3.891   9.580  14.101  0.1779 -0.0817 -0.1333
23127W        W39974   7.420  14.771  10.743  0.0920 -0.0743 -0.0463
23128W        W39975  13.933  10.778   3.213 -0.1725 -0.1265  0.0743
23129W        W39976  17.927   4.981   1.495 -0.1546 -0.1271 -0.0452
23130W        W39977  15.137  15.813  12.229  0.2424 -0.0405 -0.3193
23131W        W39978   5.919   3.644  15.876  0.0739 -0.0476  0.1581
23132W        W39979  10.281  16.691   0.720  0.3342 -0.1810 -0.6247
23133W        W39980  12.080   0.457  13.229  0.2856 -0.0032 -0.3508
23134W        W39981   6.763  13.289  11.743 -0.2014  0.2580  0.0420
23135W        W39982   6.818   6.305   5.564 -0.0508  0.0106  0.1803
23136W        W39983  15.313  14.561   2.469 -0.1346  0.1765 -0.1784
23137W        W39984   6.725  16.391   0.824 -0.2469 -0.0014 -0.3425
23138W        W39985   3.281  18.473   2.897 -0.0066  0.0046  0.3546
23139W        W39986   3.424  11.201   3.357  0.2481 -0.0239  0.1853
23140W        W39987   9.780  17.712   2.354  0.0714  0.1289  0.0974
23141W        W39988   7.750   8.586  13.881  0.0565  0.0001  0.0667
23142W        W39989  11.865   9.216  11.444 -0.0347 -0.0046  0.2416
23143W        W39990   6.187   5.791  12.665 -0.2931  0.3011  0.2035
23144W        W39991   1.270  14.994  11.754 -0.1971 -0.2026  0.5295
23145W        W39992  15.152   5.191  15.812  0.2074 -0.0789 -0.0368
23146W        W39993   4.754   5.511  13.874 -0.0881  0.0881  0.0919
23147W        W39994   0.897  13.036  15.557  0.2951 -0.1599  0.2753
23148W        W39995  11.366   9.731   3.840  0.2858  0.1175 -0.0447
23149W        W39996   4.420   0.227   5.801  0.2411  0.2796 -0.0424
23150W        W39997   6.665   1.758   3.042 -0.0890  0.2418 -0.0834
23151W        W39998   6.853   8.080  13.959  0.0376  0.0377 -0.2568
23152W        W39999   9.135  15.125  15.429  0.0627 -0.2355 -0.1491
23153W        W40000  11.004   4.737   2.083  0.0445  0.1015  0.0756
23154W        W40001   9.471   1.717   2.099 -0.1319 -0.2481  0.2048
23155W        W40002   3.619  16.637   1.995 -0.0987  0.0121  0.2301
23156W        W40003  18.254   3.723   5.428  0.0485  0.0594 -0.0380
23157W        W40004   4.639  11.573  14.532  0.1809 -0.0939 -0.2687
23158W        W40005  17.347  14.018   3.063 -0.1631  0.2900 -0.0262
23159W        W40006  14.992  15.043   2.438  0.2764 -0.0484  0.0179
23160W        W40007   7.009  12.138   0.818 -0.0617  0.2681  0.3539
23161W        W40008  15.509  14.022   4.262  0.0465  0.0643 -0.0101
23162W        W40009   0.385  11.667  13.274 -0.0499 -0.0911  0.3044
23163W        W40010   6.525  13.744  13.886 -0.0201  0.2714 -0.0796
23164W        W40011  12.952   4.074  12.166  0.1285 -0.0247  0.1518
23165W        W40012   4.574  14.477   4.625  0.2808  0.2418 -0.2020
23166W        W40013   0.066  15.428   2.155 -0.1869 -0.3203  0.1985
23167W        W40014   3.811  16.311   1.001 -0.0657  0.2856 -0.0851
23168W        W40015   9.664  16.386   3.415 -0.3703 -0.1079 -0.1348
23169W        W40016   8.825   5.546   4.916 -0.0093 -0.0098 -0.4601
23170W        W40017  14.815  15.929   1.093 -0.0339  0.3929  0.0673
23171W        W40018  17.353   8.647  11.859 -0.1121  0.2489  0.4913
23172W        W40019   7.923  15.788  13.620  0.0294  0.3242  0.1315
23173W        W40020   7.550   1.291   4.394 -0.2501 -0.1497  0.2220
23174W        W40021   9.481  13.863  12.966  0.0007  0.1184 -0.0525
23175W        W40022  15.358   2.671   0.094  0.0627  0.0280  0.2876
23176W        W40023  12.818   5.304  15.316 -0.1118 -0.0448 -0.1404
23177W        W40024   4.665  12.174   4.029  0.1326 -0.0537  0.2334
23178W        W40025   6.862  17.081  13.304 -0.0676  0.0442  0.0051
23179W        W40026   1.592   0.130  14.857 -0.3111  0.2740 -0.2625
23180W        W40027  15.973   3.966   0.077  0.5223 -0.0231 -0.0009
23181W        W40028   7.466   3.514   1.184  0.3155 -0.1400  0.1869
23182W        W40029   7.499   0.596  12.247 -0.0415  0.1088  0.1008
23183W        W40030  13.015   9.910   3.178  0.1156 -0.0524  0.0944
23184W        W40031  13.577   7.783  13.404 -0.2933 -0.0054  0.1580
23185W        W40032  13.400   8.276  12.469 -0.1534 -0.2506 -0.1940
23186W        W40033   0.611   0.957   2.920 -0.2368 -0.0355 -0.0381
23187W        W40034   9.885   7.440  15.322  0.1811 -0.0982 -0.1125
23188W        W40035  13.194   8.623   0.303  0.1327  0.3020 -0.1432
23189W        W40036   3.444  14.622  11.191 -0.2079  0.1961 -0.0675
23190W        W40037   4.723  14.127  13.850 -0.1590  0.1760 -0.1248
23191W        W40038   2.913   6.128  12.486  0.0484 -0.1437  0.1039
23192W        W40039   5.668   7.718  11.992 -0.0902  0.1367  0.0023
23193W        W40040   4.735   7.580  12.841 -0.1309  0.0332  0.1212
23194W        W40041   9.454   2.141  11.068  0.0082 -0.1522  0.2148
23195W        W40042   0.998   8.147   0.553 -0.1055 -0.0673 -0.3679
23196W        W40043   2.293  15.465  12.490  0.0765  0.1041 -0.0949
23197W        W40044  11.668   7.660  11.661 -0.3655 -0.1622  0.3077
23198W        W40045  15.702  15.835   0.635  0.0947 -0.0875  0.1140
23199W        W40046   7.307   5.135  15.540 -0.0315  0.1879 -0.1708
23200W        W40047   6.897  15.711  13.398 -0.2811 -0.1953  0.0416
23201W        W40048   8.328  10.645  12.286 -0.3464  0.1803  0.2843
23202W        W40049  16.848   5.894  14.005  0.1202  0.3853 -0.0131
23203W        W40050  13.268   2.319   4.093  0.1697  0.0664 -0.1132
23204W        W40051  14.608  12.559  13.128  0.4232  0.0119  0.1166
23205W        W40052   5.106   3.472   4.897  0.0796  0.2823 -0.0006
23206W        W40053   9.664   3.614  11.929  0.1047 -0.0399  0.0091
23207W        W40054  13.744  14.614   1.683  0.1895 -0.4627 -0.3922
23208W        W40055   0.248  10.415   2.685 -0.0627  0.2541  0.0957
23209W        W40056   3.785  14.301   4.868  0.1147 -0.1192 -0.3105
23210W        W40057  14.524  13.035   0.993 -0.1475 -0.1467 -0.2800
23211W        W40058   4.353   3.513  11.846 -0.1279 -0.0174  0.1530
23212W        W40059   7.835   6.951  11.394  0.0462 -0.3082  0.1207
23213W        W40060  11.884   9.814   1.347  0.0896 -0.0008 -0.4467
23214W        W40061  16.593   1.740   1.753  0.1487 -0.4337 -0.0010
23215W        W40062  16.475  18.361  15.925 -0.3411 -0.0822  0.0145
23216W        W40063   0.857  14.655  15.210 -0.1419  0.3432  0.1155
23217W        W40064   7.072   4.229  15.263  0.2500 -0.0389  0.3166
23218W        W40065   4.700  10.716   2.429  0.1528 -0.0109 -0.3335
23219W        W40066  11.263  14.544  13.284 -0.1956  0.1774  0.0200
23220W        W40067   3.201   6.906   2.795  0.0506 -0.1399 -0.1946
23221W        W40068  13.051  12.101   0.311  0.2076  0.1232  0.1087
23222W        W40069   7.070  12.966   1.421 -0.1351  0.1629 -0.1977
23223W        W40070   9.163  17.388   2.403 -0.0442  0.0794  0.1035
23224W        W40071  14.677   4.891   4.683  0.3349 -0.1573 -0.1247
23225W        W40072   8.377   7.322   0.311  0.0450 -0.0316  0.1343
23226W        W40073   8.040   7.501  12.381 -0.1143 -0.0954  0.2882
23227W        W40074   1.383   9.929  11.098  0.6394  0.2023 -0.4935
23228W        W40075  12.200   4.603  11.300 -0.2983  0.1788 -0.3549
23229W        W40076   8.131  10.131  12.223 -0.0255  0.1153 -0.1157
23230W        W40077  17.416   3.797   1.960  0.1799  0.1588 -0.0428
23231W        W40078   9.646   5.799  13.489  0.2535  0.0039 -0.2732
23232W        W40079  10.247   8.759  14.803 -0.1653 -0.0619 -0.6993
23233W        W40080   3.062   6.011   4.556 -0.3108 -0.3771  0.0266
23234W        W40081   6.328  18.337  11.754 -0.4001 -0.0946  0.1652
23235W        W40082  12.538  13.304  14.722  0.0904  0.0343  0.0176
23236W        W40083  16.978  16.465  14.427  0.0855 -0.1102 -0.0152
23237W        W40084  11.882  17.096   0.873 -0.0860 -0.4066  0.2777
23238W        W40085  14.575  15.368   4.492 -0.0043 -0.1830  0.2339
23239W        W40086   2.690   1.990   4.815  0.2992 -0.1141 -0.3218
23240W        W40087   4.501  18.454   1.429  0.2032  0.1443 -0.3548
23241W        W40088  15.956  18.213   1.036 -0.4212 -0.0488  0.2091
23242W        W40089  13.840   6.897   1.892  0.2326  0.1357 -0.1018
23243W        W40090   9.600   5.026  11.042 -0.0684  0.1360  0.0283
23244W        W40091  12.638  16.091   2.777 -0.1520 -0.0027  0.2554
23245W        W40092  17.213  14.841   0.967  0.2053  0.1544  0.0470
23246W        W40093   2.324  13.054  15.937  0.1094  0.1370  0.3347
23247W        W40094   3.099   7.716   3.823  0.1777  0.2571  0.2595
23248W        W40095   2.414   2.236   4.459  0.2701 -0.0684  0.3356
23249W        W40096  16.977  14.400  11.807 -0.0512 -0.1180  0.0647
23250W        W40097   9.193   5.848  12.796  0.1014  0.3854  0.0236
23251W        W40098   7.381  11.287  10.714 -0.0407  0.5601  0.0836
23252W        W40099  14.506   9.623   1.923 -0.1357 -0.2177 -0.1051
23253W        W40100  17.856  15.007  10.143 -0.1588 -0.1507  0.4241
23254W        W40101   5.297   2.435  13.538 -0.2020 -0.1562  0.0957
23255W        W40102   0.875  17.357  12.989 -0.0378  0.0835  0.0793
23256W        W40103  13.941   0.922   0.537 -0.3109  0.1945  0.1741
23257W        W40104   4.383  14.037   5.954 -0.1085 -0.1731 -0.1491
23258W        W40105  13.599   5.831   2.965 -0.3214 -0.1037  0.0363
23259W        W40106   7.250   6.576  15.647 -0.2245 -0.2788 -0.2032
23260W        W40107   6.365  15.518  14.213 -0.3009  0.0228 -0.1393
23261W        W40108   1.646   2.951   5.259  0.1452  0.1599 -0.2294
23262W        W40109   7.412   8.969  12.384 -0.2207 -0.1310  0.1298
23263W        W40110   8.623   2.555   2.088 -0.1066  0.1316  0.0644
23264W        W40111   3.838  11.524   2.630 -0.1655 -0.0734 -0.1485
23265W        W40112   7.203   7.814   1.988 -0.1447  0.2035  0.2785
23266W        W40113  12.211   3.535   4.654  0.0237 -0.0955 -0.2501
23267W        W40114  17.772   1.252  14.103  0.1550  0.0978  0.1346
23268W        W40115   3.450   6.340   6.090  0.0768  0.2984  0.3832
23269W        W40116   6.600  13.474  14.787 -0.0339  0.0774  0.0790
23270W        W40117  15.788   6.075   0.835 -0.1823  0.3019 -0.1594
23271W        W40118   8.532   3.915   0.275  0.1024 -0.1050 -0.0834
23272W        W40119  15.444   0.162   1.888  0.0860  0.1138  0.1621
23273W        W40120  10.751   1.469   1.496 -0.0844 -0.2321  0.1563
23274W        W40121   8.876  10.215  15.566  0.1680 -0.0095 -0.0175
23275W        W40122   5.428   3.944   2.042 -0.0303  0.1523  0.0106
23276W        W40123  17.503  13.176  15.258 -0.1167 -0.1422 -0.4271
23277W        W40124   4.516   4.775  15.403  0.2679  0.1220 -0.0091
23278W        W40125   0.517   6.194  13.814  0.0989 -0.0471 -0.0183
23279W        W40126   8.279   8.070   4.625  0.0230 -0.1025 -0.0741
23280W        W40127   5.044   0.599  12.809 -0.2811 -0.0221 -0.1112
23281W        W40128   5.736   8.089  15.039  0.1473 -0.1925  0.0310
23282W        W40129  13.698   9.508  11.393  0.1405  0.2176  0.1486
23283W        W40130  12.833   1.257   0.193 -0.1270 -0.1099 -0.0458
23284W        W40131   4.546   5.018   4.911 -0.2164  0.0478 -0.0918
23285W        W40132   3.676   0.249  12.601 -0.1425  0.0930 -0.3622
23286W        W40133   7.974  11.166   1.386 -0.1920 -0.1592 -0.0588
23287W        W40134  12.602   9.779  11.580  0.0488  0.0812  0.2082
23288W        W40135   2.543  16.530  13.169  0.1354  0.2082  0.0278
23289W        W40136   8.804   9.498   2.530  0.2443  0.0418 -0.0746
23290W        W40137  13.726   0.647  12.175 -0.0063  0.2824  0.1460
23291W        W40138  15.365   9.223   0.872  0.0441  0.1066  0.1911
23292W        W40139  14.895   7.053   3.410  0.0241  0.0812 -0.2290
23293W        W40140   8.289  16.311   0.505  0.0175  0.2226 -0.1466
23294W        W40141  12.339   1.320  13.019 -0.0723 -0.2450  0.0911
23295W        W40142  12.468   9.258   1.242 -0.1261 -0.0043 -0.0501
23296W        W40143  10.208   3.351  11.369 -0.1392 -0.1165  0.1392
23297W        W40144  16.750  11.525   3.061  0.0304 -0.2276 -0.0260
23298W        W40145   5.451   3.142  15.694 -0.0989  0.0849 -0.1705
23299W        W40146  17.576   7.399   4.289 -0.1768  0.1651  0.1474
23300W        W40147   4.907   7.193   1.840  0.1376  0.2993 -0.3750
23301W        W40148  14.833  13.497   2.619 -0.1066  0.0837  0.2427
23302W        W40149   4.690   6.760   3.716 -0.0162 -0.0469  0.0129
23303W        W40150   7.035   9.741   0.182  0.1534 -0.0940  0.2859
23304W        W40151   7.241  14.370   2.038 -0.1835  0.1490  0.0971
23305W        W40152  13.273   5.269  12.962  0.1419 -0.0962  0.0559
23306W        W40153  17.085  17.992   1.325  0.2017 -0.1702  0.0560
23307W        W40154   2.607   4.963   2.743  0.2122 -0.0269 -0.0694
23308W        W40155   7.861   8.764  12.685 -0.2722 -0.2159 -0.0620
23309W        W40156   4.312  13.423  13.537 -0.1153 -0.0680 -0.0611
23310W        W40157  11.479  12.963  15.228  0.2174 -0.0069 -0.4509
23311W        W40158  16.910   9.195  12.421 -0.2298 -0.0690 -0.3432
23312W        W40159   5.651   1.566   5.039 -0.2430  0.0201  0.1834
23313W        W40160   0.573  13.530   0.079  0.0639 -0.0229 -0.0251
23314W        W40161   4.315  11.701   5.990  0.0729  0.0959 -0.1152
23315W        W40162   0.720   6.082   3.436  0.2197 -0.1999  0.0074
23316W        W40163  12.633   4.546   3.542  0.0239 -0.1103 -0.3567
23317W        W40164   3.685   5.744  11.078 -0.0158 -0.0846 -0.0456
23318W        W40165  14.512   4.639  15.184  0.0116 -0.2721  0.4049
23319W        W40166   3.916   4.780   2.624 -0.0373  0.1591  0.0962
23320W        W40167  12.364  13.465  13.989 -0.0248 -0.2209  0.1536
23321W        W40168   5.579   4.660  13.222  0.1415  0.3039  0.1448
23322W        W40169   9.468   0.878   3.325 -0.2383 -0.0956 -0.0268
23323W        W40170   8.300   4.914   0.610 -0.1925 -0.0850  0.2490
23324W        W40171   0.082  16.822   4.894  0.0524 -0.1018  0.0345
23325W        W40172  10.454   4.972   0.255 -0.1342 -0.4030 -0.1142
23326W        W40173   6.355  17.063  10.772  0.2445 -0.0167 -0.2691
23327W        W40174  14.284   1.594   2.842 -0.0820 -0.1672  0.0223
23328W        W40175   3.025   1.521   5.224  0.1144  0.1759 -0.3094
23329W        W40176   5.131   0.551   3.789 -0.0617  0.0267  0.1235
23330W        W40177  15.725  11.449   0.116  0.1283  0.1291 -0.1835
23331W        W40178  17.472  10.471  13.976  0.1861 -0.2550  0.1944
23332W        W40179   2.512   7.741  10.010  0.0027  0.0459 -0.1060
23333W        W40180   6.768   7.400   4.151 -0.0828  0.0812  0.3960
23334W        W40181  16.674   8.593  13.476 -0.1810 -0.1087  0.1814
23335W        W40182  12.253  14.967  13.560  0.1372  0.0318 -0.0530
23336W        W40183   7.823   3.471  12.681 -0.2433  0.2746  0.0598
23337W        W40184  17.738  14.019   3.567 -0.2646 -0.1457  0.2340
23338W        W40185   0.932   0.452  11.769 -0.5108 -0.0976  0.2498
23339W        W40186  10.693   5.653  14.976 -0.1095 -0.0536 -0.0814
23340W        W40187   9.151   1.210  15.595 -0.1958  0.2756 -0.2713
23341W        W40188  11.218   7.426  12.366  0.1149 -0.1222  0.4009
23342W        W40189   3.982   3.091   4.478  0.0167  0.1333 -0.0733
23343W        W40190   9.724  12.318   1.892  0.2537  0.0469 -0.0147
23344W        W40191  16.432  13.044   5.438 -0.1159  0.0065  0.0362
23345W        W40192  15.497  16.775   5.355 -0.1264 -0.0935 -0.0119
23346W        W40193   1.340  18.226  11.339 -0.1058  0.1453  0.1098
23347W        W40194  11.635  13.834  10.659  0.2995 -0.0780  0.2207
23348W        W40195  14.199  15.288  14.122 -0.1469  0.0968 -0.3238
23349W        W40196   8.604   1.770   5.637 -0.1642  0.0546 -0.0873
23350W        W40197  12.876  16.641  12.418  0.2880  0.0632  0.0168
23351W        W40198   1.501  12.911  14.026  0.0022  0.1895 -0.1942
23352W        W40199   5.939  14.407  11.553 -0.0105  0.1665 -0.1072
23353W        W40200  14.459  13.679   1.038  0.1739 -0.1798  0.0869
23354W        W40201   3.574  13.645   2.644  0.1603 -0.2239 -0.0200
23355W        W40202  15.910  14.367   5.926  0.1650 -0.0113  0.3491
23356W        W40203  16.318   0.588   2.019  0.1854 -0.1193  0.0167
23357W        W40204  15.056   2.759  10.033 -0.0974 -0.1013 -0.2482
23358W        W40205  17.085  12.917   1.087  0.0291  0.2216 -0.1167
23359W        W40206   1.224  12.015  11.207 -0.3642  0.2061 -0.1974
23360W        W40207  16.962  18.329   4.465  0.2980  0.2299 -0.0433
23361W        W40208   1.943  11.660   0.155  0.0637  0.4089  0.0472
23362W        W40209  17.991  14.644  14.183 -0.2097  0.1069 -0.0628
23363W        W40210  14.645  10.747   4.512  0.1372  0.0913  0.0788
23364W        W40211   3.314   2.942  13.948 -0.2462  0.0892  0.1843
23365W        W40212   3.610  12.764  15.024  0.0522 -0.0374  0.0640
23366W        W40213   6.683  14.023  15.885 -0.0977 -0.2461  0.0003
23367W        W40214   8.335   8.150  14.755 -0.1886  0.0327  0.3118
23368W        W40215   8.909   0.944  14.708  0.2554  0.0756  0.3002
23369W        W40216  10.013   9.767   3.023  0.0572  0.1646 -0.0945
23370W        W40217   7.142  11.267   5.787 -0.1842 -0.3063 -0.0135
23371W        W40218  17.645   7.612  12.439 -0.0922  0.0559  0.0546
23372W        W40219   9.493  16.079  15.827  0.1848  0.2223  0.1868
23373W        W40220  18.196   3.377   1.790  0.1577 -0.1266 -0.2347
23374W        W40221   9.321   8.009  15.818 -0.1974  0.2580  0.1071
23375W        W40222  15.174  12.211   2.393 -0.0020  0.2241 -0.1085
23376W        W40223  16.503  12.642  12.257  0.1522 -0.2174  0.1957
23377W        W40224   8.524  14.216   2.263 -0.0413  0.1601  0.1332
23378W        W40225  12.776   0.914  12.130  0.3434  0.2772 -0.3328
23379W        W40226  17.805  17.968   5.857  0.0651  0.0482 -0.1787
23380W        W40227   1.508   1.230   1.328 -0.0067 -0.3994 -0.3933
23381W        W40228   6.792  12.390  12.976 -0.1841 -0.0042  0.5088
23382W        W40229  13.764  10.768   2.266  0.0052 -0.1864 -0.2465
23383W        W40230  16.794  13.249  15.403 -0.2107 -0.1189 -0.1808
23384W        W40231   7.082  17.084  14.073  0.0033 -0.0601 -0.0182
23385W        W40232   4.108  16.409   1.885 -0.4798  0.2348 -0.0453
23386W        W40233  13.481  14.321   4.928 -0.2246  0.3993 -0.1768
23387W        W40234   4.392  17.737   4.639 -0.3985  0.2925  0.0381
23388W        W40235   1.195   0.880  12.959 -0.2057  0.0104 -0.2824
23389W        W40236   6.907   5.055  14.179  0.0545 -0.0234  0.0396
23390W        W40237  14.074   9.058   3.754 -0.0158  0.1218  0.0178
23391W        W40238   3.073  15.124   4.297  0.0916  0.0491  0.2921
23392W        W40239   1.430   9.145  12.071 -0.2498  0.0767 -0.0599
23393W        W40240  14.604  10.198  13.338  0.2973 -0.1870 -0.0359
23394W        W40241  18.113  12.585  12.083 -0.0198 -0.1392 -0.1299
23395W        W40242  12.217   3.103  15.176  0.1584 -0.0415  0.0131
23396W        W40243  15.537  17.379  15.925 -0.0354 -0.0397 -0.1170
23397W        W40244  16.652   8.612   3.674  0.0179 -0.1363  0.2268
23398W        W40245  14.547  13.436   0.580  0.0476 -0.0462 -0.2420
23399W        W40246  11.626   1.732  13.087  0.1952 -0.1571  0.3037
23400W        W40247  15.832  10.258  12.623  0.1352 -0.1346 -0.0121
23401W        W40248  12.201  16.786   4.383  0.1813  0.1581 -0.0350
23402W        W40249  17.898   1.982   0.968 -0.0777  0.1677 -0.1543
23403W        W40250  11.833   9.417  14.752  0.2057 -0.1428  0.0920
23404W        W40251  15.135   7.616  13.276 -0.0363 -0.1699  0.1330
23405W        W40252  11.953  15.484  10.563 -0.1514 -0.0495  0.0125
23406W        W40253   1.393   5.542   0.719  0.2475  0.0265 -0.0295
23407W        W40254   1.978   4.377  11.343 -0.3457  0.4259  0.0187
23408W        W40255   4.079   6.770   0.539 -0.2308 -0.0070  0.1834
23409W        W40256   3.657   7.598  11.703  0.0718 -0.0169 -0.0030
23410W        W40257  18.523   2.995   0.036 -0.0352 -0.2846  0.0040
23411W        W40258  12.998   6.668   4.360  0.1098 -0.2717 -0.0474
23412W        W40259   4.107   4.428   3.982  0.0606  0.0507  0.1160
23413W        W40260  16.086  10.873   4.496  0.1600  0.1042  0.0339
23414W        W40261  15.611  14.453   0.810 -0.0928 -0.3837  0.0644
23415W        W40262  12.003   8.143   0.594 -0.0044 -0.0258 -0.0708
23416W        W40263   1.869   0.153   2.488 -0.2768  0.0074 -0.2082
23417W        W40264   3.296   7.325   5.070  0.2255  0.2340 -0.1687
23418W        W40265  11.003   3.209   4.469 -0.1579 -0.0696  0.0467
23419W        W40266   6.592   7.313  13.057 -0.0598  0.2457 -0.0204
23420W        W40267   6.526  12.133   6.142  0.1225 -0.0355  0.1798
23421W        W40268   9.825   6.652  13.717 -0.1864  0.0325  0.0327
23422W        W40269  10.343  12.648  12.608 -0.0442 -0.0938  0.2798
23423W        W40270   4.743  17.944  14.823 -0.0376 -0.2264 -0.1050
23424W        W40271  11.778  13.442  12.014 -0.0692 -0.1624  0.1075
23425W        W40272  16.980   0.789  15.653 -0.0731 -0.2237 -0.1183
23426W        W40273   0.110  12.833   5.197  0.1078 -0.0317  0.2327
23427W        W40274   8.687  12.473  14.595 -0.0063  0.0244  0.0192
23428W        W40275  10.317  17.081  14.728  0.1670 -0.2518 -0.1547
23429W        W40276  13.686   6.990   1.382 -0.1032  0.0133 -0.0809
23430W        W40277   2.091  15.544   3.901 -0.0793 -0.3461  0.1197
23431W        W40278  17.473  14.319  12.932  0.0573  0.0875  0.1737
23432W        W40279   0.860  11.069  12.224  0.1085  0.2434  0.1124
23433W        W40280  14.548  17.885  11.380 -0.4167 -0.1644 -0.1126
23434W        W40281   2.337  15.452  14.194 -0.2334  0.1505  0.0209
23435W        W40282   1.284  16.718   1.862 -0.0310  0.2592 -0.0437
23436W        W40283   0.343  18.402   4.765 -0.1513  0.1190 -0.2221
23437W        W40284  17.283   2.845  12.989 -0.0677  0.1967  0.1690
23438W        W40285   7.240  15.215   0.877  0.0518 -0.4941  0.0386
23439W        W40286   0.812  13.921   2.623  0.0359  0.2962  0.0526
23440W        W40287   7.424   4.516   5.117 -0.0961 -0.2276 -0.2440
23441W        W40288   2.511   6.887   3.475  0.2320  0.1841 -0.2572
23442W        W40289   1.697  17.359   2.985  0.0838  0.2217 -0.2665
23443W        W40290   9.659  14.231  10.349  0.2257  0.0180  0.2109
23444W        W40291  14.374   8.622  11.954  0.4434  0.1860 -0.2282
23445W        W40292   4.154  13.776  11.958 -0.1612 -0.1013  0.0929
23446W        W40293   5.942   6.226  11.450 -0.2298 -0.1381  0.1698
23447W        W40294   1.724   9.927  11.489  0.0069  0.1619  0.1612
23448W        W40295  14.395  11.449  14.918 -0.0995  0.1279 -0.1971
23449W        W40296   6.239   2.211  11.200 -0.1502  0.0521  0.0975
23450W        W40297   8.525  16.481   3.163  0.2244  0.2402  0.1555
23451W        W40298  11.420   3.383  13.248 -0.4039  0.2465 -0.0142
23452W        W40299   7.852  17.925  10.870  0.2122 -0.1801  0.1584
23453W        W40300  10.626  13.743   5.413  0.0153 -0.3917  0.1457
23454W        W40301   3.077   1.252   1.194 -0.1156  0.2390  0.2110
23455W        W40302   7.191  11.192  11.672  0.0887 -0.0364  0.2928
23456W        W40303  13.881  15.041   0.896  0.0386 -0.0207 -0.1264
23457W        W40304   7.883   2.368  13.730 -0.0720  0.1017 -0.0258
23458W        W40305  17.282  13.177   3.100 -0.1209 -0.2343  0.3373
23459W        W40306  10.614  15.438  14.443  0.1887 -0.0208 -0.2708
23460W        W40307  10.545   9.133  15.081 -0.2619 -0.0882  0.2203
23461W        W40308   1.326  14.010   3.589 -0.0122 -0.2715 -0.1662
23462W        W40309   3.055   7.880   4.794  0.0006 -0.0280 -0.2061
23463W        W40310  17.066  17.124   0.781  0.1570  0.1334 -0.1160
23464W        W40311   2.720  14.107  13.221 -0.0413 -0.3699  0.2565
23465W        W40312   6.441  16.168  14.225  0.1529 -0.3244  0.1362
23466W        W40313  16.393   1.574  15.859 -0.2621 -0.0656 -0.1778
23467W        W40314   8.903   7.313  14.535  0.2349 -0.2820  0.2783
23468W        W40315   7.625   0.865   5.618  0.2246  0.1502  0.2560
23469W        W40316  16.928  13.767   3.101 -0.0207  0.0033  0.0257
23470W        W40317   7.404   5.961  15.051 -0.0397  0.2138  0.0765
23471W        W40318   0.115   7.744   0.604 -0.0388 -0.1737  0.1984
23472W        W40319  13.765  16.863  13.021 -0.1342 -0.1844 -0.1182
23473W        W40320  12.198   1.459   2.283  0.0365  0.3618  0.3361
23474W        W40321   1.233   4.571   4.950  0.1699  0.1292 -0.0425
23475W        W40322   3.110  15.046  11.354  0.2148 -0.0911 -0.0223
23476W        W40323   3.211   8.748   4.144  0.1600 -0.2199 -0.3371
23477W        W40324  11.137  15.459   0.379 -0.0633 -0.0756 -0.0675
23478W        W40325  10.129   6.762  11.129  0.0768  0.0317  0.0129
23479W        W40326   2.919   8.732  13.575 -0.1176  0.3151 -0.0115
23480W        W40327   8.402   7.004  15.799  0.0764  0.3446  0.3078
23481W        W40328  18.324  14.189  11.485 -0.4377  0.0094  0.0178
23482W        W40329   8.288   1.317  14.470 -0.0906  0.1487 -0.0471
23483W        W40330  17.594  12.970   2.317 -0.2130  0.1812  0.0188
23484W        W40331   1.070   7.559  13.901 -0.4111  0.1576 -0.2171
23485W        W40332   3.144   2.851  14.985 -0.1059  0.0656  0.1339
23486W        W40333  18.011  13.176   1.270 -0.0399 -0.0080  0.0811
23487W        W40334   5.408   9.135  13.173  0.2853 -0.0787  0.0017
23488W        W40335  11.690  17.631  15.851 -0.0768  0.1405  0.3231
23489W        W40336  12.562   1.050   5.233  0.0012  0.2203  0.1680
23490W        W40337   9.927  16.604  13.175  0.2308  0.2263 -0.2672
23491W        W40338  16.209   6.207   3.499  0.2480 -0.0213  0.2865
23492W        W40339   0.854   1.522   5.378 -0.1529 -0.2545 -0.0680
23493W        W40340  13.471   4.236  12.942 -0.3581 -0.1599 -0.0119
23494W        W40341  13.432   2.473   0.378  0.1824  0.1990 -0.5792
23495W        W40342  13.026   8.883   1.584  0.1742 -0.1806  0.2461
23496W        W40343   0.068   0.277  11.496 -0.0543  0.2721 -0.5040
23497W        W40344   5.702   5.311   1.142  0.1067  0.3122 -0.1800
23498W        W40345  18.344   7.890  15.737 -0.2617 -0.1430 -0.0329
23499W        W40346   2.490   7.837   5.563 -0.1330 -0.1613 -0.0482
23500W        W40347  12.978   5.793   0.787 -0.1398  0.0934  0.1132
23501W        W40348   9.337  13.408   4.650 -0.0060 -0.3047 -0.0849
23502W        W40349  17.166  17.512   1.542  0.0544  0.0393  0.1396
23503W        W40350  13.333  13.606   2.286  0.0265 -0.0264 -0.0208
23504W        W40351  15.125  11.957   6.099  0.3351 -0.2085  0.3294
23505W        W40352   8.241   8.683   3.954 -0.1079  0.0964 -0.2714
23506W        W40353  15.654   0.253   3.102 -0.2326  0.2533 -0.1457
23507W        W40354   9.438  12.868  12.545 -0.0548  0.1507  0.1926
23508W        W40355   3.453   9.629   1.294  0.1358  0.0389 -0.1373
23509W        W40356  11.531  15.011   3.272  0.1480  0.1252  0.1832
23510W        W40357  10.048   5.353  12.870 -0.0163  0.0637 -0.1964
23511W        W40358  13.407   0.285  12.304 -0.2682 -0.0011 -0.2065
23512W        W40359  14.183   0.600   4.891 -0.0517  0.1380 -0.0392
23513W        W40360  15.823  16.415  12.163  0.0922  0.4476 -0.0320
23514W        W40361   4.344  10.566  14.747 -0.0342  0.0214 -0.1979
23515W        W40362  12.723   0.083  11.844 -0.0437 -0.1904 -0.0420
23516W        W40363  11.909   5.348  12.135 -0.0204  0.0943 -0.1577
23517W        W40364   2.115   8.237  15.946  0.2688 -0.2745  0.1006
23518W        W40365   7.117  14.242  15.664 -0.1296  0.1978  0.0302
23519W        W40366   4.940   7.614   2.313  0.2324 -0.0252 -0.0808
23520W        W40367   1.417  18.061  12.668 -0.1198  0.1804 -0.1597
23521W        W40368  12.248   5.611   9.487  0.1125  0.1629 -0.0710
23522W        W40369   7.189   2.995  15.748 -0.1019  0.0686 -0.2900
23523W        W40370  18.314  16.288   5.068  0.2976  0.2067 -0.0384
23524W        W40371  15.556   9.630   0.684  0.0112 -0.0975 -0.1274
23525W        W40372  14.438   5.258   2.302 -0.1791 -0.1836  0.1448
23526W        W40373   7.046   7.526  14.629 -0.1502 -0.0012 -0.0441
23527W        W40374  11.030  14.730   1.539  0.0611 -0.0827 -0.0941
23528W        W40375  13.306   5.098   3.029  0.1127  0.0943 -0.0565
23529W        W40376   9.563   0.085  13.509 -0.1303 -0.1135  0.0145
23530W        W40377   4.504   9.682  11.634  0.0052  0.0220  0.1767
23531W        W40378   8.248  13.269   0.039 -0.0264  0.2453  0.1434
23532W        W40379   9.844  17.467  13.574  0.0856  0.1193  0.1757
23533W        W40380  16.535   3.378  15.414  0.0362  0.0769 -0.1127
23534W        W40381   9.438  12.051   4.959  0.1664  0.1387  0.2901
23535W        W40382  14.811  14.654  14.205  0.0468 -0.0714  0.1298
23536W        W40383  11.248  10.953   1.354  0.1722 -0.1632 -0.2035
23537W        W40384  11.018  17.727  11.523  0.3698  0.2626  0.1557
23538W        W40385   6.601  17.080  15.655  0.2694 -0.1120  0.3027
23539W        W40386   9.420   7.795   1.294 -0.1484 -0.2620  0.2217
23540W        W40387   2.161  10.884  15.462  0.0011 -0.1414 -0.1272
23541W        W40388   3.325   8.296  15.038 -0.4113  0.1065  0.1225
23542W        W40389  13.021  10.689   1.373  0.1721  0.1560  0.5533
23543W        W40390  17.438   0.897   2.433  0.0178  0.0586  0.3242
23544W        W40391  18.027   5.003   3.326 -0.2078 -0.3054 -0.1029
23545W        W40392   8.281   5.752  11.389  0.0859  0.2702 -0.0643
23546W        W40393   0.390   7.374   0.228 -0.0054  0.2065 -0.3601
23547W        W40394  10.976  18.094   4.397 -0.0293  0.1382  0.3770
23548W        W40395   4.942  18.238   3.510 -0.0298  0.1738  0.1025
23549W        W40396   5.238  10.300  15.197 -0.0158 -0.1961 -0.1544
23550W        W40397   9.964  11.858  15.049 -0.1430 -0.1925 -0.0732
23551W        W40398   8.650  13.969   5.974  0.1363  0.0689  0.0963
23552W        W40399  12.768   3.846   4.661 -0.0032  0.0876  0.0617
23553W        W40400  17.973  16.801   6.408  0.1749 -0.0780  0.1812
23554W        W40401   7.917  13.578  13.201  0.0679 -0.0743 -0.0177
23555W        W40402   7.317   7.843  14.997 -0.1404  0.0930 -0.0334
23556W        W40403   2.263   5.553   0.922  0.1041 -0.2328  0.1357
23557W        W40404   0.193   8.712   2.348 -0.1552 -0.0624  0.0784
23558W        W40405  18.164   4.320  12.443  0.0655  0.0718 -0.2528
23559W        W40406   0.257   9.088  13.007 -0.1391  0.0713  0.2956
23560W        W40407  10.692  17.044  10.768 -0.1103 -0.0084 -0.1021
23561W        W40408   4.255  17.321  13.792  0.7577  0.2044 -0.0687
23562W        W40409   3.064  14.403   4.185 -0.0317  0.0034 -0.2018
23563W        W40410   1.542   3.852   5.119  0.1176  0.0167 -0.0775
23564W        W40411   3.062   0.878   3.019 -0.0786  0.0922  0.1280
23565W        W40412  12.233  12.069   3.267  0.0527  0.0564 -0.0109
23566W        W40413   8.137   8.924  15.115  0.1616  0.0732  0.2084
23567W        W40414   8.443   1.924   3.336  0.0634  0.0715 -0.0477
23568W        W40415   3.816  11.220  13.057 -0.1327  0.0004  0.6762
23569W        W40416  14.900  16.607   0.748  0.0026 -0.1342  0.1591
23570W        W40417   8.945  14.801   3.076 -0.2750 -0.1109  0.1547
23571W        W40418  13.426   6.184   1.664  0.0939 -0.3234  0.1425
23572W        W40419   7.123   7.374  13.177  0.0293 -0.2123 -0.0122
23573W        W40420   9.708   8.391  11.070 -0.0249 -0.1026 -0.0609
23574W        W40421  10.796   1.770   9.526 -0.2457 -0.1979  0.2159
23575W        W40422  12.475   6.405   0.219  0.2161 -0.1545  0.0493
23576W        W40423  11.407  16.571   2.202 -0.0426 -0.0645 -0.1108
23577W        W40424   4.679   3.525   5.138 -0.0459 -0.1666 -0.0478
23578W        W40425   4.985   9.697   4.032  0.2880 -0.0770  0.0714
23579W        W40426   9.340   2.051  10.555 -0.0802 -0.0454 -0.4341
23580W        W40427   4.375  16.972   2.634  0.0217 -0.2961  0.1049
23581W        W40428   0.636   5.814   4.970  0.0492 -0.2214  0.1929
23582W        W40429  14.621  13.032  13.475  0.1536 -0.2756  0.2363
23583W        W40430  10.098   1.356   2.357  0.2485 -0.1168  0.0796
23584W        W40431  13.199   3.105   2.730 -0.0339 -0.0104 -0.1238
23585W        W40432  17.131  15.605   2.007 -0.0441 -0.1572  0.1489
23586W        W40433   7.846   4.740   5.385 -0.0965 -0.2078  0.1707
23587W        W40434  10.834  12.681   3.303  0.0145  0.2443  0.0915
23588W        W40435   2.708  11.545   1.891  0.0944 -0.1617  0.0116
23589W        W40436  17.805  16.860  12.474 -0.0278  0.0007  0.1315
23590W        W40437  14.444   1.733  14.298  0.0306 -0.1513  0.1802
23591W        W40438   4.722   7.501   4.240 -0.0697 -0.0434 -0.1430
23592W        W40439   6.260  12.519   0.552 -0.0819 -0.1561 -0.1684
23593W        W40440   1.283   6.314   3.316 -0.5209 -0.0898 -0.0612
23594W        W40441   4.804   8.710   0.895 -0.1404  0.2149 -0.0477
23595W        W40442   4.270   2.838   0.471  0.1544  0.1786 -0.5448
23596W        W40443   2.756  13.650   3.252  0.1984  0.2086  0.0338
23597W        W40444   1.218  16.155  12.615  0.1677 -0.1577 -0.3003
23598W        W40445  12.591  17.122  12.213 -0.0728 -0.1150 -0.0546
23599W        W40446   0.939  11.049   5.557 -0.3005 -0.2218  0.1391
23600W        W40447   3.350   5.377   1.573 -0.2565  0.0784 -0.1685
23601W        W40448  10.616  16.099  11.910  0.2474 -0.0538  0.0002
23602W        W40449   2.673  16.977   3.504 -0.0632  0.1155 -0.0868
23603W        W40450   1.455  17.490   3.410  0.0729 -0.0674  0.1693
23604W        W40451   7.173   4.170  12.543  0.0523  0.1259  0.3004
23605W        W40452  15.205  18.312  13.664 -0.0669  0.0489 -0.1421
23606W        W40453  18.263   2.316  14.665 -0.4433 -0.0897  0.0261
23607W        W40454  17.530   8.464  14.597 -0.1660 -0.0337  0.2431
23608W        W40455   6.299   6.335   3.947  0.0376 -0.1510 -0.2161
23609W        W40456  16.844  14.081   0.487 -0.0409 -0.2063  0.1635
23610W        W40457  17.176   6.916   3.269 -0.0338  0.1494  0.0263
23611W        W40458  11.997   3.525   2.700  0.0865 -0.0913 -0.0268
23612W        W40459   9.861  17.545  12.066 -0.0070  0.0063 -0.0012
23613W        W40460  18.310  14.370   5.437 -0.0711 -0.0176 -0.1597
23614W        W40461   9.352   5.774  13.895 -0.1085 -0.0704  0.2063
23615W        W40462   7.574  15.778  11.791  0.0561 -0.1598  0.2877
23616W        W40463  15.900   6.917  11.492  0.2635 -0.0212 -0.0392
23617W        W40464  15.943  12.912   2.554  0.0579 -0.1126  0.0677
23618W        W40465   1.356   4.825  14.465 -0.0650  0.2128 -0.2328
23619W        W40466  10.410   4.922  14.346  0.1897 -0.0572  0.2251
23620W        W40467  13.703   4.880   1.137  0.0880  0.1167 -0.1326
23621W        W40468   9.965  13.637   3.610 -0.1913 -0.0933 -0.2016
23622W        W40469   0.776   6.572  15.687 -0.1540 -0.2038  0.1550
23623W        W40470  15.724  13.518   5.065 -0.2755  0.2137 -0.0331
23624W        W40471  11.790   7.651   0.832 -0.2240 -0.1221  0.1931
23625W        W40472   2.261   2.999  13.678 -0.0997  0.2957  0.0755
23626W        W40473   5.238   1.577   3.542  0.3129 -0.0218  0.2128
23627W        W40474   9.559   6.612  12.480 -0.0471  0.0057 -0.1438
23628W        W40475   9.368   1.881  15.171 -0.3681 -0.1273  0.1277
23629W        W40476  17.466  18.444   3.497  0.4168  0.2146  0.1886
23630W        W40477  12.005   0.506  10.677 -0.2074 -0.2688  0.1979
23631W        W40478   3.668  18.327  15.881 -0.4155  0.1655 -0.0336
23632W        W40479   5.309  11.656  15.127 -0.1496 -0.1808  0.0963
23633W        W40480   1.904   9.391   2.227  0.1399 -0.1958  0.0247
23634W        W40481   0.716   2.836  15.709  0.1718 -0.0860 -0.2726
23635W        W40482   2.231  10.645   1.581 -0.0140 -0.2734 -0.1062
23636W        W40483  14.190  15.484  14.613  0.0772  0.0332 -0.0288
23637W        W40484   7.717  12.942  12.138  0.0552 -0.0633 -0.1114
23638W        W40485  14.375   3.038  13.757  0.1385  0.0557 -0.0087
23639W        W40486   2.926   9.577  12.124  0.0437  0.1156  0.2013
23640W        W40487  14.394   4.810   5.129 -0.0156  0.0627 -0.1542
23641W        W40488   3.814  13.458  13.319 -0.0791  0.1456 -0.1412
23642W        W40489   5.365   9.242   4.682 -0.0739  0.0363 -0.0965
23643W        W40490  11.384   0.212   0.962  0.3259 -0.0300 -0.0047
23644W        W40491   2.777  18.348   4.763 -0.1561 -0.2496  0.1315
23645W        W40492  13.210  14.285  14.259 -0.0918  0.1962 -0.1706
23646W        W40493  17.222  13.631  15.239  0.1412 -0.0151  0.0366
23647W        W40494   8.935   9.771   4.800  0.3705  0.1662 -0.1829
23648W        W40495  14.827  10.562   0.466  0.0916  0.0703 -0.3226
23649W        W40496  10.000  14.101  11.556 -0.1492  0.2415 -0.2307
23650W        W40497  14.603   3.095  14.997 -0.0921 -0.1098 -0.1146
23651W        W40498  12.881  14.516  15.326  0.0117  0.0188 -0.1575
23652W        W40499  10.934  13.308   3.192  0.0156 -0.0236  0.1400
23653W        W40500   6.501  16.045   4.032 -0.0244 -0.1649  0.4001
23654W        W40501   2.616  12.394   0.634 -0.0433 -0.0973  0.2124
23655W        W40502  14.590  15.563   0.838 -0.0247  0.2693 -0.0018
23656W        W40503  16.432  15.983   4.825 -0.1550 -0.0240 -0.4044
23657W        W40504  16.487   1.683  14.372 -0.1718  0.2650  0.1867
23658W        W40505  10.575   2.004   4.476 -0.0200  0.0147 -0.2962
23659W        W40506  10.150   2.259  13.573 -0.0206  0.0061  0.0574
23660W        W40507  15.561  15.477  14.675  0.2809 -0.1442 -0.1293
23661W        W40508   6.382  10.307  13.892 -0.4368 -0.0139  0.0645
23662W        W40509  14.982  13.138   4.388 -0.0612 -0.0383 -0.0690
23663W        W40510   6.600  18.319   1.540  0.0299  0.1523  0.3184
23664W        W40511  16.523  14.806  13.738  0.0749  0.2026 -0.2813
23665W        W40512  13.781  15.611  11.719  0.0427  0.1629  0.1152
23666W        W40513   9.080  17.779  15.146 -0.0051  0.3158 -0.1715
23667W        W40514   8.930  11.167   1.963  0.1886 -0.3615 -0.1924
23668W        W40515  14.594   0.543  15.013 -0.0314  0.2759  0.2882
23669W        W40516   2.368   8.860  13.590 -0.1736  0.0610 -0.0117
23670W        W40517   9.301   3.586  11.152  0.2495  0.1386  0.3810
23671W        W40518  14.344   4.012  13.307 -0.2301  0.3958 -0.1045
23672W        W40519   9.289  13.523   2.383  0.1345  0.2160  0.0751
23673W        W40520   3.374   2.891   0.718  0.0951  0.2189 -0.0076
23674W        W40521  17.679   5.085  13.004  0.1892 -0.1468 -0.0922
23675W        W40522   3.889   0.840   2.430  0.4582  0.0504 -0.1962
23676W        W40523   8.447   9.665   1.294  0.0665  0.1578  0.0492
23677W        W40524  18.039  15.679   5.077 -0.0652  0.2597 -0.0689
23678W        W40525   0.906   2.519   2.827  0.1000 -0.4879 -0.0979
23679W        W40526   7.737  16.163   2.707 -0.0856  0.4962 -0.0415
23680W        W40527  13.511   2.258  12.033 -0.1149 -0.1919  0.1196
23681W        W40528  12.558  16.262  12.480 -0.0304  0.4045 -0.0606
23682W        W40529   8.300   5.677   2.404  0.2248 -0.2113 -0.2022
23683W        W40530   8.486  13.556  14.514  0.2251 -0.1914 -0.1573
23684W        W40531   2.722  16.354  10.072 -0.0745 -0.1991 -0.2855
23685W        W40532  14.319   5.863  12.172 -0.0092  0.1453 -0.1960
23686W        W40533   1.866   5.049   2.508  0.2586 -0.1026  0.4720
23687W        W40534   1.419  12.954   0.239 -0.0650 -0.1348  0.0592
23688W        W40535  15.933  11.956  12.319 -0.1621 -0.2383 -0.0595
23689W        W40536  17.317   5.341  15.686  0.0679  0.1471  0.0005
23690W        W40537   6.150   7.840   2.632  0.0313 -0.0454  0.0927
23691W        W40538  14.429   0.005  13.175 -0.1173  0.0953 -0.0869
23692W        W40539   7.242  14.439   4.231  0.0054 -0.1099  0.2782
23693W        W40540   6.078  12.479  13.919  0.1176  0.1028 -0.3010
23694W        W40541  18.070   9.184   4.605  0.0369  0.2789 -0.3749
23695W        W40542  18.415   6.002  14.670  0.0601  0.2427  0.1942
23696W        W40543   9.369  16.731  12.096  0.0766  0.3505  0.0491
23697W        W40544   3.200  14.383   0.932 -0.0113  0.3396 -0.0790
23698W        W40545   2.122  10.182   1.739  0.1145 -0.1878 -0.2223
23699W        W40546   1.056   8.728  13.146  0.0958  0.1443 -0.1376
23700W        W40547  16.231  15.145  14.633  0.0547 -0.0300  0.2779
23701W        W40548   1.006   5.909   0.679  0.1338  0.0086 -0.0881
23702W        W40549   1.195   3.856  14.807  0.1300  0.1472 -0.3388
23703W        W40550  11.436   5.934   9.433  0.3074 -0.0341 -0.1390
23704W        W40551   7.933  12.985   4.884 -0.0360  0.0817  0.0267
23705W        W40552   1.119  14.326   0.290  0.2873  0.0684  0.0299
23706W        W40553  17.697   2.598   4.710 -0.0078 -0.0878  0.0381
23707W        W40554   5.263  18.030   2.172 -0.0636  0.1181  0.0972
23708W        W40555   6.944  12.420  13.928  0.0580 -0.2447  0.0486
23709W        W40556   9.117   4.943  14.389 -0.2124 -0.0530 -0.0018
23710W        W40557   3.374  12.982   6.236 -0.0331 -0.1291 -0.2904
23711W        W40558   0.890   5.213   3.847  0.1798 -0.2917  0.1006
23712W        W40559   9.696   4.582   3.057 -0.0397  0.0490  0.2899
23713W        W40560  15.774   3.674   3.491 -0.3669  0.1286  0.1048
23714W        W40561   7.936   5.560   5.146  0.0475 -0.0498  0.0024
23715W        W40562   5.458   8.585   3.478 -0.0021 -0.3842 -0.0388
23716W        W40563   3.448  16.191   3.751 -0.3515  0.1751 -0.0123
23717W        W40564   6.779  18.025   3.376 -0.1108 -0.0104  0.1806
23718W        W40565   5.849  16.742  12.865  0.0637  0.1797 -0.1940
23719W        W40566   8.478  13.044  11.672 -0.1008  0.2508  0.0364
23720W        W40567   5.178  18.049   3.989 -0.0475  0.0709 -0.0357
23721W        W40568   0.980  17.253   3.628 -0.1532 -0.1092  0.3080
23722W        W40569  13.821  18.441   4.382 -0.0184  0.0020  0.1088
23723W        W40570  18.514   8.715   0.195 -0.0315 -0.1815 -0.2754
23724W        W40571   0.460   3.157   0.001  0.2178  0.0195 -0.1261
23725W        W40572  14.419   2.511  11.824 -0.1962  0.1193  0.1569
23726W        W40573   2.470   0.413   2.567  0.2535 -0.0275  0.0856
23727W        W40574  10.124   0.567  15.268  0.1022 -0.2497  0.2378
23728W        W40575  15.328   7.373   5.316 -0.0856  0.0758  0.3129
23729W        W40576   4.622  17.295  11.031 -0.1444  0.2804  0.2481
23730W        W40577  15.465   5.980   4.964  0.2794  0.0678  0.4561
23731W        W40578   6.479  16.630  15.233 -0.3041 -0.0592  0.0018
23732W        W40579  16.457   3.354  14.044  0.1635 -0.2667 -0.2144
23733W        W40580  10.335   1.764   1.655  0.0064  0.0469 -0.1239
23734W        W40581   5.533  16.754  15.826 -0.0083 -0.0129  0.0894
23735W        W40582  14.048   4.988   3.483  0.0802 -0.0150  0.1584
23736W        W40583   3.592   3.453  12.645  0.0143  0.1952 -0.0210
23737W        W40584   9.726   6.543   0.238 -0.0142  0.2438 -0.3910
23738W        W40585  10.182   3.252   3.645  0.0953  0.2687 -0.0952
23739W        W40586  10.772   5.007   2.451  0.0454 -0.1435  0.0242
23740W        W40587   7.580   8.788   3.278  0.1201 -0.6249  0.2002
23741W        W40588   5.670   5.454   3.516 -0.2550  0.2339 -0.1239
23742W        W40589   7.926   8.586   1.442  0.0906 -0.3112  0.0839
23743W        W40590  12.956   2.771  14.705 -0.3463  0.2403  0.0091
23744W        W40591  14.018  17.306  11.731 -0.2496 -0.0941 -0.2990
23745W        W40592  11.829   3.019  12.237 -0.0102 -0.0264  0.2419
23746W        W40593   2.854   1.873   2.256 -0.0501 -0.0540  0.0021
23747W        W40594   2.634  11.979   5.137  0.2150  0.3922 -0.0184
23748W        W40595  11.398  14.339  14.884 -0.1102 -0.3123 -0.2904
23749W        W40596  12.237   4.948   1.066  0.0278  0.0340 -0.0124
23750W        W40597  13.802   6.610   0.634  0.0382  0.0064  0.3305
23751W        W40598  13.268   5.246  10.456  0.3118 -0.1859  0.1826
23752W        W40599  15.987  12.086  12.838  0.0238  0.1357  0.3028
23753W        W40600  10.191  10.050   4.947  0.0480 -0.0730 -0.4184
23754W        W40601   1.200  12.567  15.390 -0.2575 -0.1097 -0.0901
23755W        W40602   1.204   0.892  11.644 -0.0454  0.0908  0.3068
23756W        W40603   7.169   9.805  11.873  0.0923  0.1876  0.0582
23757W        W40604  17.894   9.665   1.578  0.0299 -0.0127  0.0884
23758W        W40605   8.272   3.989   3.764  0.0891  0.0095  0.1501
23759W        W40606   1.135   5.152   0.986  0.3375 -0.3590 -0.1292
23760W        W40607   4.312   5.214   3.028 -0.2157 -0.2459 -0.0036
23761W        W40608   1.211   3.351  14.152 -0.1661 -0.0691  0.0193
23762W        W40609   8.071  14.101  15.702 -0.1450  0.0099 -0.2541
23763W        W40610  11.170   8.802   1.295  0.3091  0.1363 -0.2534
23764W        W40611  16.642   3.245  11.439  0.1282 -0.3884 -0.0724
23765W        W40612   8.595  10.019   4.526  0.2013 -0.2348 -0.0343
23766W        W40613   0.107   3.349   1.394 -0.1376 -0.2337  0.1758
23767W        W40614  10.920   7.822   5.646 -0.0579  0.1986 -0.2584
23768W        W40615  16.563  10.981   2.115  0.2375  0.2182  0.0289
23769W        W40616  17.880   3.500   4.043  0.0299 -0.0766  0.0463
23770W        W40617   2.085  10.764  13.771 -0.0376 -0.4149  0.0140
23771W        W40618  13.594  15.089  11.798  0.1618  0.0137 -0.0164
23772W        W40619  14.039   9.147   1.598  0.1099  0.2260  0.0785
23773W        W40620   3.853   3.564   4.501 -0.2454 -0.3391  0.0985
23774W        W40621  12.500  11.385  12.139 -0.3482 -0.0428  0.0790
23775W        W40622  10.115   4.806   0.986  0.0680 -0.1225 -0.0537
23776W        W40623   3.291  13.491   3.635  0.4383  0.1604 -0.0456
23777W        W40624   3.580  13.892   3.725  0.0294 -0.0857 -0.1893
23778W        W40625  16.681   9.974   3.839 -0.3344  0.6046 -0.0644
23779W        W40626   3.819   4.785   0.139 -0.3313  0.1894 -0.2407
23780W        W40627   3.115   8.342   2.935  0.0532 -0.0541  0.2887
23781W        W40628   3.363  11.907   0.106  0.0913  0.0088 -0.1051
23782W        W40629  15.409   8.598  15.662 -0.1054  0.0870 -0.0156
23783W        W40630  13.289   3.346  12.537  0.3389  0.1192 -0.1162
23784W        W40631  15.792   6.915  14.736  0.0112  0.2652 -0.0825
23785W        W40632   4.498   5.150   5.412  0.2159  0.0403  0.1608
23786W        W40633   7.687   4.927   1.960  0.0797  0.1484  0.1478
23787W        W40634  16.874  12.408   1.010 -0.2756 -0.1389  0.1059
23788W        W40635   1.351  17.701  11.350  0.0573 -0.1101  0.0340
23789W        W40636   1.010   8.132   2.335 -0.0428  0.1845 -0.0040
23790W        W40637  14.937   7.511  15.585 -0.3348  0.1086 -0.1017
23791W        W40638  11.352   3.612  14.887  0.2434 -0.1665 -0.2689
23792W        W40639   2.586   1.873   6.029  0.0742  0.2866 -0.0487
23793W        W40640   8.460  13.947  12.626  0.1391  0.1192  0.0906
23794W        W40641   5.410  16.764   4.590 -0.1190 -0.0354  0.2343
23795W        W40642   8.777   6.118   4.696  0.0115  0.1527 -0.0257
23796W        W40643   9.667   7.711  12.445 -0.0552  0.0268  0.2112
23797W        W40644  17.159  11.689  13.232 -0.0819 -0.0666 -0.2763
23798W        W40645   8.567  17.982  12.117 -0.0507  0.3310  0.1371
23799W        W40646  10.667   3.501   3.457 -0.3535 -0.0565  0.4747
23800W        W40647   5.588  10.192   0.126  0.0249  0.0225 -0.0076
23801W        W40648   8.210   6.345   1.760  0.3004 -0.1638 -0.0523
23802W        W40649  13.573   1.120  11.887 -0.0891  0.0251 -0.1574
23803W        W40650  17.835   0.708   0.061 -0.0381  0.1251 -0.2005
23804W        W40651   0.202   7.772   0.030 -0.3062 -0.1214 -0.2401
23805W        W40652  10.128  10.842   5.111  0.0034 -0.0481  0.1710
23806W        W40653   0.931  10.335   3.126 -0.1333  0.1307  0.1100
23807W        W40654   4.385   2.692   4.077 -0.0448 -0.0550  0.0905
23808W        W40655  18.361   5.578  13.376 -0.1659 -0.2574 -0.1182
23809W        W40656  14.385   3.162   1.815  0.0568  0.2901 -0.1129
23810W        W40657   2.541   8.300  11.650  0.2432 -0.0615 -0.0019
23811W        W40658   2.461   7.440   3.855  0.0557  0.4114  0.1050
23812W        W40659  17.278   3.108  11.467  0.2223 -0.1457 -0.2385
23813W        W40660  14.542  16.315  13.891  0.1172  0.1043  0.0242
23814W        W40661   1.226  17.438  15.475  0.1566 -0.0658 -0.1032
23815W        W40662  15.186   2.937  12.870  0.0089  0.3781 -0.1694
23816W        W40663   7.946  13.955  15.135 -0.0547 -0.3121  0.2070
23817W        W40664   8.265   9.405  15.282 -0.3372 -0.1329 -0.0262
23818W        W40665  15.827   6.940   3.273 -0.3287  0.1851 -0.2907
23819W        W40666   4.722   1.841  11.662  0.1967 -0.1408  0.0648
23820W        W40667   6.949  16.663   2.736 -0.3559 -0.1198 -0.2842
23821W        W40668  10.947   0.927  12.195  0.0597  0.2672  0.1289
23822W        W40669  17.239   3.529   9.774  0.0671 -0.1251  0.3078
23823W        W40670  12.794  12.801   3.977  0.1112  0.2188  0.2511
23824W        W40671   8.903  16.971   3.989 -0.0808 -0.3128  0.1922
23825W        W40672  13.122  13.532   0.830  0.1092  0.0289  0.2610
23826W        W40673  12.647   7.239  15.743  0.2673  0.1319 -0.2922
23827W        W40674  13.790   7.731   1.996  0.5032 -0.0110 -0.2674
23828W        W40675   2.126   7.822  11.590 -0.2636  0.0891  0.0614
23829W        W40676   9.975  10.289  15.484  0.2218  0.1991 -0.3087
23830W        W40677  11.969  15.538   0.603  0.1293  0.5131  0.1205
23831W        W40678   9.728   5.588  15.447  0.0499 -0.1989  0.1197
23832W        W40679   5.142  16.413  15.922  0.0503  0.2535  0.0053
23833W        W40680   6.323  12.042   3.746  0.2267  0.1279 -0.4361
23834W        W40681   7.143  12.989  11.027  0.0652  0.0669  0.0954
23835W        W40682   0.669   8.872  14.252 -0.2272 -0.1707 -0.2366
23836W        W40683   2.622  10.020   1.669  0.2497  0.1242 -0.1587
23837W        W40684  10.994  15.775  13.820  0.0071 -0.3367  0.0139
23838W        W40685  13.592  15.625   4.960  0.1204  0.3670 -0.0210
23839W        W40686   5.387   5.841   1.955 -0.0114 -0.0087 -0.1180
23840W        W40687  12.281   2.053   2.059  0.2068 -0.2333  0.0936
23841W        W40688   0.813  15.025  12.095 -0.2713 -0.3510 -0.3132
23842W        W40689   7.911   5.830  11.867  0.4500  0.1506 -0.0123
23843W        W40690   2.612   8.032   5.086 -0.1021 -0.2641 -0.0180
23844W        W40691  16.553   4.406  11.492 -0.3359  0.0795  0.2226
23845W        W40692   3.501  15.300   4.977 -0.0673  0.1122  0.1500
23846W        W40693   1.951   1.096   3.181 -0.0520  0.3980  0.1794
23847W        W40694   1.764   2.218  14.762 -0.1597  0.3466  0.5017
23848W        W40695   9.127   5.185  10.765 -0.0822 -0.0208  0.1642
23849W        W40696  15.346  17.550   3.617  0.0959  0.2053  0.2316
23850W        W40697  15.718  15.694   1.085 -0.0194  0.0372 -0.0620
23851W        W40698   8.880  14.721  12.278  0.0936  0.1954 -0.0495
23852W        W40699   4.827  14.407   3.262  0.0956  0.2515 -0.1888
23853W        W40700   1.405  11.976  12.915  0.1082 -0.0214  0.0177
23854W        W40701  17.846   0.506   1.329  0.2034 -0.0007 -0.1247
23855W        W40702   2.734   2.532  15.141  0.3099 -0.2938 -0.4871
23856W        W40703   5.873  16.603   5.644  0.0404 -0.0431  0.2905
23857W        W40704   8.450   2.629  15.363 -0.3548  0.3049 -0.1822
23858W        W40705   4.816   9.241  14.824  0.1380 -0.0567  0.0318
23859W        W40706  15.712  15.324   1.941  0.1402  0.1661 -0.0627
23860W        W40707  11.392   6.839  12.601  0.1084 -0.1939  0.2818
23861W        W40708  16.692  16.451  12.967 -0.2042  0.0131 -0.0983
23862W        W40709   6.131  14.627   0.283 -0.2188 -0.1252  0.0942
23863W        W40710   2.431   0.082  12.444  0.0378  0.0010 -0.1516
23864W        W40711   2.098  10.260   0.755 -0.1061 -0.2085 -0.2383
23865W        W40712  14.911   2.638   0.335 -0.3163  0.1468  0.1544
23866W        W40713  16.704   0.758   1.711 -0.2380  0.2410  0.0780
23867W        W40714   0.985  12.923   3.403  0.0043  0.0194  0.2184
23868W        W40715   6.112  18.055   4.322 -0.1091 -0.1423 -0.0236
23869W        W40716  15.064  12.596   5.338  0.0485  0.1172 -0.0638
23870W        W40717  16.478  11.429  15.484 -0.2241  0.3166  0.1072
23871W        W40718   7.700  14.823  12.614 -0.1973  0.1477  0.0836
23872W        W40719   5.876  10.148  13.767 -0.1155 -0.1798  0.1645
23873W        W40720   4.664   3.313  10.959 -0.3914  0.0924 -0.2888
23874W        W40721  18.146  18.346  13.197 -0.0934  0.1495  0.1750
23875W        W40722   6.965   1.860  12.169 -0.0117 -0.0556  0.0425
23876W        W40723   7.764   6.273  15.872 -0.0510 -0.0045  0.1843
23877W        W40724   7.040   6.253  14.215 -0.1828 -0.2249  0.0265
23878W        W40725  14.422  14.216   2.331  0.0352  0.1218  0.4161
23879W        W40726   4.750  16.120  11.234  0.1796 -0.1140 -0.0629
23880W        W40727  12.587  10.485   2.009 -0.2566  0.2069  0.1649
23881W        W40728   3.388   4.692   0.681  0.0304  0.0234  0.0442
23882W        W40729  16.129   7.803   3.778 -0.1690 -0.1320 -0.1862
23883W        W40730   3.086   4.729  15.407  0.1251  0.3206  0.0721
23884W        W40731  12.124  10.740   5.161  0.1023  0.2207  0.2665
23885W        W40732  16.814   0.478   2.086 -0.0065  0.0788  0.0099
23886W        W40733  12.116  14.305   5.377  0.1286  0.1320  0.0421
23887W        W40734   7.944   9.780  15.367  0.0109 -0.1146  0.2133
23888W        W40735  12.359   6.998  11.340 -0.1227  0.3635  0.1599
23889W        W40736  15.904  17.988   2.156 -0.1386  0.1221  0.1398
23890W        W40737   7.969   9.136  13.823  0.0442 -0.0731  0.2261
23891W        W40738  11.870   5.960   2.713 -0.2282 -0.0882  0.1348
23892W        W40739  17.931  16.148  14.408 -0.1588  0.2679  0.2086
23893W        W40740  12.443   8.821  11.812  0.2688 -0.0381 -0.1023
23894W        W40741   2.244  15.005   4.608  0.1567  0.0154  0.1689
23895W        W40742  10.964  11.490   2.822 -0.1334 -0.1670 -0.1076
23896W        W40743  12.342   7.781   0.875 -0.1455  0.0795  0.2567
23897W        W40744  12.974   8.522   2.862  0.3005  0.0335  0.1684
23898W        W40745   2.864   3.178   2.343 -0.0877  0.0088 -0.0481
23899W        W40746   7.062  18.162   2.420 -0.0047 -0.0368  0.0089
23900W        W40747  11.783   9.650  12.715  0.1491 -0.2450 -0.2440
23901W        W40748   2.295   1.160  14.458 -0.5475  0.3824 -0.1480
23902W        W40749   0.866   0.602   3.551 -0.1397  0.1555 -0.1554
23903W        W40750   2.671   3.947  15.066 -0.0821 -0.0736  0.0083
23904W        W40751  16.985  10.814   1.952  0.2316  0.0689 -0.3061
23905W        W40752  13.815  18.016  12.713 -0.2679 -0.1863  0.0896
23906W        W40753   0.708   7.704  15.399  0.0562 -0.0610  0.0020
23907W        W40754   4.442  17.637  12.816 -0.4915 -0.6045 -0.0503
23908W        W40755  13.934  18.104   1.144  0.1386  0.0304 -0.0931
23909W        W40756  18.277  11.557  15.232 -0.1786 -0.0618 -0.1401
23910W        W40757  10.938   1.382   1.990  0.0835 -0.2778 -0.1629
23911W        W40758  14.773   3.029   6.255 -0.3826 -0.1864  0.0878
23912W        W40759  10.730  17.311  12.693 -0.1818 -0.2143 -0.0379
23913W        W40760  15.944  17.374  14.226  0.4052 -0.0758  0.1019
23914W        W40761  11.053  16.363  14.099 -0.2124  0.0437  0.4256
23915W        W40762   9.561  11.904  12.634  0.0529 -0.2359  0.1442
23916W        W40763  11.919   8.102   5.221 -0.2656 -0.0994 -0.1628
23917W        W40764   2.017   9.314   1.398 -0.0132  0.0996 -0.0689
23918W        W40765   5.744   6.302   3.126  0.0091  0.1669  0.1058
23919W        W40766  12.957   3.361   5.377 -0.1931 -0.0789 -0.2011
23920W        W40767   5.894   0.058   0.783 -0.1113 -0.0317 -0.2214
23921W        W40768  15.675  16.015   0.170 -0.0389  0.0800  0.1943
23922W        W40769   1.946  17.497  13.295 -0.0418  0.0921  0.2792
23923W        W40770  16.198   9.767   3.685 -0.1048 -0.2463 -0.1734
23924W        W40771   3.089   7.279   4.239  0.0221  0.3907 -0.0245
23925W        W40772  13.436   4.087   4.579 -0.1209 -0.1211 -0.3252
23926W        W40773   0.565  11.384  12.507  0.1672  0.2581 -0.1249
23927W        W40774  16.452   0.883  14.271  0.0474  0.0912  0.0210
23928W        W40775  17.883   3.156   1.290 -0.0729  0.2984  0.0737
23929W        W40776  17.018   3.012   1.683  0.3190 -0.1899 -0.2971
23930W        W40777  18.107  16.283   4.319  0.0763  0.1107  0.0727
23931W        W40778   4.449   4.270   5.507  0.1256  0.1646 -0.0268
23932W        W40779   9.556  12.131   1.348  0.1213  0.2164  0.0466
23933W        W40780  16.752   8.498  13.014  0.2135  0.1623 -0.1046
23934W        W40781   2.962  17.889   4.918 -0.0284 -0.0105 -0.0749
23935W        W40782  16.875   8.958  12.982  0.3449  0.0398  0.0709
23936W        W40783  17.990  14.118  12.448  0.2708 -0.2358 -0.0856
23937W        W40784  14.732   5.003   4.110 -0.0485 -0.0020  0.3203
23938W        W40785   6.247   1.013   6.112 -0.0716 -0.2667  0.0724
23939W        W40786  10.115  12.375  14.206  0.2553  0.0430  0.0343
23940W        W40787  16.701   2.780  13.069  0.2399  0.1135 -0.2582
23941W        W40788   1.270   7.158  14.791 -0.1010  0.2331  0.1563
23942W        W40789   2.105  10.510   4.646 -0.3016 -0.0262  0.1171
23943W        W40790   4.315   7.673  11.571  0.1661  0.1601 -0.1635
23944W        W40791   3.707  18.452  11.618  0.2644 -0.2584 -0.2718
23945W        W40792  14.994   0.809   0.712  0.0201 -0.0157 -0.2050
23946W        W40793  12.566  18.266   1.199 -0.4575 -0.2282  0.1297
23947W        W40794   9.028   7.904   0.922  0.1456 -0.3555  0.1378
23948W        W40795  17.120  10.311   4.585  0.2848 -0.1270  0.0425
23949W        W40796   3.463   8.490   5.277  0.0678  0.2102  0.0799
23950W        W40797   1.938   7.460   2.587  0.0438  0.2953 -0.0565
23951W        W40798  18.271  16.110  13.636 -0.5495  0.0844  0.3107
23952W        W40799   2.668   9.395  15.542  0.1103  0.0280 -0.1803
23953W        W40800  10.543   2.449   3.602 -0.1282  0.2038  0.1622
23954W        W40801  15.949  15.885   3.272  0.0060 -0.2152  0.1605
23955W        W40802   0.963  11.287   4.228 -0.1371  0.1695 -0.1577
23956W        W40803   6.707   2.577  10.898 -0.1038 -0.2015 -0.2470
23957W        W40804   8.052  10.391   4.425 -0.0533  0.0380  0.2441
23958W        W40805  17.010  12.496  15.858 -0.3988  0.1379 -0.0956
23959W        W40806   9.333   3.286   0.819 -0.3076  0.3533  0.1453
23960W        W40807   2.657  16.761  13.600  0.2355  0.1727 -0.3445
23961W        W40808  18.114   7.446  15.667  0.1187 -0.0227  0.1701
23962W        W40809  18.159   5.586  14.724  0.1187  0.1958  0.0784
23963W        W40810   7.053   0.662  14.601 -0.1660 -0.2917  0.1797
23964W        W40811   3.068   1.795  10.258 -0.2234  0.1034  0.1139
23965W        W40812  16.591   5.471   4.513  0.0804  0.1291  0.2420
23966W        W40813   2.153  15.297  12.940 -0.0521  0.3089  0.1311
23967W        W40814   6.760  13.002  13.574 -0.0950 -0.3003 -0.2273
23968W        W40815  16.245  10.490  12.379 -0.3239  0.1362 -0.0695
23969W        W40816  14.124  15.421   1.037  0.0511 -0.2559 -0.1893
23970W        W40817  15.375  14.124  14.766 -0.2550  0.1148 -0.0523
23971W        W40818   6.237   3.626  15.358 -0.0880  0.0981  0.0553
23972W        W40819  15.430  16.388   2.755  0.0707  0.0589  0.0731
23973W        W40820   1.474  15.039  14.620 -0.3739  0.1057 -0.0807
23974W        W40821   5.118   4.844  13.251  0.1787  0.0726  0.2300
23975W        W40822  17.966   7.703   4.156 -0.2767  0.0049 -0.1018
23976W        W40823  14.803   3.879  12.059 -0.0686 -0.0660  0.5214
23977W        W40824  16.322   5.411   4.000  0.1942  0.0303  0.0073
23978W        W40825  16.230   0.474  13.890  0.2202  0.1835 -0.0064
23979W        W40826   0.804   6.269  13.410  0.3893  0.2503 -0.3406
23980W        W40827   4.935   7.476  14.036  0.1167 -0.1918 -0.2703
23981W        W40828   9.363  11.957  13.122 -0.2411 -0.1943 -0.2002
23982W        W40829   3.643  13.835   4.931  0.4021 -0.2638 -0.0691
23983W        W40830  17.706   5.678  11.112 -0.0055  0.2661  0.1243
23984W        W40831   9.032  15.427   1.357  0.3323 -0.0430 -0.0166
23985W        W40832   4.236   5.177   1.756  0.0799  0.1069  0.0991
23986W        W40833  10.345   1.567   3.723  0.0995 -0.2128  0.1163
23987W        W40834   0.768   0.817  11.383 -0.2314  0.0976 -0.1159
23988W        W40835  10.373   1.794  15.033 -0.1782  0.1706 -0.1394
23989W        W40836  17.880   0.210  14.027  0.0449 -0.4024 -0.0960
23990W        W40837   1.372   5.329   1.983 -0.1139 -0.1692 -0.1798
23991W        W40838   2.774   6.571   3.140  0.3033  0.2548 -0.5044
23992W        W40839   5.959  10.666  13.909  0.2019  0.0543 -0.1446
23993W        W40840  13.022  14.078   4.655 -0.0019  0.1379 -0.2130
23994W        W40841   2.807   0.344   2.153 -0.0771  0.3198 -0.0898
23995W        W40842  14.189  13.295   2.752  0.3162 -0.3042 -0.2290
23996W        W40843  17.108   4.110   3.854  0.1086  0.1704 -0.2275
23997W        W40844  15.899   9.952  15.580  0.4066 -0.1942  0.0927
23998W        W40845   9.755   4.699   5.899  0.2070  0.2171  0.0754
23999W        W40846  17.964  14.598  11.582  0.0237 -0.2063  0.1423
24000W        W40847  15.369  14.793   0.545  0.2167  0.2037 -0.2381
24001W        W40848  15.375  18.178   0.591  0.2280 -0.1916 -0.3074
24002W        W40849  12.831   1.950  14.604  0.3614  0.1311 -0.3387
24003W        W40850   5.026   8.429  12.799  0.0208 -0.1654 -0.1309
24004W        W40851  10.639  14.767   0.724  0.2150 -0.2244  0.1230
24005W        W40852  14.491  10.318   0.776  0.2607  0.3917  0.1160
24006W        W40853   7.244   8.024  10.722  0.1547  0.0359 -0.1278
24007W        W40854   5.901   7.227  15.373 -0.0924  0.0474 -0.2327
24008W        W40855  11.185   4.111  13.080 -0.1327  0.1436 -0.0588
24009W        W40856  11.629  13.478  12.546 -0.1410  0.0212  0.1455
24010W        W40857   6.983  11.001  12.954 -0.0572 -0.1394  0.1225
24011W        W40858   0.711  14.465  12.260 -0.2254 -0.1478 -0.0643
24012W        W40859  18.151   1.183   1.635 -0.0721  0.0920  0.0151
24013W        W40860  13.003   7.964  11.714 -0.1621 -0.1782  0.0390
24014W        W40861   9.318  16.746  13.472  0.0968  0.1593 -0.2261
24015W        W40862   4.737  12.001   6.195  0.3385  0.1223  0.2123
24016W        W40863  11.313   5.989  12.758 -0.2031 -0.1007 -0.0419
24017W        W40864  14.771  13.951   4.912  0.0271  0.1133 -0.2774
24018W        W40865   4.426   0.397  14.948  0.1400  0.1006 -0.1819
24019W        W40866  16.770   8.911   4.698 -0.0366  0.1638  0.1024
24020W        W40867  18.281   0.020  13.634  0.2532 -0.2531  0.1736
24021W        W40868  13.631  15.253   5.711  0.1761  0.1946 -0.2643
24022W        W40869   7.701   1.715   5.380 -0.1556  0.1919 -0.2908
24023W        W40870   5.392  15.098   0.203  0.2171  0.5413  0.0719
24024W        W40871   6.069   8.689   5.338 -0.0033 -0.1133 -0.0531
24025W        W40872   4.985  16.876  15.078 -0.2862 -0.0912  0.0575
24026W        W40873   3.330   0.113  12.300  0.0711  0.0328 -0.0989
24027W        W40874   5.528  12.965   4.211 -0.1244 -0.3686 -0.1686
24028W        W40875   4.744   5.932   3.262 -0.3095 -0.0259 -0.0726
24029W        W40876   6.862   7.566  13.793 -0.0397  0.1025 -0.1860
24030W        W40877   7.734   6.739   3.095  0.1927 -0.0899 -0.1187
24031W        W40878  16.047  16.911  14.478 -0.2110  0.0577 -0.1662
24032W        W40879   1.019  18.342   0.028 -0.1687  0.2187  0.0674
24033W        W40880   1.126  14.497  10.912 -0.2752  0.2691 -0.0085
24034W        W40881  18.426   1.381   3.025 -0.1226 -0.1729  0.0890
24035W        W40882  14.203   3.809   2.810  0.0443  0.0767  0.0940
24036W        W40883  15.037   9.935  13.125 -0.1252  0.0147  0.2286
24037W        W40884  12.616   3.768  14.316 -0.0484 -0.1898  0.0874
24038W        W40885   1.555  16.059  12.991  0.2673 -0.0644 -0.0192
24039W        W40886  17.992  13.047  15.234  0.2401  0.2433  0.0559
24040W        W40887   6.858  15.141  15.207 -0.1632 -0.3307 -0.0136
24041W        W40888   8.997  11.340  13.612 -0.2164 -0.0055  0.0162
24042W        W40889  16.068  13.467   0.062  0.0403  0.3502 -0.0874
24043W        W40890  10.643   8.075  15.558 -0.0953  0.3300 -0.3377
24044W        W40891   8.645   5.802  14.669  0.2312  0.3780 -0.1347
24045W        W40892  10.689   7.089   4.930 -0.2137 -0.1537  0.0325
24046W        W40893   3.715   2.793  15.375  0.1062 -0.0293 -0.2158
24047W        W40894   8.471  15.897   3.979  0.1944 -0.2822 -0.1255
24048W        W40895  12.747  11.655  11.106 -0.0873 -0.0229  0.0779
24049W        W40896  12.813  12.945   0.089 -0.0683  0.1104  0.0778
24050W        W40897   7.702   8.618   4.629 -0.0085  0.0846  0.5040
24051W        W40898   8.731   8.753  13.661 -0.3346 -0.0661 -0.1920
24052W        W40899   2.159  12.529   3.162  0.0163  0.1370  0.2022
24053W        W40900  10.716   0.429  11.300 -0.2826  0.3391  0.1584
24054W        W40901   9.125  15.323  13.597 -0.1781 -0.5100 -0.0027
24055W        W40902   9.567   5.526  12.696 -0.1731  0.1251  0.0085
24056W        W40903  18.388   1.919   2.180  0.1969 -0.1343 -0.1274
24057W        W40904  12.150   6.310  14.520  0.3518 -0.0600 -0.1384
24058W        W40905  14.131  17.586  10.468 -0.0573  0.0152 -0.1191
24059W        W40906  10.423   5.610  11.025 -0.2148 -0.0880  0.1899
24060W        W40907  18.467  14.607   3.984  0.2615  0.3807 -0.2654
24061W        W40908  14.743   9.487  13.019  0.2179 -0.0568  0.3807
24062W        W40909  15.273   7.550   1.558  0.0234  0.1213 -0.1632
24063W        W40910  16.168   6.289   2.686  0.0449  0.0772  0.0483
24064W        W40911  16.249   8.171   4.759  0.1248 -0.1122  0.3477
24065W        W40912   6.440   3.176  11.659  0.0838  0.0297 -0.0303
24066W        W40913  16.001   7.480   2.635  0.0434  0.0689 -0.1987
24067W        W40914  17.312  12.846   0.578 -0.1825  0.2779  0.1293
24068W        W40915   0.818  11.840  13.471  0.0845 -0.4023 -0.0915
24069W        W40916  12.361  11.964  14.073  0.3314 -0.0314  0.2272
24070W        W40917  16.524  12.177  13.031  0.1507 -0.0422 -0.0882
24071W        W40918  16.360  13.780  13.386 -0.1603  0.3379 -0.0063
24072W        W40919   5.837   4.692   3.720  0.2025 -0.2115 -0.2139
24073W        W40920   0.843   8.079   4.556  0.0167 -0.1213  0.1154
24074W        W40921   7.750  16.899  15.845  0.2584 -0.2785  0.1223
24075W        W40922   7.122   5.496   1.245  0.0241  0.1596  0.2102
24076W        W40923   2.733   3.727  11.107 -0.1032  0.0923  0.0256
24077W        W40924   0.925   3.529   2.869  0.1697 -0.1477 -0.2435
24078W        W40925  18.173  16.671   4.724  0.0474 -0.1651  0.4070
24079W        W40926   1.917   5.361  14.720  0.0352 -0.2353 -0.0144
24080W        W40927  12.727   2.008  12.301  0.1044  0.0665 -0.0008
24081W        W40928  17.247   6.128  13.798 -0.3036 -0.0538  0.2204
24082W        W40929   1.200  16.887  15.462 -0.2008  0.2074 -0.2619
24083W        W40930   9.018   0.050  13.520  0.1549  0.1217 -0.0651
24084W        W40931  16.890   1.153  14.707 -0.1264  0.4297 -0.1067
24085W        W40932  17.471   9.942   3.097 -0.0628 -0.0234  0.1426
24086W        W40933   2.853  14.010   4.497 -0.4036  0.2108 -0.1690
24087W        W40934  10.991   4.888  12.101  0.1164 -0.0655 -0.0167
24088W        W40935   5.488   5.454  13.797 -0.0309 -0.0612  0.0978
24089W        W40936  10.820   6.309   5.345 -0.2215  0.0592  0.2593
24090W        W40937   8.119   7.536  13.937 -0.2444 -0.1263 -0.0321
24091W        W40938  14.786  14.137   1.929 -0.3145 -0.1846  0.3019
24092W        W40939   2.745  14.889   4.600 -0.0126  0.0819  0.4277
24093W        W40940   0.941   0.652   4.952  0.0186 -0.0271 -0.0535
24094W        W40941  13.504  14.552  14.611  0.1247  0.1172 -0.2543
24095W        W40942  11.168   9.038  14.245 -0.2975  0.3080 -0.1189
24096W        W40943  18.413  11.743  13.337 -0.0695 -0.0797 -0.1814
24097W        W40944   0.355   5.697   5.622 -0.1403  0.2304  0.0556
24098W        W40945   2.380  14.573  15.711  0.1668  0.0207  0.1877
24099W        W40946   8.470   4.899   4.113 -0.0387  0.1013  0.2754
24100W        W40947  10.969  17.362   3.759 -0.1201  0.0301  0.1000
24101W        W40948   9.214   6.528   2.584  0.3026  0.2161  0.6501
24102W        W40949   5.150  15.319  11.710 -0.1642 -0.0693  0.0789
24103W        W40950   0.492  17.362  14.833 -0.2056 -0.1893 -0.3132
24104W        W40951   6.949   4.789   0.820 -0.0863  0.1657 -0.1401
24105W        W40952   3.507  16.106  15.028  0.2397  0.0135 -0.0896
24106W        W40953  13.570   1.765   1.574 -0.0672  0.1690  0.4113
24107W        W40954   3.054  14.194   1.363 -0.1160  0.3343  0.2359
24108W        W40955  15.594   2.175   0.263 -0.0015 -0.0237 -0.0862
24109W        W40956  14.591   5.025  13.316  0.1147 -0.0354  0.1351
24110W        W40957  14.384   7.976  12.858  0.2565 -0.2644  0.0217
24111W        W40958   8.685   4.485  11.269  0.1724 -0.1848 -0.0347
24112W        W40959   1.806   5.048   4.092  0.1566  0.3415  0.1009
24113W        W40960   1.296  10.740   4.800  0.0648  0.0177 -0.1530
24114W        W40961  17.749   2.836   5.217  0.0247  0.0490 -0.2298
24115W        W40962  15.306   2.487   3.591 -0.1953 -0.0955  0.0818
24116W        W40963   5.734   2.552  12.022 -0.2150  0.1831  0.1115
24117W        W40964  13.921  16.158   0.934  0.0291 -0.0245  0.1955
24118W        W40965   5.686  10.992   3.469  0.1468  0.3373  0.0179
24119W        W40966  17.070   3.351  12.732 -0.4961  0.1022  0.1783
24120W        W40967  13.086   7.188   0.660  0.1001 -0.0318  0.0930
24121W        W40968  15.817   8.925  12.178 -0.1047 -0.1088  0.0324
24122W        W40969  15.561  17.675   4.842  0.0097 -0.1521  0.1764
24123W        W40970   8.217  18.031   0.918 -0.0860  0.2616 -0.3276
24124W        W40971   6.651  15.585   3.817 -0.2119 -0.0696 -0.0415
24125W        W40972  12.472   6.797  15.764 -0.3155  0.2766 -0.2425
24126W        W40973   6.127  12.168   0.952  0.1306 -0.1784  0.2797
24127W        W40974  13.844  13.658   5.106  0.0137 -0.1856  0.1001
24128W        W40975   1.862  11.322   1.257  0.1606  0.0932  0.0284
24129W        W40976   3.763   9.825   3.167 -0.0480 -0.0908  0.0035
24130W        W40977   3.112   6.068   3.443  0.1324 -0.2004 -0.1429
24131W        W40978   5.897  12.252   2.590  0.3757  0.2062  0.1627
24132W        W40979  10.366   8.308  15.164  0.1212  0.3954  0.0783
24133W        W40980  15.549  18.297   4.951 -0.1564  0.1847  0.2614
24134W        W40981  18.339  12.061   4.399 -0.1074 -0.0064  0.1409
24135W        W40982  13.227  17.124   4.679  0.2987 -0.3062  0.0660
24136W        W40983   2.970   3.517  15.173 -0.1593  0.0993  0.0345
24137W        W40984   6.172   9.410   3.278 -0.1368 -0.1807 -0.1901
24138W        W40985  16.319   5.023   2.570 -0.1831  0.0423 -0.2866
24139W        W40986  16.202   4.060   1.995  0.1601 -0.1090 -0.1951
24140W        W40987   3.547   8.026   3.869  0.1905 -0.3148 -0.0641
24141W        W40988   2.097   8.569   4.004  0.1184 -0.0807 -0.2250
24142W        W40989   6.966  15.648   1.699 -0.3062  0.0355  0.0932
24143W        W40990   7.545  11.381   1.680 -0.2471  0.0753 -0.0437
24144W        W40991  11.457   8.366  14.744  0.1267 -0.1835 -0.1610
24145W        W40992   7.109  11.747   3.776 -0.0595  0.0592  0.3547
24146W        W40993   6.270   2.594   0.114 -0.2026  0.0092 -0.2994
24147W        W40994   9.766   1.296  14.069  0.0769  0.1146  0.1736
24148W        W40995  13.072   4.203  14.906  0.0467 -0.0209  0.1826
24149W        W40996  12.849  14.911  12.371  0.1858 -0.0220  0.2040
24150W        W40997   9.799  15.469   1.802 -0.1394  0.2023  0.1775
24151W        W40998  15.948  17.966   5.150  0.2449 -0.0853 -0.0601
24152W        W40999  12.288  17.615   3.539  0.4539  0.5160  0.1228
24153W        W41000   6.803   5.912  14.496 -0.0567  0.4685 -0.2479
24154W        W41001   4.429  14.505   2.115  0.1387 -0.0381  0.1913
24155W        W41002   9.248   5.222  12.265  0.2054  0.0326  0.3931
24156W        W41003   1.435   2.861   3.664  0.1700 -0.0869 -0.2249
24157W        W41004  17.364  16.681   3.736  0.3569 -0.2768 -0.1678
24158W        W41005   8.254   0.124   4.272 -0.0423 -0.2837 -0.3682
24159W        W41006  12.064   3.143  10.039  0.1323 -0.2695 -0.0084
24160W        W41007   9.862   1.694  15.337 -0.0409 -0.0743 -0.1378
24161W        W41008  16.256   7.880   5.617 -0.2432 -0.0072  0.1764
24162W        W41009  16.889   0.280   4.461 -0.1055 -0.2726 -0.0230
24163W        W41010   4.576  14.572   6.106 -0.0897 -0.2767  0.0908
24164W        W41011   1.451   5.721   1.242  0.1171 -0.3495  0.0176
24165W        W41012   9.983   4.897   2.718  0.2503  0.0045  0.1008
24166W        W41013   6.283  11.295   4.865  0.0024  0.0930 -0.2788
24167W        W41014  10.408   7.509   2.683  0.0337  0.0657 -0.3287
24168W        W41015  12.525  14.926  10.847  0.1344 -0.1125 -0.1765
24169W        W41016  13.489  15.173  12.867  0.0123 -0.0674  0.0664
24170W        W41017  15.066   3.095   0.530  0.0623  0.1499  0.0376
24171W        W41018   2.963   3.461  12.061 -0.0662 -0.2225  0.2636
24172W        W41019   0.615  13.712  13.568 -0.3325  0.0692 -0.0170
24173W        W41020  10.339   3.817   2.058 -0.2552 -0.0069  0.1318
24174W        W41021   4.232   6.369   0.881 -0.0390  0.0786 -0.0657
24175W        W41022  12.103  17.428   3.960 -0.0808  0.1484  0.0350
24176W        W41023   9.203  10.067   5.355 -0.3063  0.1577  0.1633
24177W        W41024  10.059   8.097  11.209 -0.2728  0.1798  0.1193
24178W        W41025  15.622   5.337  12.526 -0.1135 -0.2840 -0.0529
24179W        W41026   0.931  12.913   0.168 -0.0507 -0.1637  0.3585
24180W        W41027  10.906   3.107  14.972  0.3162  0.0206 -0.0301
24181W        W41028  11.128  15.132   3.706  0.0113 -0.2795 -0.0746
24182W        W41029   3.732   8.914   0.274 -0.1698  0.0771  0.1311
24183W        W41030   0.852   5.292   5.199 -0.0377  0.0150 -0.0290
24184W        W41031   1.008   8.025   4.037  0.1080  0.1318 -0.1565
24185W        W41032   7.553  13.768  12.924 -0.2703 -0.1345  0.2068
24186W        W41033   4.369   7.521  13.284  0.3529  0.1656  0.1691
24187W        W41034  16.428   6.800  12.374  0.3138  0.2840 -0.1130
24188W        W41035   1.598  14.660  11.040  0.1549  0.2439 -0.0182
24189W        W41036   6.899  16.595  13.912 -0.1469  0.0716  0.0157
24190W        W41037  18.101  14.129  12.969 -0.0427 -0.1022 -0.3433
24191W        W41038  15.151   7.681  14.379 -0.0833  0.1171  0.1704
24192W        W41039   0.392   8.206  15.795  0.0305 -0.0134  0.1276
24193W        W41040  16.518  11.282   4.820  0.1054 -0.0631  0.2756
24194W        W41041   0.684   6.169   4.575  0.0673  0.0141  0.1169
24195W        W41042  14.502   8.994  12.837 -0.0273 -0.1279 -0.1128
24196W        W41043   6.449  10.546   3.014  0.0397  0.3329 -0.0418
24197W        W41044   7.452   7.042  12.807  0.3355  0.1478 -0.0173
24198W        W41045  11.718  15.884  13.916 -0.0856 -0.1291  0.0869
24199W        W41046  18.329   6.026   5.002  0.0790 -0.3266  0.1263
24200W        W41047  18.486  14.465  14.185 -0.4069  0.2615  0.2765
24201W        W41048  16.337   8.234  13.168 -0.1117  0.1846  0.1519
24202W        W41049  18.249  16.783   3.187 -0.0612 -0.0852 -0.2859
24203W        W41050   0.104   5.602   4.341 -0.1002  0.1784 -0.0426
24204W        W41051  17.571   2.427  14.687  0.2439 -0.3343 -0.1268
24205W        W41052   5.276   4.352   4.401  0.2346  0.2001  0.0924
24206W        W41053   8.562   1.093   2.965 -0.0292  0.0860 -0.2815
24207W        W41054  15.549  12.239   2.114  0.0180 -0.0466 -0.0564
24208W        W41055   7.070   4.724  15.285  0.1381  0.0783  0.1077
24209W        W41056  16.016  11.154   2.873 -0.1802 -0.0792 -0.2127
24210W        W41057   5.406  12.175   1.153  0.0742 -0.0106  0.2684
24211W        W41058  17.333   4.286  12.488 -0.1148  0.0464 -0.0975
24212W        W41059   4.751  18.356  15.865  0.0163  0.3385  0.2286
24213W        W41060   9.127  12.412  14.813 -0.1063  0.0365  0.0653
24214W        W41061  11.418   9.138  11.235 -0.1134  0.2217  0.0739
24215W        W41062  12.016  16.972   5.669 -0.2385 -0.2917 -0.3400
24216W        W41063   2.930  13.331  11.905  0.0349  0.2186 -0.0510
24217W        W41064  16.340  15.275  10.627 -0.0962  0.2283 -0.1196
24218W        W41065   4.627  10.039   0.945  0.0256  0.1880 -0.1724
24219W        W41066  15.216  17.341  13.186 -0.2242  0.1776  0.0269
24220W        W41067   9.161   8.333   5.818  0.2457 -0.0959  0.0433
24221W        W41068  17.316   2.880  12.461  0.3458  0.0874  0.0708
24222W        W41069  16.225   8.614  12.090 -0.1812  0.0525  0.3600
24223W        W41070  18.423  18.213   3.436 -0.2667 -0.2217  0.0862
24224W        W41071   1.231  15.135   5.541 -0.2673 -0.0232 -0.0005
24225W        W41072  15.925   5.588  12.913  0.1178  0.5468  0.2575
24226W        W41073   8.084  13.389   0.523 -0.2341  0.1706 -0.0286
24227W        W41074  15.842   2.139  13.020 -0.1473  0.1827  0.1444
24228W        W41075   2.256   3.885   0.596  0.1654  0.1130 -0.4136
24229W        W41076  17.478   4.728   1.583 -0.2715 -0.0541  0.0490
24230W        W41077   8.624   9.968  13.460 -0.0237 -0.1596  0.0461
24231W        W41078  14.902  12.843  12.736  0.0950 -0.1353  0.3012
24232W        W41079   0.823   2.718   2.254 -0.2308  0.3772 -0.0914
24233W        W41080   3.041  11.143   2.974  0.2156 -0.0843  0.1843
24234W        W41081   2.284  10.056   2.727  0.1498  0.1170 -0.0995
24235W        W41082   4.367   1.307  11.642 -0.1080  0.1882 -0.2192
24236W        W41083  12.345   4.670  13.658  0.0775  0.0409 -0.2160
24237W        W41084   9.614  17.282   2.643 -0.4402 -0.3756 -0.0423
24238W        W41085  15.954   4.958  13.537 -0.3501 -0.0838  0.4973
24239W        W41086   5.450   0.126  14.129  0.1854  0.0777 -0.1207
24240W        W41087  11.137   1.063  11.476  0.2633 -0.1186  0.2320
24241W        W41088   8.040  12.853  13.452  0.1086 -0.0182  0.1106
24242W        W41089   7.801  14.933   0.727  0.0962 -0.1359  0.3482
24243W        W41090   5.589   0.648  14.015  0.1855 -0.1823 -0.2925
24244W        W41091  10.475   4.426  12.578 -0.0628  0.2375 -0.0341
24245W        W41092  10.705   4.937   1.161 -0.2115  0.1125  0.0156
24246W        W41093  16.659  16.947  13.174  0.1691  0.2172 -0.0539
24247W        W41094   7.398  16.920  12.405  0.1927  0.2488  0.0196
24248W        W41095   4.147   2.595  15.595 -0.2657 -0.0584 -0.2711
24249W        W41096   7.778   8.083  14.671 -0.0495  0.3739  0.0143
24250W        W41097  10.050   8.057   5.643  0.1655  0.2013  0.1144
24251W        W41098  14.005   5.957   3.790 -0.3037 -0.2175 -0.0589
24252W        W41099  16.059   7.157   3.708  0.4890  0.0700 -0.0414
24253W        W41100  11.339  11.799  13.782 -0.0547  0.0497 -0.3345
24254W        W41101  16.147   6.516   3.136  0.0909  0.1178 -0.2333
24255W        W41102   7.298   6.555  12.779 -0.2547 -0.2076 -0.1292
24256W        W41103  13.849   9.822  11.818 -0.1819 -0.0127 -0.1469
24257W        W41104   3.878  14.819   3.490 -0.0145 -0.1850 -0.2633
24258W        W41105  10.999  14.089   1.472 -0.2065 -0.1185  0.0038
24259W        W41106   5.770  10.715  14.755  0.3973  0.0830  0.0330
24260W        W41107   6.725   0.346   3.055 -0.0106  0.1785 -0.2236
24261W        W41108  11.370   7.889   4.072 -0.1061 -0.0369 -0.0242
24262W        W41109   0.062   0.992  14.831  0.0388 -0.1304 -0.2433
24263W        W41110   6.478   9.027  13.968 -0.0042 -0.3761 -0.1765
24264W        W41111  16.099  11.924   0.880 -0.1705 -0.1756 -0.0282
24265W        W41112   0.416   7.152  12.708  0.0419  0.0730  0.0610
24266W        W41113  16.465   9.729  10.888  0.4093  0.0120 -0.0197
24267W        W41114   7.402  17.364   0.060  0.1352 -0.2115  0.1254
24268W        W41115   1.324  11.609  14.546  0.2139  0.0987 -0.3726
24269W        W41116  18.244  13.186  12.738 -0.4191  0.3321 -0.1549
24270W        W41117   2.208  11.450   3.436 -0.1302 -0.3144 -0.2220
24271W        W41118   5.831   2.385   0.095  0.2270 -0.0116 -0.3761
24272W        W41119  12.013  12.613   1.050  0.1689 -0.0622  0.0854
24273W        W41120  16.880  17.840  14.043 -0.1841 -0.2184 -0.1090
24274W        W41121   0.617  14.042  15.593  0.0561 -0.1785  0.3273
24275W        W41122   2.854   8.551  15.696 -0.2632 -0.0348  0.1816
24276W        W41123  11.863   1.452  11.800  0.1685  0.2321  0.2584
24277W        W41124  10.813   3.459  14.158  0.1435 -0.1728 -0.1143
24278W        W41125   9.744   4.804  15.462 -0.2247  0.2567 -0.0171
24279W        W41126   1.477  11.317   2.969  0.0789 -0.4051 -0.0803
24280W        W41127  12.008   7.803  12.571  0.0698 -0.1094  0.1949
24281W        W41128   3.323  14.157  11.908 -0.3082  0.3728 -0.1195
24282W        W41129   5.693   1.694  12.372  0.2911  0.2080  0.0594
24283W        W41130   3.576   7.281  12.349  0.0368 -0.0494 -0.1856
24284W        W41131   2.868  12.945   4.126 -0.1417  0.1110  0.0897
24285W        W41132   2.428   5.262   1.277  0.3822  0.0458  0.1455
24286W        W41133   2.725  10.006  11.417 -0.0094 -0.0782 -0.3023
24287W        W41134   8.978   3.143   1.357 -0.0853  0.3733 -0.0865
24288W        W41135   4.162  16.868  12.319 -0.0814 -0.0916  0.0597
24289W        W41136  17.898  15.212   3.068  0.2716  0.2226 -0.1062
24290W        W41137   0.380   0.344  11.961 -0.1821  0.0669 -0.1278
24291W        W41138   9.868  11.206   2.157  0.0228 -0.2432  0.2786
24292W        W41139  11.372   4.858   0.248 -0.1147 -0.2304  0.0545
24293W        W41140   1.391  16.142   2.626  0.5374  0.2184 -0.0503
24294W        W41141  12.810   5.826   4.980 -0.0920  0.1219  0.1211
24295W        W41142   6.114   6.062  13.604  0.2355 -0.0453  0.1169
24296W        W41143  14.552  11.103  13.618  0.2656 -0.0882  0.0044
24297W        W41144   8.808  11.377   4.676 -0.1157  0.0995  0.1204
24298W        W41145  11.174   3.530   3.596  0.1641  0.1884 -0.1335
24299W        W41146  11.967  13.524  12.964 -0.1182  0.0789  0.0384
24300W        W41147   6.572  13.760  12.830 -0.0296 -0.1316 -0.0147
24301W        W41148   0.315  12.946  11.913  0.1476  0.1155  0.1725
24302W        W41149  17.469  16.610  14.298 -0.1944  0.1166 -0.1225
24303W        W41150   6.005  16.329   2.215 -0.2675  0.0215  0.1075
24304W        W41151   1.089  11.321  13.282 -0.3827 -0.1576  0.3805
24305W        W41152   1.619  15.156   3.705  0.0061 -0.1752 -0.0679
24306W        W41153   9.797   6.242   2.456 -0.0107 -0.3802 -0.2051
24307W        W41154  18.012  18.051   4.889 -0.1637  0.0082  0.2238
24308W        W41155  13.209   0.065  14.010 -0.0897  0.1094  0.1040
24309W        W41156   2.128   3.557  15.764 -0.0037  0.3304  0.1873
24310W        W41157  16.700   6.528  12.701 -0.0238 -0.1054 -0.6378
24311W        W41158   1.406  14.425   1.155  0.1971 -0.0437  0.0402
24312W        W41159   3.353  11.896  11.460  0.1635  0.0365  0.1858
24313W        W41160  13.866   5.752   9.323  0.1469 -0.4181 -0.2783
24314W        W41161  12.191   2.106   4.962 -0.0412  0.1839  0.3593
24315W        W41162   6.499   0.693  11.056 -0.1527  0.0773  0.1213
24316W        W41163  18.223  17.788   3.169 -0.1575  0.0499  0.1093
24317W        W41164  13.144   7.263   1.149 -0.0015  0.0604 -0.1507
24318W        W41165   7.335  16.344   2.483  0.0490 -0.1748 -0.1248
24319W        W41166   5.596   5.003   3.370  0.1437  0.0359  0.0768
24320W        W41167  13.037  10.637   1.843  0.0261 -0.2945 -0.3414
24321W        W41168  13.450   9.671   1.210  0.2647 -0.3097 -0.2073
24322W        W41169  11.991  12.436   0.531 -0.1638 -0.3295  0.1476
24323W        W41170  14.495  13.624  15.065  0.1349 -0.1799 -0.2302
24324W        W41171  13.958  16.846  14.312 -0.1112 -0.0721  0.0512
24325W        W41172   6.385  12.133   3.178  0.0283  0.2018  0.0604
24326W        W41173  16.070   5.076   3.082 -0.0782 -0.3419  0.0679
24327W        W41174   8.963   7.898  14.972  0.1064  0.1774 -0.2271
24328W        W41175   7.221   7.999   2.625  0.0262  0.0476 -0.2497
24329W        W41176   8.927   9.361   4.456 -0.0593 -0.0250  0.0136
24330W        W41177   9.324  11.382   5.557  0.1389 -0.0415  0.1585
24331W        W41178  15.631  18.127  15.349  0.1573  0.1366  0.0981
24332W        W41179   8.250   8.251  12.820 -0.1587 -0.0076  0.0220
24333W        W41180   2.785  11.033   4.289  0.0132 -0.1690 -0.2175
24334W        W41181  12.475   2.413  12.075  0.0022 -0.1195  0.0735
24335W        W41182  11.281   0.417   2.688  0.1510 -0.2070 -0.7161
24336W        W41183   2.445  13.868   0.511 -0.0546  0.1344  0.1603
24337W        W41184  17.547   5.505   2.598 -0.1045  0.1212  0.2187
24338W        W41185  17.583   4.893  15.164  0.1316 -0.0703  0.1131
24339W        W41186   6.150  15.569  15.088 -0.0117 -0.0081 -0.1395
24340W        W41187   5.331   2.558  11.527  0.0825  0.0910  0.3160
24341W        W41188  10.559   4.253   3.147  0.0470  0.1363 -0.1431
24342W        W41189  17.383   3.332  15.141 -0.1992  0.2973 -0.0229
24343W        W41190   9.094   8.110   2.456 -0.0410 -0.2355 -0.1462
24344W        W41191   8.368   4.805  13.244  0.0327 -0.0399 -0.5033
24345W        W41192   2.225  11.358  11.983 -0.2390 -0.1642 -0.0093
24346W        W41193   5.478  14.698   4.714  0.0474  0.1886  0.4147
24347W        W41194  10.079  10.302   2.941  0.1634 -0.0731 -0.1425
24348W        W41195  11.163   0.273   6.137 -0.2105 -0.2797  0.0546
24349W        W41196   4.310  10.473   0.778 -0.0837 -0.0349  0.3099
24350W        W41197   7.651  15.029  13.082 -0.2483 -0.0800 -0.3464
24351W        W41198  15.736   0.210  12.503  0.2649 -0.0726 -0.2548
24352W        W41199  15.547  15.971  11.944  0.3365  0.0543  0.2173
24353W        W41200   6.914   1.468   5.882  0.1088  0.2486  0.1676
24354W        W41201   1.578  12.936   0.707  0.0670  0.0541 -0.1130
24355W        W41202  17.469   8.353  12.249  0.0852 -0.2887  0.3778
24356W        W41203  12.567  14.835  15.861  0.0742 -0.1237  0.0443
24357W        W41204  17.984   7.172  15.150 -0.0565 -0.4102  0.1040
24358W        W41205  11.267  10.825   5.503 -0.2070  0.2320  0.0948
24359W        W41206   0.811  12.210   4.278 -0.2618 -0.1435  0.2197
24360W        W41207  11.148   4.417  13.916  0.0341 -0.0541  0.0250
24361W        W41208  11.022   0.291  13.276  0.0420 -0.1598 -0.0913
24362W        W41209  12.072   7.033   0.108  0.2288  0.0676  0.2248
24363W        W41210   7.944  17.463   0.824  0.3101  0.0847 -0.2238
24364W        W41211  13.117   2.950  15.555 -0.2029  0.1370  0.2466
24365W        W41212  10.066  17.283   1.175  0.1148 -0.0751 -0.3259
24366W        W41213  15.301   3.199   2.492  0.2266 -0.2506  0.2442
24367W        W41214  11.888  11.013  13.948  0.0437 -0.0282 -0.4504
24368W        W41215   4.527   6.199   4.168  0.0007  0.0822  0.0889
24369W        W41216  17.640  13.744  12.227 -0.0282  0.1066  0.0601
24370W        W41217   6.066   4.230   1.609 -0.0337  0.3136  0.0017
24371W        W41218   5.943   1.726   0.818 -0.2053 -0.3018 -0.1030
24372W        W41219  18.289   5.225   1.265 -0.3389  0.1272 -0.2963
24373W        W41220  16.928   3.213   4.429 -0.2067  0.3984  0.0122
24374W        W41221   8.484   8.486   4.493  0.0649 -0.0718 -0.2349
24375W        W41222  11.960   4.222   0.496  0.0263 -0.1091 -0.1063
24376W        W41223   3.257  11.919   6.002  0.1563 -0.0288 -0.1238
24377W        W41224  10.488   5.638   0.888 -0.0696  0.0941 -0.0466
24378W        W41225   1.835   9.889   2.276  0.0898 -0.0003  0.0908
24379W        W41226  13.023   3.227   4.669 -0.3760 -0.2181 -0.0023
24380W        W41227   2.391  14.381   1.918  0.1878  0.0328 -0.1596
24381W        W41228  17.784   2.990  15.445  0.3121  0.1157  0.1369
24382W        W41229  14.231  17.318   4.184 -0.1109 -0.2898  0.1668
24383W        W41230  14.650  17.819   1.166 -0.4238  0.0094 -0.2468
24384W        W41231  17.765  15.566  11.258 -0.0128 -0.3139  0.2377
24385W        W41232   1.998   9.040   0.034 -0.1322 -0.0995 -0.0741
24386W        W41233  17.700  18.388   2.059  0.2630 -0.1495 -0.0341
24387W        W41234   1.244  14.768   2.850  0.2355 -0.1871  0.0832
24388W        W41235  16.057   4.704   1.221  0.0327  0.0989 -0.0122
24389W        W41236   5.357  12.660  14.907  0.0476  0.2592 -0.3366
24390W        W41237  13.699   6.049   2.484 -0.0044  0.3255  0.3202
24391W        W41238   3.911   1.876  14.474  0.2455 -0.0656 -0.0941
24392W        W41239  13.487  15.099   1.266  0.0506  0.0467  0.0323
24393W        W41240  16.736   9.107  13.475 -0.0153  0.3340  0.1580
24394W        W41241   2.824   6.064   0.862 -0.2608  0.1713 -0.0427
24395W        W41242  10.403   8.288  14.691  0.0220  0.3141 -0.0009
24396W        W41243   0.094   9.348   2.000 -0.0152 -0.0346 -0.1657
24397W        W41244   1.544   7.357  15.816 -0.1172 -0.0410  0.0354
24398W        W41245  14.649  17.381   5.443  0.2336 -0.0577 -0.1059
24399W        W41246   8.765  17.593  11.125 -0.0021 -0.2165  0.1717
24400W        W41247  16.464  11.929   1.686 -0.1900 -0.0613  0.3237
24401W        W41248  15.191   0.948  15.832 -0.0394  0.0528  0.0064
24402W        W41249   2.996   9.084   2.241 -0.0791 -0.1257  0.0173
24403W        W41250   6.948  15.108   1.620 -0.1366  0.0531  0.0811
24404W        W41251   3.407  12.225   3.164 -0.1834  0.1092 -0.2376
24405W        W41252   6.824   6.588   1.621 -0.1135  0.0562 -0.1161
24406W        W41253   2.583   2.565   5.256 -0.1418 -0.2525 -0.0914
24407W        W41254  11.356   6.342   3.421 -0.0297 -0.2170 -0.1937
24408W        W41255   3.238  12.817  15.638 -0.2133  0.2977  0.0429
24409W        W41256  11.507  10.920   0.641  0.3430 -0.0287  0.1595
24410W        W41257   1.395  13.477  12.290  0.2163  0.1163  0.1525
24411W        W41258   6.639   2.005   2.593  0.0753  0.0767  0.1818
24412W        W41259   0.723   8.831   2.696 -0.0962 -0.1338 -0.1020
24413W        W41260  13.318   9.622  13.645 -0.0480 -0.0588 -0.1125
24414W        W41261  11.931   8.421   1.499 -0.1575  0.2263 -0.2984
24415W        W41262   6.301  13.149  11.662 -0.1217 -0.2070 -0.0586
24416W        W41263  17.861   9.102   1.686 -0.0316  0.2558  0.0672
24417W        W41264   3.623  17.683   2.802 -0.0999 -0.1385  0.1671
24418W        W41265   5.712   3.449  15.404  0.0804  0.1072  0.1133
24419W        W41266  10.112  17.129   3.734 -0.0731 -0.2155  0.2035
24420W        W41267  17.581   8.341  15.852  0.0918 -0.0108  0.1282
24421W        W41268   1.733   2.523  14.376  0.1847 -0.0477  0.3028
24422W        W41269  18.085   1.678  14.177  0.2443 -0.0056 -0.2029
24423W        W41270   7.248   5.637  12.790  0.1387  0.2010 -0.3256
24424W        W41271   9.732  13.302   2.958 -0.1414 -0.2730 -0.1590
24425W        W41272   3.235   4.313  12.234 -0.0936  0.0222  0.1787
24426W        W41273   8.007  11.013  15.570  0.1645 -0.2930  0.2358
24427W        W41274   8.698   4.984   0.914  0.0381 -0.2769  0.0175
24428W        W41275   9.139  11.113  12.665  0.1269  0.0927 -0.0332
24429W        W41276   4.576  16.592   4.122 -0.2704 -0.1985  0.0773
24430W        W41277   2.850   0.456   1.615 -0.0435  0.0030 -0.2955
24431W        W41278   6.874  13.378  13.233 -0.0960  0.1429  0.0556
24432W        W41279  14.386  11.105   1.733  0.1716 -0.0573 -0.0200
24433W        W41280   1.425   3.748  11.831  0.1483  0.0487 -0.5884
24434W        W41281   0.148   9.614   1.562 -0.0601  0.2518 -0.1995
24435W        W41282  13.563   3.812  13.281 -0.1333 -0.3069  0.2197
24436W        W41283   7.371   0.215   1.889 -0.0373 -0.0313  0.1158
24437W        W41284  11.713   4.835  15.685  0.0591 -0.0549 -0.1954
24438W        W41285   0.967   3.569  11.980 -0.1079 -0.1132 -0.1770
24439W        W41286  13.244   5.510  11.607  0.0327 -0.0563 -0.2140
24440W        W41287   4.723  11.139  13.652  0.1509 -0.1292 -0.0739
24441W        W41288   0.629  10.938  11.177  0.0041 -0.3824  0.1238
24442W        W41289  12.338  17.875  11.859 -0.0109  0.1243  0.0168
24443W        W41290   5.061  17.900   3.195  0.0037  0.0480  0.3901
24444W        W41291  16.852  11.379   4.424  0.0903  0.2051 -0.2392
24445W        W41292  12.726  17.967  14.137  0.2054  0.0886 -0.0139
24446W        W41293   5.240  17.338   0.680  0.0234  0.1706 -0.1839
24447W        W41294  16.580  17.870  11.642 -0.1265  0.0065  0.1150
24448W        W41295  13.975  18.391   2.638 -0.1613  0.0213  0.1402
24449W        W41296   9.804   4.811  13.750  0.1331 -0.1633  0.1763
24450W        W41297   6.116   4.877   4.281  0.2044 -0.0455  0.0131
24451W        W41298  11.739  15.899   3.748  0.2127  0.2368 -0.2398
24452W        W41299   6.283   9.438   6.047  0.2510 -0.1261 -0.1420
24453W        W41300  13.318  15.706  12.073 -0.0263  0.1756  0.6317
24454W        W41301  15.144   9.835  11.662 -0.1145  0.1854  0.0129
24455W        W41302   0.394   1.822   0.583 -0.0289 -0.2887 -0.1618
24456W        W41303  14.715   7.732  14.634 -0.0635 -0.2149  0.2301
24457W        W41304  13.223   6.551   3.911  0.0819 -0.1500 -0.0195
24458W        W41305   7.905   0.993   4.220  0.0151  0.2646  0.3282
24459W        W41306  15.079   9.317   2.365  0.0118 -0.0411  0.5305
24460W        W41307  10.941   0.967  10.976 -0.0166 -0.1308 -0.1462
24461W        W41308   5.990   2.541  15.586 -0.1166 -0.1109  0.4113
24462W        W41309   8.310   8.735  12.554 -0.0628 -0.0864  0.0472
24463W        W41310  15.654  17.453  12.449 -0.1407 -0.2153 -0.0723
24464W        W41311   8.811   7.287  15.880  0.2853  0.0777 -0.0956
24465W        W41312   7.648  14.393   0.783  0.0905 -0.0823 -0.2032
24466W        W41313  17.927   5.592   2.871 -0.1199  0.0056 -0.1008
24467W        W41314   9.034  13.661  13.301  0.0107 -0.1681 -0.1737
24468W        W41315  12.213  11.464   3.525  0.1941  0.0688  0.4033
24469W        W41316  14.854  13.671  14.321  0.1019  0.1171 -0.0341
24470W        W41317   4.231  18.305  15.781  0.2762  0.3028  0.0334
24471W        W41318   1.745  10.366   0.354  0.0120 -0.0012  0.1311
24472W        W41319   9.819   4.688   4.456 -0.1589  0.1856  0.0950
24473W        W41320   2.362   6.764   1.560  0.1412 -0.2201 -0.3733
24474W        W41321  17.213  12.201   2.467  0.1099 -0.2940  0.0542
24475W        W41322  13.315   2.532   2.250  0.0476 -0.2672 -0.0193
24476W        W41323  15.798  10.718  12.290  0.1670 -0.2996  0.1264
24477W        W41324   0.641  18.451   1.015  0.1583  0.2229 -0.2284
24478W        W41325   4.161  16.743   4.982 -0.0157  0.0958  0.1029
24479W        W41326   2.889   7.756   0.089 -0.0967 -0.2016  0.1994
24480W        W41327   0.956   8.586  14.602  0.0058 -0.0155  0.2508
24481W        W41328  11.262   0.733  13.404 -0.0310  0.1943 -0.1102
24482W        W41329  14.690  17.627  12.844  0.2250 -0.1806 -0.1817
24483W        W41330  11.735   0.391   0.005  0.1464 -0.1853 -0.0167
24484W        W41331   4.628   2.602   2.259  0.0300 -0.1869 -0.2282
24485W        W41332   5.181   3.356   4.127 -0.1640  0.1414 -0.3386
24486W        W41333   6.360   0.092  12.126  0.2539  0.0364  0.0026
24487W        W41334   4.230  16.320  11.043 -0.2571  0.0924  0.0262
24488W        W41335   2.452   5.425  13.136  0.3547 -0.1127 -0.0507
24489W        W41336   5.310   8.232   1.094  0.0650 -0.1368  0.1362
24490W        W41337  18.341   3.889   2.204  0.0939 -0.2772 -0.0979
24491W        W41338   6.306   6.587   2.491  0.0900  0.1203 -0.2289
24492W        W41339   5.168   7.603   0.872 -0.0271  0.0100  0.1772
24493W        W41340  13.329  10.385  11.562 -0.1182  0.0727 -0.3085
24494W        W41341   9.117   6.997  15.025  0.0722  0.2566  0.0429
24495W        W41342   5.314  11.718   2.330  0.0503  0.1861  0.1730
24496W        W41343   6.732   9.341  11.772  0.0815 -0.0690 -0.1122
24497W        W41344   9.752   3.196  13.734  0.0829  0.2817 -0.1417
24498W        W41345  14.573  10.369  15.707 -0.1368 -0.2799 -0.0811
24499W        W41346   3.119  15.497  15.729 -0.0655  0.1125 -0.3503
24500W        W41347  17.663   8.106   1.857  0.1717  0.0072 -0.0320
24501W        W41348   4.396   5.046  12.207  0.2442  0.3971 -0.1423
24502W        W41349  10.312   9.925  11.960  0.1698 -0.3881 -0.0018
24503W        W41350  10.792   4.465  14.478  0.0292 -0.2314 -0.0123
24504W        W41351   1.530   3.596  14.425 -0.3692  0.2665 -0.2333
24505W        W41352   2.264   0.466  10.090  0.2237 -0.2268  0.2000
24506W        W41353  17.866  15.678   2.881 -0.3461 -0.1186  0.1662
24507W        W41354   7.534  10.201   2.173  0.0570 -0.1360  0.1820
24508W        W41355   1.758  10.509   2.998 -0.1382  0.1343 -0.1701
24509W        W41356   3.567   9.078   4.828  0.0722 -0.2204  0.2571
24510W        W41357   9.886   0.965  11.919  0.0737 -0.0345  0.2048
24511W        W41358  12.866  17.755   5.079 -0.0439 -0.1098 -0.0112
24512W        W41359  11.984   7.658  14.144 -0.0365 -0.1717 -0.2114
24513W        W41360   8.292  14.281  12.246  0.0053  0.0582 -0.2984
24514W        W41361   7.743   4.391   1.266  0.2749 -0.0545  0.2515
24515W        W41362  13.205  17.002  11.435  0.0942  0.1842 -0.4654
24516W        W41363   2.339  13.594   3.627 -0.1052 -0.0607  0.4009
24517W        W41364   3.922   8.228   2.403 -0.0403  0.0084 -0.1614
24518W        W41365   7.911   1.082  13.684  0.0060 -0.1509  0.0083
24519W        W41366  18.533  14.797  15.671 -0.0521  0.3028 -0.0547
24520W        W41367  10.459   8.925   2.597 -0.2246  0.0372 -0.3405
24521W        W41368   8.152   4.410  11.122  0.3821 -0.0352  0.2059
24522W        W41369  13.556  17.790  13.891  0.0544 -0.0635 -0.1984
24523W        W41370   9.842   8.507  15.393  0.2122  0.3672 -0.3266
24524W        W41371   5.063  16.494   1.797 -0.0422 -0.1158  0.3784
24525W        W41372  11.086   1.420  10.974  0.1710 -0.1748  0.2004
24526W        W41373   7.718  17.157   3.967  0.0313 -0.2978  0.0760
24527W        W41374  12.412   9.966   5.105  0.3211 -0.0573 -0.1239
24528W        W41375  13.812   6.166   0.352  0.2588  0.0854 -0.1772
24529W        W41376  15.327   3.587  15.387  0.2506  0.1082 -0.0719
24530W        W41377   3.124   4.618  14.427  0.0111 -0.0730 -0.2236
24531W        W41378  15.811  14.428   4.448 -0.0696  0.0006  0.3380
24532W        W41379   4.392  17.557   1.019  0.1040  0.1972 -0.0615
24533W        W41380   0.613   7.436  13.124  0.0974  0.1095  0.1876
24534W        W41381   6.215  15.401   0.170 -0.0298 -0.2970 -0.3405
24535W        W41382   2.335   9.430   0.987 -0.0234  0.2584  0.1380
24536W        W41383  13.929   6.670  12.766  0.1755  0.1045  0.1167
24537W        W41384   8.157   9.685  12.709  0.1740 -0.0522 -0.1782
24538W        W41385   0.123   8.212   2.392 -0.1259 -0.0417 -0.0566
24539W        W41386   2.434   4.678  12.076 -0.0638  0.0833  0.0973
24540W        W41387  11.628   9.191  15.248 -0.0988 -0.2258  0.0885
24541W        W41388   0.464   0.421   1.169  0.1816 -0.0624 -0.2278
24542W        W41389   1.785  11.824   3.344 -0.0374  0.0837 -0.2899
24543W        W41390   6.690   1.057  13.779 -0.0118  0.1444 -0.1145
24544W        W41391   1.147   6.762  13.352  0.1333 -0.0826  0.0539
24545W        W41392   0.846   5.527  13.380 -0.2746  0.0300 -0.3324
24546W        W41393  15.183  13.433  11.938  0.3343  0.1631  0.0510
24547W        W41394   0.217   8.963   3.097 -0.1726  0.0895  0.0252
24548W        W41395   4.677   4.807  13.505 -0.2803 -0.1005 -0.1065
24549W        W41396  11.438   1.771   5.053 -0.2092 -0.2078  0.0116
24550W        W41397  14.969  11.432   3.338  0.2973  0.1121  0.0193
24551W        W41398  17.036  13.129   5.536 -0.2704  0.0435  0.1477
24552W        W41399  14.831   7.905   3.844  0.0022  0.0066 -0.2260
24553W        W41400   5.096   3.258   3.655  0.0264  0.2086  0.1996
24554W        W41401  14.307   3.093   1.309  0.3397  0.0855 -0.1860
24555W        W41402   5.242  17.772  12.202 -0.3062 -0.0009 -0.1091
24556W        W41403  16.840  14.534  12.934  0.1536  0.1077  0.1044
24557W        W41404  17.235  14.649   5.601 -0.1911  0.1043  0.1830
24558W        W41405   4.553   5.345   2.585 -0.4218  0.1499  0.1160
24559W        W41406   5.184   6.149  15.885 -0.1210  0.0052 -0.0886
24560W        W41407   0.415  16.375  15.214 -0.1151 -0.0410  0.0072
24561W        W41408  16.861   4.528   3.523 -0.0579  0.1733 -0.0017
24562W        W41409   3.242   7.481  15.002 -0.0834 -0.1962 -0.0324
24563W        W41410   8.017   6.717   2.713  0.0199  0.0808 -0.0665
24564W        W41411   4.282  15.112   3.840 -0.0950  0.0386  0.0213
24565W        W41412  16.052  14.400  14.112 -0.3312  0.0711 -0.0441
24566W        W41413  15.189   7.432   3.067 -0.0219 -0.0301 -0.2745
24567W        W41414  10.221   1.235  11.595 -0.5196  0.1492  0.0385
24568W        W41415   9.231   4.909  15.486 -0.0617 -0.1492  0.2677
24569W        W41416  16.302   1.178   0.577 -0.0165  0.3673 -0.1776
24570W        W41417  12.623  14.163   3.819  0.1122 -0.1517 -0.1436
24571W        W41418  10.953  16.244   0.118 -0.2370  0.0842  0.1432
24572W        W41419  12.346   5.080   5.578 -0.1036  0.1322  0.2676
24573W        W41420   3.441  10.537   4.777 -0.0262 -0.0115 -0.0639
24574W        W41421  15.620  10.511   0.137 -0.0121  0.0464  0.3231
24575W        W41422   2.648   1.412   3.678  0.1046 -0.1501  0.0580
24576W        W41423  10.409  14.411  12.832 -0.4048  0.0412  0.1743
24577W        W41424   7.081   8.172   5.628  0.1164 -0.2163 -0.2235
24578W        W41425   1.373  13.357   4.264 -0.0078 -0.2036  0.0398
24579W        W41426   8.722  17.437   1.441 -0.0250  0.2121 -0.0350
24580W        W41427  16.987   4.945  12.602  0.2681 -0.2566  0.3012
24581W        W41428   9.681   1.039  13.516 -0.2712  0.1658  0.2322
24582W        W41429   9.577  15.401   1.326  0.1100  0.2349  0.0458
24583W        W41430   6.562  16.836   4.201 -0.0293  0.0498  0.0324
24584W        W41431  16.689   5.687  14.466  0.2071 -0.0843 -0.2508
24585W        W41432   9.723   9.917   1.808  0.2057  0.0962 -0.0134
24586W        W41433   2.645  16.841   0.740 -0.0071 -0.2754 -0.3895
24587W        W41434   7.555   7.320  11.575  0.4593 -0.0848  0.1396
24588W        W41435  14.883   9.196  12.535 -0.0012 -0.1490  0.3226
24589W        W41436   8.404  10.409  15.204 -0.3641  0.1192 -0.0968
24590W        W41437   5.660   0.718  11.936 -0.3466 -0.0391 -0.0944
24591W        W41438   4.050   7.274  14.650  0.0848  0.1632 -0.1212
24592W        W41439  17.265  14.470  11.135  0.2381  0.0369  0.1850
24593W        W41440   5.679   7.805  15.502  0.1219  0.0956  0.3085
24594W        W41441  14.289   3.326   2.814  0.1269 -0.1621 -0.0272
24595W        W41442   9.858  13.761   4.990 -0.0677  0.1011 -0.1664
24596W        W41443  17.948  18.136   2.796 -0.1287 -0.0828 -0.1273
24597W        W41444  11.067  17.200  14.203  0.2874 -0.2088 -0.2527
24598W        W41445  10.266  16.413   2.701  0.1052  0.1370  0.2566
24599W        W41446   4.729  13.208  11.675 -0.0299  0.4898  0.3123
24600W        W41447   9.737   2.461  14.678  0.1638  0.0279  0.2341
24601W        W41448   0.373  11.382  11.350 -0.2583  0.2395  0.0305
24602W        W41449   7.544   5.323   2.841  0.2083 -0.4787  0.0342
24603W        W41450  17.279   6.312   2.335  0.3370  0.0930 -0.1631
24604W        W41451   3.438  16.770   3.763  0.0710 -0.1148 -0.0240
24605W        W41452   1.407  17.476   4.345 -0.1679 -0.1469 -0.2858
24606W        W41453   3.690  16.092   3.007 -0.0295  0.1957  0.2543
24607W        W41454   8.247   5.443  14.704 -0.3391  0.1322  0.4461
24608W        W41455  16.490  14.352   5.407 -0.1793 -0.2051 -0.0563
24609W        W41456   6.488   0.796   0.807  0.2375  0.1648  0.0044
24610W        W41457   8.067  11.803   3.792 -0.2322 -0.3553  0.0030
24611W        W41458   5.308  16.101  14.776 -0.2865  0.1985 -0.0169
24612W        W41459  18.093   6.264  14.056 -0.1348  0.2660 -0.2341
24613W        W41460  15.645   7.790   0.891  0.1032 -0.1414 -0.3487
24614W        W41461  13.754  11.595  12.730 -0.1802 -0.1543 -0.1745
24615W        W41462   2.258   1.224  11.281 -0.0423 -0.0946 -0.0909
24616W        W41463  10.513   5.483  15.556  0.1175  0.1779  0.3454
24617W        W41464  14.030  16.690  14.769 -0.2437 -0.1429  0.0792
24618W        W41465   1.846   4.616   3.342 -0.1192 -0.1012 -0.0086
24619W        W41466  17.538   6.916  11.614  0.3373 -0.2161 -0.1840
24620W        W41467   7.063   8.230  11.735  0.0578 -0.2244  0.0422
24621W        W41468  14.251   7.308  14.018  0.1008  0.0390  0.0624
24622W        W41469   3.839   9.943   3.660 -0.0800  0.0249  0.1928
24623W        W41470  15.343   3.373  13.055  0.0363 -0.1230 -0.1732
24624W        W41471   8.945  12.662   3.032  0.0583 -0.2558 -0.0219
24625W        W41472  10.717   0.308  12.848 -0.1649  0.0632  0.1310
24626W        W41473  16.149  13.606   5.346  0.1473  0.2764  0.0300
24627W        W41474   1.446  16.192   3.790 -0.0464 -0.0711 -0.1061
24628W        W41475  15.987   2.502   5.181  0.0458  0.0536  0.0150
24629W        W41476   2.780   7.579  14.076  0.0258  0.0328  0.0144
24630W        W41477  13.180  14.317  12.862 -0.0296  0.1646 -0.3403
24631W        W41478   6.213   1.641  12.190 -0.0382 -0.1329  0.2594
24632W        W41479   7.536  16.277  11.906 -0.0389 -0.3239  0.0327
24633W        W41480  16.110  15.756   3.738  0.4055  0.0609 -0.0708
24634W        W41481   7.250   5.472  14.929  0.1822 -0.3792  0.1329
24635W        W41482   5.878  15.254  12.307 -0.3384 -0.1834 -0.0124
24636W        W41483  16.800  17.923   0.888 -0.3644  0.1839  0.0755
24637W        W41484   9.270  11.930   0.474  0.0854 -0.1321  0.3932
24638W        W41485  16.723  11.722   5.674 -0.1596  0.0184 -0.1345
24639W        W41486   8.834   4.668   4.303 -0.0570  0.0695 -0.0601
24640W        W41487  12.794   2.808  12.125 -0.0161  0.1738  0.3092
24641W        W41488   4.141  15.400   1.759  0.0381 -0.0989  0.0720
24642W        W41489  15.207  17.777  13.687  0.0305  0.3965  0.0021
24643W        W41490  10.413  14.706   0.253  0.0737  0.0687 -0.0113
24644W        W41491  11.159   6.289   1.973  0.1476 -0.2268 -0.0077
24645W        W41492  14.334   5.362   0.523 -0.2420  0.1331 -0.0280
24646W        W41493  11.477   5.826   0.608  0.2613 -0.3314  0.1786
24647W        W41494   0.567   8.194   2.637  0.1691  0.0892  0.2173
24648W        W41495   3.799   0.848   4.043  0.3514  0.2177 -0.3311
24649W        W41496   5.852   4.748  12.740  0.0127  0.0058 -0.2961
24650W        W41497  16.402   5.624  12.686 -0.0563 -0.0337  0.1151
24651W        W41498   5.687   3.439  13.369  0.0205 -0.1148  0.2834
24652W        W41499   9.983   5.842  10.907  0.0743 -0.1080 -0.1413
24653W        W41500   4.087   2.573  13.911  0.2024  0.0785  0.0321
24654W        W41501   6.949   6.107   1.485  0.1289  0.0044  0.0064
24655W        W41502  13.492  12.923  14.000 -0.0395 -0.0484 -0.4083
24656W        W41503  15.694   5.142   6.074 -0.1096  0.1192  0.4075
24657W        W41504   5.872  10.337  12.098  0.1418  0.0034  0.1655
24658W        W41505   4.047  12.220  14.809 -0.0597  0.1133  0.3458
24659W        W41506   8.865   8.851  14.502 -0.2773 -0.1199 -0.1324
24660W        W41507   7.161   2.710  13.078 -0.0288 -0.2795  0.1561
24661W        W41508   9.129   8.307   0.638 -0.0074  0.1141 -0.0904
24662W        W41509   3.208   8.601  12.998 -0.2128 -0.2467 -0.1635
24663W        W41510  10.022   1.423   4.230  0.4173 -0.3407  0.0127
24664W        W41511   3.973  15.837   0.917  0.0100  0.1089  0.0953
24665W        W41512   9.975   7.711   3.084 -0.0044 -0.2640 -0.2135
24666W        W41513  10.371   7.321  15.153  0.0259  0.0809  0.1805
24667W        W41514  15.552   4.856   4.757  0.2103 -0.2082  0.2079
24668W        W41515  15.380  10.044   0.986  0.0343 -0.3332  0.1638
24669W        W41516   8.961   5.938  15.947  0.3504 -0.0198 -0.0654
24670W        W41517   8.662   1.675   2.475 -0.1294  0.1064  0.2397
24671W        W41518   8.102  15.433   1.045 -0.0922 -0.1000  0.4067
24672W        W41519   4.610   6.291   3.689 -0.1119  0.2545  0.1363
24673W        W41520  13.481  18.526   3.959  0.2074  0.3093 -0.3388
24674W        W41521   4.176   0.046   3.166  0.0160 -0.0469  0.2025
24675W        W41522  13.100   9.273   1.891 -0.0088 -0.0842  0.2812
24676W        W41523   9.791  15.484   0.536 -0.1858  0.0580  0.1667
24677W        W41524  12.221   0.076   4.488  0.0556 -0.1147  0.0370
24678W        W41525   7.085   7.127  10.971 -0.1294 -0.2466  0.0688
24679W        W41526  16.649   5.458   3.475 -0.0124  0.0260  0.2126
24680W        W41527  14.667  16.962   4.041  0.0628 -0.0498 -0.2344
24681W        W41528   4.971   0.094   5.114  0.1670 -0.1938 -0.2902
24682W        W41529  10.819  13.499  12.333 -0.2360 -0.1711 -0.0742
24683W        W41530   9.388  15.061  12.317  0.2458 -0.1097 -0.0935
24684W        W41531   7.449   0.914   2.013 -0.0458 -0.0933  0.1196
24685W        W41532   3.014   5.839   3.884 -0.0989 -0.0158 -0.1905
24686W        W41533  18.253   7.335  14.062 -0.4752  0.3050  0.0062
24687W        W41534  18.471  11.395  15.784 -0.1628 -0.0552  0.0267
24688W        W41535   0.033   3.908  12.380  0.3206 -0.1470 -0.0927
24689W        W41536   9.316  11.751   0.960  0.0627  0.0627  0.1945
24690W        W41537  16.410  12.469  11.127  0.2909 -0.4050  0.4128
24691W        W41538   6.940   8.191   5.181  0.0825  0.2043 -0.1022
24692W        W41539   0.214  17.571  13.791 -0.1280 -0.1251  0.1084
24693W        W41540   6.328  11.165   2.293 -0.0362  0.0607  0.0999
24694W        W41541  10.133   6.046   2.134 -0.3649 -0.1600  0.0009
24695W        W41542   4.002  10.821  10.719  0.1777  0.0657 -0.0140
24696W        W41543   3.683  17.594  10.672 -0.4582 -0.2474 -0.0451
24697W        W41544   3.135   2.553   3.366 -0.0566  0.0061  0.1494
24698W        W41545   1.036  13.754   4.594 -0.1948  0.2096  0.1713
24699W        W41546  12.571  14.725   4.439  0.0274  0.0557 -0.0485
24700W        W41547  13.255   4.947   2.068 -0.1700  0.0145 -0.0125
24701W        W41548   9.396  13.219  14.894  0.1421  0.0722 -0.2015
24702W        W41549   6.870   9.661  15.095 -0.0339 -0.2756 -0.0249
24703W        W41550  15.594   3.161   0.129 -0.0498 -0.2023 -0.0670
24704W        W41551  16.632   0.537  15.343  0.5339 -0.1308  0.1285
24705W        W41552   3.939   2.100  11.339  0.2485 -0.0362 -0.2242
24706W        W41553  17.191  14.541   2.802 -0.2860 -0.2042  0.2170
24707W        W41554   0.446  15.831   3.302  0.0115 -0.0943 -0.0305
24708W        W41555   3.032  13.316   5.528  0.3479  0.2118  0.1890
24709W        W41556   0.839  16.486   4.299 -0.0569  0.2324  0.0809
24710W        W41557   4.315  10.765  13.755  0.1717  0.1519  0.0041
24711W        W41558   0.812   5.236   1.448  0.1363  0.0248  0.3689
24712W        W41559   3.835  18.200  15.421  0.1932 -0.1842  0.3757
24713W        W41560  16.322  16.372  15.281 -0.1405  0.2055 -0.0598
24714W        W41561   7.033   3.857  11.310 -0.2430  0.1235 -0.0565
24715W        W41562   0.332   7.205   0.846  0.1651  0.0559 -0.1445
24716W        W41563  16.012   7.074  15.232  0.0097  0.0642  0.4496
24717W        W41564  16.074  16.642  14.019 -0.1498  0.3519  0.1358
24718W        W41565  17.907   8.887   2.157  0.2012 -0.0272  0.0013
24719W        W41566  17.101  16.655  10.733 -0.0098  0.1680 -0.5819
24720W        W41567  13.614   7.038   0.831  0.0852  0.0884 -0.2472
24721W        W41568  10.816   1.555  15.802 -0.1788  0.4133  0.1556
24722W        W41569  10.493   2.113   2.308 -0.0258  0.1686  0.0119
24723W        W41570   1.235  17.290   1.550  0.3429 -0.0802  0.1774
24724W        W41571  13.543  13.462  12.436 -0.3183 -0.1711  0.0015
24725W        W41572   6.353   5.173  14.112 -0.2425  0.3835  0.1092
24726W        W41573  10.299   0.853  14.844 -0.2386  0.0148  0.0955
24727W        W41574   1.152   5.481   2.394 -0.0584 -0.1352 -0.1985
24728W        W41575   8.059  13.553   1.740  0.0513  0.2601 -0.1210
24729W        W41576  18.312   0.376   1.230  0.1128  0.1921 -0.1294
24730W        W41577   8.907  12.720  15.448 -0.1771  0.1063 -0.2732
24731W        W41578   1.103  10.016   0.218  0.0875 -0.0940  0.3023
24732W        W41579   5.801   0.434  15.327 -0.1841 -0.0072  0.1418
24733W        W41580   3.523  10.790   3.888 -0.0500 -0.3315 -0.2280
24734W        W41581  11.173   7.228  12.901  0.0809  0.0457  0.1323
24735W        W41582   3.548  16.559   5.643 -0.1156 -0.0116 -0.1822
24736W        W41583  14.924   1.913   1.715  0.2675  0.1937 -0.3837
24737W        W41584   0.856  12.450   2.277 -0.0298 -0.0081 -0.3460
24738W        W41585  17.207   1.210  13.838  0.0520  0.0571 -0.3522
24739W        W41586  13.897  16.775   2.090 -0.3478 -0.3286  0.2663
24740W        W41587  13.135   8.452  14.866  0.1287  0.0496  0.0079
24741W        W41588   7.289  12.950   5.515  0.2137  0.1568  0.1651
24742W        W41589  11.881  15.318   1.719  0.0619 -0.0068  0.0688
24743W        W41590   2.136   4.732  15.866  0.3443  0.2335  0.1371
24744W        W41591   9.592   4.002   3.624 -0.0835 -0.0037  0.0569
24745W        W41592   8.291  10.654   0.574 -0.1240 -0.0073 -0.1345
24746W        W41593  10.419   4.085   2.633 -0.0168 -0.1443  0.3857
24747W        W41594   8.220  17.134  14.773  0.0007  0.4135 -0.2532
24748W        W41595   0.501  18.497   1.561 -0.2901  0.0195 -0.1140
24749W        W41596  14.287   4.875   0.336  0.1589  0.2371 -0.1542
24750W        W41597  13.330   6.240  11.563  0.1440 -0.5290 -0.2377
24751W        W41598   7.620   4.019   5.006  0.3225  0.1867  0.0595
24752W        W41599   0.797   0.141   4.885 -0.1507  0.2824  0.0202
24753W        W41600  15.891   7.115   4.604 -0.1941 -0.1218 -0.2786
24754W        W41601   6.566   4.759  11.135 -0.3024  0.1677 -0.0448
24755W        W41602  17.782  13.598  15.262 -0.0447  0.0795 -0.1102
24756W        W41603  10.176  18.231   3.449  0.0480 -0.2272  0.1402
24757W        W41604  11.948   5.108   0.662 -0.0053  0.1034  0.1352
24758W        W41605   7.483  15.421   4.586 -0.1560 -0.1575  0.0177
24759W        W41606  12.838  18.445  13.487  0.0611 -0.2709 -0.0434
24760W        W41607   9.288   5.558   2.224  0.1149  0.0050  0.0968
24761W        W41608  16.754   9.335  13.963 -0.1686 -0.2370  0.1233
24762W        W41609   9.604   8.191  14.422  0.0609 -0.2124  0.1589
24763W        W41610   9.067  10.328  15.055 -0.0167 -0.2104 -0.2756
24764W        W41611   0.569   4.520  13.452 -0.1923 -0.1640 -0.0451
24765W        W41612   2.396   8.246  12.411  0.1518 -0.0401 -0.3498
24766W        W41613  13.332   9.523   4.015  0.4804 -0.2719 -0.6552
24767W        W41614  12.165   1.221  15.809 -0.0075 -0.4819  0.0288
24768W        W41615   9.733  17.008  14.878 -0.1487 -0.2820  0.0009
24769W        W41616   2.849  15.415   4.712 -0.2021 -0.1972  0.0882
24770W        W41617  16.360  11.553   6.182 -0.0779  0.0750  0.0097
24771W        W41618   4.531  16.108   0.451  0.0983 -0.1897 -0.1853
24772W        W41619   9.449   4.193  12.603 -0.2494 -0.2304  0.0605
24773W        W41620  17.448  18.503  13.775 -0.0648  0.1751  0.2344
24774W        W41621   6.248  11.495  13.152  0.0663  0.2542  0.1375
24775W        W41622  16.020  10.372   4.503  0.2882 -0.2622  0.0124
24776W        W41623   8.961   3.739  15.567  0.1170  0.3154  0.1754
24777W        W41624  17.864   1.706   2.877  0.1579  0.0479 -0.0766
24778W        W41625  13.770   7.353  12.338  0.0085  0.0261  0.2146
24779W        W41626  13.584   7.131  12.731 -0.0390 -0.1503 -0.2492
24780W        W41627  16.831  12.704  10.377 -0.0737  0.0563  0.0263
24781W        W41628  12.117  13.601  15.316 -0.0992 -0.0318 -0.3648
24782W        W41629  17.828   2.648   1.343 -0.0479 -0.4118  0.0307
24783W        W41630   0.057   8.424   1.972 -0.1372 -0.0060 -0.1206
24784W        W41631   7.784   0.993  14.612 -0.4370 -0.0966 -0.2717
24785W        W41632  12.522   8.665   3.195 -0.0442 -0.2943 -0.0871
24786W        W41633   2.909  14.737   0.634  0.2686  0.1724  0.1257
24787W        W41634  16.066  18.335  15.676  0.0646 -0.0440  0.1457
24788W        W41635  12.603   5.996  12.773 -0.0389  0.1228 -0.1735
24789W        W41636   8.950  13.390   0.234  0.0323 -0.1120  0.1767
24790W        W41637   7.210  14.993  12.676 -0.0198 -0.1514  0.0561
24791W        W41638  13.585  15.088   5.230  0.2504  0.0456  0.0410
24792W        W41639   3.701   2.126   1.877  0.0202 -0.1017  0.0058
24793W        W41640   0.125   1.277   2.202  0.0463 -0.2999  0.3273
24794W        W41641  14.001  17.072   3.007  0.0866  0.1120 -0.2281
24795W        W41642   7.311  17.294   3.013  0.2352 -0.2108  0.0913
24796W        W41643   2.554   2.225  15.876 -0.0799 -0.0774  0.1539
24797W        W41644   1.198   9.618   1.714  0.2204 -0.0778 -0.4615
24798W        W41645  11.955  14.624  14.797  0.0365  0.0353  0.1429
24799W        W41646   7.381   9.033   0.479  0.0781  0.0041 -0.3401
24800W        W41647   1.493  11.204  15.239 -0.2398 -0.2261  0.1869
24801W        W41648   7.600   1.205   0.729 -0.1397  0.0409 -0.2082
24802W        W41649   0.204   6.934   3.103 -0.1272 -0.0744  0.3133
24803W        W41650   6.146   1.984   3.470 -0.0034 -0.2884 -0.2392
24804W        W41651   1.183   8.285  12.917 -0.2225  0.2266  0.0044
24805W        W41652   0.256  15.862  15.179 -0.0261  0.0389  0.0285
24806W        W41653   7.396  11.998   5.210 -0.1253 -0.1482  0.1959
24807W        W41654  13.125  10.471   3.714 -0.0800  0.1198  0.0487
24808W        W41655   1.409   2.344   2.896 -0.1803  0.0205  0.1348
24809W        W41656   4.951  11.704  13.603  0.0271 -0.0484 -0.3349
24810W        W41657   2.263  16.753   1.818  0.2955 -0.0753 -0.0950
24811W        W41658   3.277   0.116  11.794  0.3448  0.1270 -0.0361
24812W        W41659  11.593   4.184  12.068  0.1514  0.0416  0.1755
24813W        W41660  14.356  14.737  15.585 -0.1729  0.1266 -0.1629
24814W        W41661  10.587   0.492   1.032  0.0985  0.0121  0.0704
24815W        W41662   1.355   0.578   3.541  0.2487 -0.0161  0.1330
24816W        W41663  15.307   5.186  12.893  0.1290 -0.0815 -0.0102
24817W        W41664   6.853  16.077  15.909 -0.1893  0.0093  0.0813
24818W        W41665   0.798  11.266  11.633  0.1107 -0.0253  0.0419
24819W        W41666  14.718   1.153  10.142 -0.2842 -0.1625  0.1462
24820W        W41667   8.891   2.008   0.084  0.2273 -0.2229 -0.3504
24821W        W41668   9.241  10.633   3.990 -0.0135  0.4108  0.2254
24822W        W41669  10.668   1.691  10.918  0.2230  0.0633 -0.4776
24823W        W41670  16.768  11.767  12.904 -0.2980  0.0382 -0.1273
24824W        W41671   3.141  14.711   1.314  0.0312 -0.1018 -0.0268
24825W        W41672   3.883   8.238   4.625  0.3992 -0.2868 -0.2944
24826W        W41673  11.647   4.992  11.198 -0.2188 -0.1544  0.1628
24827W        W41674   8.353  18.415  12.072  0.0807  0.0547 -0.2753
24828W        W41675  13.246   6.949  14.020  0.0176  0.2584 -0.3113
24829W        W41676  10.921   8.416   4.375 -0.0926  0.1035 -0.1525
24830W        W41677  18.226  13.365  14.850  0.0778 -0.0856 -0.2524
24831W        W41678   4.888   2.032   0.127 -0.2588 -0.0535  0.1487
24832W        W41679  14.779  14.284   1.374  0.0936 -0.2509  0.1602
24833W        W41680  13.095  10.662  13.594  0.0948 -0.0930  0.0410
24834W        W41681   4.312   1.597   3.249  0.0203  0.2420 -0.1562
24835W        W41682  13.749  14.781  12.635 -0.2056  0.1304 -0.2827
24836W        W41683   3.342  15.111   0.091 -0.0481 -0.1126 -0.0300
24837W        W41684  12.070   3.062   3.730 -0.0390 -0.0984  0.0722
24838W        W41685   4.127   3.397   3.986 -0.2262 -0.3258  0.1043
24839W        W41686   4.020  10.925   4.016 -0.1000  0.2024  0.0846
24840W        W41687   0.368   6.569   4.490  0.0875 -0.2454  0.4900
24841W        W41688  11.154  16.110  15.078  0.1136  0.2336  0.2205
24842W        W41689  10.218   9.792  15.663  0.1329 -0.1642 -0.0459
24843W        W41690   5.828  13.663   4.410 -0.1663 -0.4593  0.4516
24844W        W41691  10.594   6.265   2.935  0.3827 -0.1369  0.1580
24845W        W41692  15.063   7.541   2.534  0.1732  0.0245 -0.1530
24846W        W41693   7.818  12.702  14.372  0.1098  0.2015  0.3744
24847W        W41694  14.291   5.307   1.203 -0.0889  0.0389 -0.1941
24848W        W41695  14.703  11.121   3.583  0.1638  0.1691 -0.0236
24849W        W41696   0.282   6.765  15.065 -0.0798  0.1549 -0.3205
24850W        W41697   1.941   6.982   4.730  0.2239 -0.2200 -0.0383
24851W        W41698   7.408   9.415   2.534 -0.0591 -0.0373  0.3566
24852W        W41699   8.024   4.379  12.280  0.1696  0.1784  0.3217
24853W        W41700   8.134  17.325  15.220  0.1814 -0.1873  0.1287
24854W        W41701   9.274   2.372   0.215 -0.1118  0.2761 -0.0210
24855W        W41702   9.025   9.050   2.702  0.2180 -0.1525 -0.0877
24856W        W41703  12.775   6.277  13.176  0.2201  0.1135 -0.0456
24857W        W41704   5.775   3.224  12.246  0.0620  0.0419 -0.2938
24858W        W41705   7.049   0.374  14.191 -0.0737 -0.0655  0.7164
24859W        W41706   1.416  15.034   4.988 -0.2070 -0.3015  0.4604
24860W        W41707  14.992   5.410   2.259 -0.0053 -0.1609  0.0225
24861W        W41708   9.704  13.137   1.382  0.2335 -0.4344 -0.1482
24862W        W41709  11.265  16.398  15.490  0.1267 -0.0382  0.0131
24863W        W41710   9.375   4.440  13.127  0.1650  0.2884  0.3473
24864W        W41711  17.568   6.857  11.112 -0.3073 -0.1821 -0.0621
24865W        W41712   7.695   8.220  10.491 -0.0033 -0.2431 -0.1873
24866W        W41713   3.849   2.296  13.585 -0.1977 -0.0386  0.0291
24867W        W41714   0.072   7.575  12.723 -0.0736 -0.0557 -0.1261
24868W        W41715   0.751   5.766   1.667  0.0842 -0.0989 -0.1404
24869W        W41716  16.611   4.311  12.965  0.6263 -0.0495  0.2511
24870W        W41717   7.684   2.981  12.797  0.0620  0.1353 -0.0291
24871W        W41718   7.526  15.485  14.350  0.1580  0.3118 -0.2468
24872W        W41719   3.551   8.989  12.276  0.2937  0.3013 -0.0599
24873W        W41720  16.720  13.909   1.679 -0.0854 -0.2088  0.1392
24874W        W41721   9.537  17.432   3.634  0.1062 -0.0295  0.1099
24875W        W41722   0.233   0.739  11.501  0.1378  0.0725  0.0762
24876W        W41723   0.141   3.407  11.467  0.1234  0.0581 -0.2074
24877W        W41724  13.818  10.859   4.759 -0.1680 -0.1282  0.0515
24878W        W41725   0.309   2.324  12.323 -0.1359  0.0993 -0.0485
24879W        W41726   8.610  14.610   5.179 -0.1930  0.0545 -0.0063
24880W        W41727  15.121  15.597  14.396  0.2191  0.1637 -0.3527
24881W        W41728  11.890  12.927   5.429 -0.1370 -0.0814 -0.0807
24882W        W41729  16.126   4.716  11.206 -0.1301  0.2851  0.3095
24883W        W41730   1.375   2.382   3.815  0.0726 -0.1710 -0.0143
24884W        W41731  15.283  12.040   1.321  0.0066  0.0577  0.0245
24885W        W41732  12.370  14.801   2.985  0.1828  0.3819 -0.3519
24886W        W41733   6.901  18.327   3.786  0.0096 -0.0336 -0.2162
24887W        W41734   9.509   9.878  13.143  0.1444  0.1282  0.0043
24888W        W41735   9.393   9.341   4.252 -0.3093 -0.3167  0.3126
24889W        W41736   9.326  11.081  14.577 -0.2159  0.1388  0.3518
24890W        W41737  17.183  11.235   1.130  0.0720  0.2771 -0.0296
24891W        W41738   1.602  15.635  15.912  0.4923 -0.0279 -0.2074
24892W        W41739  11.298  15.445  12.128 -0.2546  0.2067  0.0082
24893W        W41740   0.378  10.106   3.979 -0.1646  0.0919  0.1005
24894W        W41741   8.396   0.926   2.035  0.0684  0.0674  0.1139
24895W        W41742  16.176   2.845  13.307 -0.1973 -0.0704 -0.0070
24896W        W41743  14.512   3.564  13.511 -0.0091 -0.2937  0.3274
24897W        W41744   3.599   5.155   0.543 -0.0560  0.1589  0.0013
24898W        W41745   9.223   0.606   4.703  0.4054 -0.0201 -0.1121
24899W        W41746  17.278  17.446  12.907 -0.0290 -0.1083 -0.0390
24900W        W41747   4.914  10.742  15.419  0.2856 -0.2473  0.0002
24901W        W41748   3.596   3.351   4.065 -0.2765  0.0898  0.0216
24902W        W41749   7.171  13.969   4.510  0.2012 -0.3006  0.0568
24903W        W41750   7.691   2.651  13.330  0.0736  0.2994 -0.1881
24904W        W41751   3.630  15.824   2.524  0.1233 -0.0596  0.0460
24905W        W41752   2.409   6.275   0.639 -0.0135  0.2262 -0.2344
24906W        W41753  16.494   6.118  12.937  0.0886 -0.0577 -0.0721
24907W        W41754  12.824   2.270   3.798 -0.0100 -0.0149 -0.0693
24908W        W41755   8.263   3.747  12.907  0.3907 -0.0287  0.1150
24909W        W41756  16.470  17.825  14.689 -0.2697 -0.0065  0.0996
24910W        W41757   2.646   5.760  13.413 -0.2949 -0.2725 -0.1730
24911W        W41758   8.780   6.451   3.383  0.2899 -0.1373 -0.2602
24912W        W41759   8.110  12.208  13.308 -0.0432 -0.0707 -0.0724
24913W        W41760   6.698   7.551  11.918  0.1159 -0.0518 -0.1110
24914W        W41761   7.970  15.159   3.543 -0.3377 -0.1568 -0.1225
24915W        W41762  10.126   3.927   0.520 -0.1236 -0.2357 -0.3551
24916W        W41763  17.393  15.640   0.556 -0.4164 -0.1421  0.1517
24917W        W41764   9.574  11.688   5.921  0.0971 -0.2936 -0.1182
24918W        W41765   6.422   5.522   4.608  0.1341  0.0392 -0.0073
24919W        W41766  17.943  11.099   3.550  0.0436 -0.0731  0.0236
24920W        W41767   6.402   4.610   2.313 -0.0813 -0.0589  0.0934
24921W        W41768  14.489   8.078   3.459  0.0264  0.1450 -0.3176
24922W        W41769   6.592   2.389   1.229  0.0680  0.0570 -0.0393
24923W        W41770  14.808   6.538   0.728  0.0666 -0.4467  0.1526
24924W        W41771   3.126  14.360  15.143 -0.2279  0.1040  0.0819
24925W        W41772   7.767   2.173   0.584 -0.1556 -0.1903 -0.0908
24926W        W41773   3.138   8.236   0.075  0.2800  0.1014  0.1223
24927W        W41774   4.015  13.337  12.653  0.2362  0.1043 -0.0981
24928W        W41775   1.094   0.263   2.541 -0.0812 -0.1261 -0.1375
24929W        W41776  16.423   6.369  15.854 -0.0788  0.0922  0.1514
24930W        W41777   5.880  17.183   4.465 -0.3771 -0.4092  0.2074
24931W        W41778  12.611  12.165  12.313  0.0362 -0.2240  0.2368
24932W        W41779   4.363   7.701   1.796  0.0266 -0.0312  0.2345
24933W        W41780   0.001   7.544   1.093 -0.0476 -0.1561 -0.0901
24934W        W41781   5.200  12.512  13.412 -0.1456 -0.0316 -0.0872
24935W        W41782  10.443  15.385   1.294 -0.1482  0.1344 -0.0904
24936W        W41783   4.094   7.127   3.114  0.3227  0.0511  0.3263
24937W        W41784   4.135   6.295   2.487  0.1208 -0.1019  0.1204
24938W        W41785  17.596   0.776   0.953 -0.0716  0.0270 -0.0585
24939W        W41786   9.010  12.912  14.628  0.1478  0.1339  0.1499
24940W        W41787   3.025   2.527  11.994 -0.0152  0.1289 -0.0351
24941W        W41788   2.254   0.461  11.177 -0.1476  0.0583  0.0069
24942W        W41789   5.750   4.584  15.753 -0.1109  0.0839 -0.0251
24943W        W41790   5.588  10.858   5.239 -0.1574  0.1186  0.0561
24944W        W41791   1.204  16.836  14.587 -0.0801 -0.2177 -0.0378
24945W        W41792   4.243  15.298   2.243  0.0084  0.0339  0.3101
24946W        W41793  12.936   4.082   3.620 -0.0178 -0.1140 -0.2332
24947W        W41794  15.378   9.067  15.830 -0.0218 -0.2595  0.2241
24948W        W41795   6.995   0.526   0.881 -0.2274 -0.1135 -0.0109
24949W        W41796   9.706   1.836   2.518  0.1269  0.1250 -0.0352
24950W        W41797  10.772   0.197  13.895  0.2868 -0.0455 -0.0301
24951W        W41798   3.899   1.880   2.269  0.0246 -0.0353 -0.1398
24952W        W41799  14.307  17.064   3.733 -0.0358  0.1679 -0.0128
24953W        W41800   3.952  14.488   4.452 -0.1397 -0.0381  0.1308
24954W        W41801   1.655   6.957   0.701 -0.0533 -0.1757  0.1555
24955W        W41802   4.532  16.447   4.629  0.2193  0.0800  0.0319
24956W        W41803  17.083   3.052   0.019  0.0097  0.0758 -0.1616
24957W        W41804   7.714  16.247   4.460  0.0717  0.2774 -0.1272
24958W        W41805  10.569   3.657  11.551 -0.1225 -0.0219  0.1290
24959W        W41806   6.641  16.996  14.711  0.0817  0.1461 -0.1684
24960W        W41807  16.474   7.536   2.046  0.0945 -0.2404  0.0961
24961W        W41808  10.131   3.749  11.758 -0.1934 -0.0669  0.2469
24962W        W41809  10.285   0.830   2.245 -0.1071  0.0954 -0.1323
24963W        W41810   6.287  17.229   3.564  0.3139  0.0981 -0.0266
24964W        W41811   9.325   4.459  12.183 -0.1108  0.0262  0.0587
24965W        W41812   9.885   4.803  14.993  0.1731  0.0513  0.2080
24966W        W41813  14.123   9.990   3.683  0.3031  0.3331 -0.0540
24967W        W41814  11.839   4.540  10.907 -0.0048  0.0359 -0.0530
24968W        W41815  13.363   4.247   3.465 -0.0829  0.0596  0.0892
24969W        W41816  14.682   4.608   3.391  0.0864  0.1189  0.0133
24970W        W41817  14.413  10.223   4.249 -0.2031 -0.1069 -0.2001
24971W        W41818  13.084  16.243  13.216 -0.0486 -0.0612 -0.0310
24972W        W41819   6.598   0.750  15.168  0.0270  0.0467 -0.0812
24973W        W41820  10.199   9.436  11.851  0.0823 -0.1279  0.2700
24974W        W41821   6.892   4.429   0.426 -0.2868 -0.2784  0.0446
24975W        W41822   1.696  10.780  12.139 -0.0332  0.1201 -0.1907
24976W        W41823  15.919  17.092   2.115 -0.0054 -0.0454  0.2209
24977W        W41824  11.066   0.271  15.419 -0.1183  0.1062  0.1426
24978W        W41825  18.119  10.765   2.095 -0.0064  0.0987 -0.0273
24979W        W41826  15.271   9.952   4.201 -0.1227 -0.1065  0.1883
24980W        W41827  15.672   5.597   2.752 -0.0942  0.1823  0.0959
24981W        W41828  14.014  14.668   3.130 -0.0131 -0.3379 -0.2058
24982W        W41829   2.625   8.886   4.736  0.1138  0.4353  0.2072
24983W        W41830   7.211  14.164  12.150  0.1532 -0.3153  0.4234
24984W        W41831   5.723   1.112   3.742 -0.1090  0.1839  0.0227
24985W        W41832  14.693  17.287   4.445 -0.2566  0.1316  0.1304
24986W        W41833   6.291   8.530  12.599  0.0110 -0.3568  0.3662
24987W        W41834  18.311  13.603  14.349 -0.1256  0.2732 -0.0488
24988W        W41835  14.907   0.715  15.341  0.1631  0.1005  0.1444
24989W        W41836  15.537  16.400   0.481  0.1419 -0.0627 -0.0744
24990W        W41837  13.369   0.071  14.585 -0.0928  0.0441 -0.1247
24991W        W41838   0.609   8.949  14.736 -0.2409 -0.0171 -0.1062
24992W        W41839   7.422   5.958   2.004  0.1588 -0.1241  0.0804
24993W        W41840  10.733   8.608  14.392  0.3124 -0.1079 -0.0772
24994W        W41841   2.544  14.166   1.401  0.1775  0.2294 -0.1944
24995W        W41842   7.625   6.338  15.407 -0.0228  0.0751  0.5056
24996W        W41843   5.675   7.066  10.420 -0.3058 -0.0458 -0.0442
24997W        W41844  11.421   4.428  14.918 -0.0244  0.4777 -0.1367
24998W        W41845   9.555   6.828  11.925  0.1695 -0.1166 -0.1217
24999W        W41846   4.673  15.350  13.869 -0.1471 -0.1070 -0.0545
25000W        W41847  15.997   0.272  14.805  0.2795  0.0522 -0.1401
25001W        W41848   4.950   8.998  12.501  0.2480 -0.1277  0.0077
25002W        W41849  14.016   0.247  12.326 -0.2733 -0.0951  0.3191
25003W        W41850  17.568   7.351  14.452  0.0146 -0.1928 -0.1998
25004W        W41851   9.995  10.151   0.489 -0.2148 -0.0304 -0.2412
25005W        W41852   6.939   5.614   4.684 -0.0991 -0.0652 -0.1454
25006W        W41853   4.071   5.818  15.393  0.2125  0.0927 -0.1221
25007W        W41854  15.283   7.708   4.913 -0.2343 -0.1025 -0.2691
25008W        W41855   2.024   3.239   1.590 -0.0739  0.2431  0.1299
25009W        W41856  16.383   5.133  15.206  0.1446 -0.4759  0.1540
25010W        W41857  12.359   6.531   1.353  0.2059  0.0195  0.0526
25011W        W41858  15.650   9.798   3.663 -0.0477  0.1498  0.0513
25012W        W41859   0.419  12.753  11.427 -0.2662  0.0431 -0.1804
25013W        W41860  10.092  15.682   1.461 -0.0432  0.0576 -0.1484
25014W        W41861   4.725   0.362  13.577 -0.1954 -0.3251  0.0716
25015W        W41862  18.479   5.233   5.342  0.4115 -0.0157 -0.1908
25016W        W41863   4.501   4.487   3.675  0.0233 -0.1045  0.0027
25017W        W41864   8.899   6.022  14.168 -0.2775 -0.1728 -0.3197
25018W        W41865   3.709  15.120  12.295 -0.2859 -0.1409 -0.2737
25019W        W41866  13.959  15.433  15.105  0.1631 -0.0280 -0.0492
25020W        W41867  17.333  12.057  14.022  0.3520  0.3768 -0.0421
25021W        W41868   5.498  16.212   2.683  0.0723  0.1283 -0.0952
25022W        W41869   5.890  15.313  14.236 -0.2168  0.0386 -0.0858
25023W        W41870  16.331   9.816  15.822  0.0352 -0.2338 -0.1971
25024W        W41871  11.969   5.662   3.778 -0.0243  0.0238  0.1678
25025W        W41872   3.658  16.681  14.872 -0.1190  0.1079 -0.1392
25026W        W41873   8.640   5.899  10.984  0.2937 -0.2101  0.0542
25027W        W41874   1.113   5.251   3.378  0.1713 -0.0078 -0.2402
25028W        W41875   9.874  12.725  12.846  0.0290  0.1628  0.1472
25029W        W41876   9.752   9.341   3.903 -0.1627  0.0956 -0.0454
25030W        W41877  13.136  15.780   3.579 -0.1817 -0.2011 -0.2108
25031W        W41878   3.900   0.235  13.349  0.1267  0.0289  0.3321
25032W        W41879  11.641   3.606   3.428  0.1359 -0.0988  0.0824
25033W        W41880   1.057   7.067   2.162  0.1675 -0.1370 -0.1340
25034W        W41881   6.592   4.938  12.312  0.2831 -0.0679 -0.2499
25035W        W41882  10.242  16.256   0.936  0.2953 -0.2523  0.0794
25036W        W41883  12.565   5.045  15.677 -0.0485  0.2115  0.1314
25037W        W41884   5.240   1.065  11.942 -0.0658  0.2267 -0.1114
25038W        W41885  14.435   0.280   1.216 -0.1302 -0.1271  0.1600
25039W        W41886   9.245  17.686   5.762 -0.2133  0.0799  0.2452
25040W        W41887   1.839  15.157  14.985  0.1387 -0.0062  0.1747
25041W        W41888  16.162   5.760  15.253 -0.0885  0.0370 -0.0362
25042W        W41889   5.484  16.465  13.484 -0.1272  0.3282 -0.3671
25043W        W41890  13.273  11.669  12.080 -0.1746  0.0043  0.0852
25044W        W41891   4.289  11.104  13.228  0.0323  0.2705 -0.1122
25045W        W41892  14.203  15.206   0.028  0.2783  0.0719 -0.0096
25046W        W41893   6.684  15.811   0.742  0.0384 -0.1892 -0.0073
25047W        W41894  11.191   7.411  15.591  0.1494 -0.0218 -0.2213
25048W        W41895  15.410  11.697  13.849  0.0324 -0.1227  0.3300
25049W        W41896  11.358   6.820   3.314  0.0603 -0.0658  0.1119
25050W        W41897  15.149  14.628  14.555 -0.0023 -0.0370 -0.0643
25051W        W41898   3.572   4.140   4.040 -0.0699  0.2156 -0.0363
25052W        W41899   6.817   5.773   2.893  0.1403 -0.0288  0.1658
25053W        W41900  17.772  14.297   3.140 -0.0541  0.2944 -0.0020
25054W        W41901  11.775   9.666  13.286  0.3422 -0.3070 -0.0746
25055W        W41902  14.642   0.417   1.631 -0.1907  0.0851 -0.0871
25056W        W41903  11.948  15.770   1.038 -0.1652  0.0067  0.2169
25057W        W41904   2.276   7.733   4.289  0.1583 -0.1429 -0.3192
25058W        W41905   0.187  12.271  12.688 -0.3443 -0.2079  0.0687
25059W        W41906   5.128   4.182   3.565 -0.1190 -0.0049 -0.1870
25060W        W41907   3.710  10.970   2.410 -0.1673 -0.1535  0.0585
25061W        W41908  15.334  11.623  11.479 -0.0473 -0.3228  0.1224
25062W        W41909  12.359  17.059  11.077  0.2975 -0.0408  0.0248
25063W        W41910   4.297  10.229  13.121 -0.1546 -0.0229  0.0317
25064W        W41911  13.886  12.920  11.427  0.2960  0.3599  0.3994
25065W        W41912   1.153   4.412   3.659  0.2851  0.2037  0.2508
25066W        W41913  13.658   1.728  10.690  0.0952  0.1194 -0.1546
25067W        W41914   7.398   0.137  14.944  0.2111 -0.1863 -0.0968
25068W        W41915   3.464  14.100  12.789 -0.0675  0.1912 -0.2576
25069W        W41916   3.681  18.161   2.966 -0.0550  0.4211 -0.0209
25070W        W41917  18.156   7.880   1.150  0.2324  0.1213 -0.0031
25071W        W41918  18.525   1.376  15.644 -0.1291  0.2164 -0.3036
25072W        W41919   2.445  13.259  11.733  0.3392 -0.0366  0.2791
25073W        W41920  11.632   6.243   1.836  0.0123  0.2285 -0.1276
25074W        W41921   6.411   6.656  12.270 -0.2595 -0.0534  0.3039
25075W        W41922   7.346   5.806   0.280  0.2660 -0.1409 -0.3663
25076W        W41923   3.607  11.523  15.774  0.1069 -0.1131  0.0611
25077W        W41924  11.925   8.091   1.988 -0.0345  0.2732 -0.0276
25078W        W41925   0.011   3.982   3.110 -0.3624  0.1320 -0.1789
25079W        W41926   7.908  10.102   0.471 -0.1379  0.0076  0.1209
25080W        W41927  18.458  15.973  14.318 -0.0143  0.1323  0.0730
25081W        W41928   6.027  13.370   2.834  0.1966  0.1276  0.0831
25082W        W41929   6.114  13.663   5.186 -0.1886 -0.1132 -0.2283
25083W        W41930   3.179   9.978  12.481 -0.3076  0.0043 -0.1848
25084W        W41931   5.917   8.237  11.638  0.0214  0.0339 -0.0131
25085W        W41932  12.280   8.277  11.535 -0.1164  0.0077 -0.2816
25086W        W41933   7.417  15.263   3.573 -0.1007 -0.1507  0.2480
25087W        W41934   1.097   5.913  13.569  0.0602 -0.2903  0.0885
25088W        W41935   1.561   0.054  11.811 -0.3273  0.1621  0.2639
25089W        W41936   6.822  16.725   1.174 -0.0806 -0.1353 -0.1756
25090W        W41937   5.285  14.690   2.886  0.1597  0.2155 -0.1086
25091W        W41938  14.285   1.487  10.952  0.0542  0.2124  0.0160
25092W        W41939  15.901   4.695   4.449  0.2310  0.1490 -0.1717
25093W        W41940  12.556   1.542   5.164  0.1037 -0.1128 -0.0426
25094W        W41941  14.644   4.319   4.764  0.1759 -0.0152  0.2504
25095W        W41942   9.544   7.862   1.784  0.1871  0.1487  0.2323
25096W        W41943  12.619   7.724  14.382  0.2186  0.0009  0.4055
25097W        W41944   5.652   0.069  12.520  0.2839 -0.1395  0.1336
25098W        W41945  10.446  12.587   2.340  0.0809  0.3186  0.2598
25099W        W41946   1.620  17.112   1.320  0.0487 -0.2805 -0.1407
25100W        W41947  15.968  17.968   2.831  0.1351  0.0619 -0.0237
25101W        W41948   6.468  14.354  12.611 -0.0865  0.1745 -0.0947
25102W        W41949   0.253   1.584  13.753  0.3484 -0.3867  0.0184
25103W        W41950  11.658   8.179  12.483 -0.0492  0.1791  0.0909
25104W        W41951   8.767   6.799   5.196 -0.0043  0.2383 -0.0573
25105W        W41952  10.775  10.866   1.645 -0.1645  0.0817  0.1796
25106W        W41953  17.174  16.586  15.771 -0.1914 -0.0868  0.1759
25107W        W41954   5.930  14.227   0.044  0.1956 -0.0616 -0.0698
25108W        W41955   1.091  14.204  10.421  0.2246 -0.0658  0.0776
25109W        W41956  17.109  10.060   3.460 -0.2088  0.0284  0.1396
25110W        W41957   6.350  12.008  12.828 -0.2039  0.1329 -0.1293
25111W        W41958  16.819  16.589  12.443  0.1933  0.1528  0.0968
25112W        W41959  13.501  11.815   0.352 -0.3352  0.1933 -0.0614
25113W        W41960  14.084   6.077   5.210 -0.1288  0.0889  0.0992
25114W        W41961   4.477   7.118  14.012  0.1726  0.1159  0.1050
25115W        W41962   2.061   0.477   4.700 -0.0907 -0.0250 -0.2269
25116W        W41963   6.715   0.850  14.271  0.2393 -0.0123 -0.2100
25117W        W41964  18.025  15.971   0.968 -0.2097  0.2080  0.7319
25118W        W41965   2.764   2.132   0.400 -0.2360 -0.1135  0.0727
25119W        W41966   1.625   9.914   5.178  0.0529 -0.1160  0.0802
25120W        W41967   2.834   6.294   2.225  0.0877  0.1283 -0.3512
25121W        W41968  14.879   2.270  11.901  0.0050 -0.2062 -0.0351
25122W        W41969  18.086  15.065  11.977 -0.3019 -0.2039 -0.3894
25123W        W41970  16.891   9.011   0.795  0.2681 -0.1935 -0.0447
25124W        W41971   5.394   0.290  12.854 -0.0251  0.0666  0.1395
25125W        W41972   0.655  11.885   3.466 -0.0667 -0.1447 -0.2155
25126W        W41973   2.048   0.747  13.130 -0.1645 -0.0469  0.0245
25127W        W41974  14.080   5.168  13.321  0.0282  0.1689 -0.3979
25128W        W41975   5.891   1.489   2.362 -0.0003  0.3382  0.0550
25129W        W41976   9.563  10.355  11.937  0.1654 -0.1322  0.4636
25130W        W41977   5.913   7.322  11.692 -0.0867 -0.2298  0.1884
25131W        W41978  17.832   4.163   5.220 -0.1883 -0.0280 -0.0297
25132W        W41979   1.721  14.834  11.955 -0.0224  0.0899  0.0109
25133W        W41980  18.280  10.692   4.461  0.3314  0.0259  0.0524
25134W        W41981   4.830   7.958  13.722  0.1385  0.3067 -0.0867
25135W        W41982   8.446  14.599   3.551  0.0217  0.1237  0.0275
25136W        W41983  16.293   2.644  14.756 -0.1724 -0.0791 -0.1936
25137W        W41984  12.249  18.535   1.822  0.2691  0.1335  0.0697
25138W        W41985  15.672   4.877   1.400  0.1567 -0.1115  0.0023
25139W        W41986   4.684   5.003  13.935  0.0330 -0.1128 -0.1629
25140W        W41987   4.237   1.801  12.738 -0.2409  0.0716  0.1124
25141W        W41988  12.662   1.926  15.722 -0.1432 -0.1377  0.2535
25142W        W41989  12.738   8.213   4.007 -0.2009 -0.0055  0.1493
25143W        W41990   1.561   9.605   2.604  0.1746 -0.0325  0.0769
25144W        W41991   6.551   6.122  14.085  0.1783  0.0925  0.1570
25145W        W41992   3.441  15.303   3.991 -0.0614  0.0877 -0.0079
25146W        W41993  13.840   8.808   1.172 -0.1415  0.2388 -0.0417
25147W        W41994   6.952  15.218   4.992 -0.0292 -0.3315 -0.2187
25148W        W41995   8.960   8.532  15.421 -0.0572  0.1227  0.0730
25149W        W41996   9.325  12.321  12.712  0.1585  0.1854 -0.1264
25150W        W41997   8.663  14.119  14.441 -0.1766 -0.1093 -0.1012
25151W        W41998   5.273  12.965   2.962  0.0224 -0.1849 -0.0037
25152W        W41999   9.198  16.131   4.477  0.2596 -0.0344  0.3161
25153W        W42000   0.044  13.243   5.969  0.4154  0.0725  0.2096
25154W        W42001   7.502   9.292   5.111 -0.0626 -0.3942  0.0249
25155W        W42002  15.776  18.365   1.714 -0.1628  0.0688  0.2507
25156W        W42003  14.368   4.973  11.719  0.1998  0.2085  0.0414
25157W        W42004  18.526  10.196  12.992 -0.0105 -0.1056  0.0604
25158W        W42005   5.765  13.706   2.571  0.1636 -0.1262 -0.2760
25159W        W42006   5.423   2.161  12.163  0.0562 -0.0334  0.1745
25160W        W42007  10.698   0.862  13.588  0.2867 -0.1448 -0.1580
25161W        W42008  11.572   0.251   4.039 -0.0209 -0.0744  0.0373
25162W        W42009  15.013  17.613  11.683  0.2163 -0.2742  0.3612
25163W        W42010  15.701  17.143   3.671  0.1938  0.0894 -0.1149
25164W        W42011   9.693  16.307  12.070  0.0787 -0.3757 -0.0568
25165W        W42012  11.645  13.005  11.823  0.1947  0.2523 -0.1255
25166W        W42013  15.710  17.884   3.981 -0.2280 -0.0088  0.0696
25167W        W42014  17.430   0.171   1.356 -0.4492  0.1414  0.1624
25168W        W42015  16.928  13.397   1.642 -0.4464  0.0723  0.3293
25169W        W42016   7.604   5.139   4.999  0.1845  0.0151 -0.1491
25170W        W42017  10.630   1.304   0.654 -0.0632 -0.1230  0.2011
25171W        W42018   9.999  14.213   3.658 -0.2083 -0.1715 -0.0116
25172W        W42019  12.090   5.457   1.036 -0.0074 -0.1879  0.1294
25173W        W42020  10.033   3.940   3.001  0.0763 -0.0045 -0.1451
25174W        W42021   1.704   7.884  14.959 -0.0992  0.1400  0.1977
25175W        W42022   6.858  14.642  15.169 -0.2391 -0.3148 -0.1684
25176W        W42023   4.838  12.779  13.720 -0.1153  0.0885  0.3257
25177W        W42024   1.336   8.811  15.002 -0.1840 -0.0409 -0.0587
25178W        W42025  11.191   5.642   3.123  0.0483  0.1348  0.4116
25179W        W42026  13.372  12.794   1.393  0.1888 -0.1664  0.2970
25180W        W42027  10.921   0.354   3.722 -0.1829  0.0553 -0.0468
25181W        W42028   9.358  18.173  11.888 -0.1228  0.0945 -0.1363
25182W        W42029  17.321   9.129  13.704  0.0475 -0.0782  0.1435
25183W        W42030  12.753   4.098  11.102 -0.0242 -0.2814  0.0381
25184W        W42031   3.554   5.131   2.603  0.1000  0.2060 -0.0542
25185W        W42032   7.100  14.542  12.909  0.0941  0.1131  0.3065
25186W        W42033  14.110   2.015   2.329  0.0326  0.2145  0.2019
25187W        W42034   0.077  14.274   5.087  0.0259  0.1304  0.1677
25188W        W42035   1.231  10.174   0.631 -0.2783  0.1071 -0.0752
25189W        W42036   7.688  15.016   0.093 -0.2740 -0.0634 -0.1128
25190W        W42037   6.343  12.531  12.159  0.0595 -0.2305 -0.0206
25191W        W42038   0.146  17.689   3.508  0.1101  0.0609 -0.0812
25192W        W42039   9.066  12.476   5.115  0.0429  0.2106  0.1885
25193W        W42040  11.642  12.350  13.334  0.0280 -0.1876 -0.1079
25194W        W42041   4.631   5.716   5.272 -0.1305 -0.0265  0.1127
25195W        W42042  18.057  18.404   5.379  0.0970 -0.0058  0.1555
25196W        W42043  16.451  14.320   0.092  0.0515 -0.2460  0.0534
25197W        W42044   7.858  17.504  14.506 -0.2748 -0.2438 -0.0188
25198W        W42045   1.157  18.457  13.766  0.1857 -0.1201  0.0229
25199W        W42046  17.070  18.234   5.217  0.1507  0.1053  0.0119
25200W        W42047  14.906  18.319   3.552 -0.3337  0.0043 -0.2416
25201W        W42048  16.933   7.753   2.198 -0.0930  0.0948  0.0035
25202W        W42049   2.995   8.344   5.048 -0.0112  0.1927  0.0123
25203W        W42050  17.040   3.714   4.236  0.0446 -0.0548 -0.2499
25204W        W42051   9.279  18.256  13.302  0.3483  0.4212  0.0952
25205W        W42052   3.625  10.316   0.738 -0.0380 -0.4921  0.1608
25206W        W42053  11.759  16.587   5.129  0.0776  0.0115 -0.0268
25207W        W42054  14.512   0.078   3.666  0.1529  0.3286 -0.1348
25208W        W42055  12.589   4.264  13.442 -0.0512 -0.0445  0.1871
25209W        W42056  10.284  18.342  10.889  0.0325 -0.1207 -0.0673
25210W        W42057   7.951  14.683   1.112 -0.1148  0.1844  0.0698
25211W        W42058  15.638   8.384   4.241  0.0944 -0.3045 -0.0116
25212W        W42059   5.951   9.632  14.957 -0.1634 -0.2192  0.0549
25213W        W42060  17.085   2.046   1.411 -0.2662  0.0376 -0.2279
25214W        W42061  12.418  12.243  15.030 -0.0631  0.0784 -0.1732
25215W        W42062  15.547   5.702   4.561  0.0754  0.2915 -0.0840
25216W        W42063  14.118   0.092  11.247 -0.4212  0.0154 -0.3479
25217W        W42064   1.249   5.643  15.429  0.1805  0.1274 -0.1138
25218W        W42065   4.062  17.355   1.821  0.2545  0.0743  0.0864
25219W        W42066   1.323  17.822   4.006 -0.1875  0.0063  0.0287
25220W        W42067   4.324  11.836  11.257  0.1978  0.1717  0.1213
25221W        W42068  17.665  16.348  11.445  0.1677  0.0756 -0.1857
25222W        W42069  15.803  12.592   1.911  0.1144 -0.0115  0.1970
25223W        W42070  16.127   9.347  14.662 -0.3409  0.1551  0.0360
25224W        W42071  15.948  16.538   1.211 -0.2557 -0.1284 -0.0781
25225W        W42072   8.157   6.394   2.277 -0.0226 -0.0735 -0.0473
25226W        W42073  18.144   9.600   2.473  0.0039 -0.4459  0.2142
25227W        W42074  14.495  13.550  12.559  0.0991  0.1158  0.0831
25228W        W42075   7.273  15.517   1.307  0.1855  0.2236  0.2006
25229W        W42076  12.599  14.981   0.358  0.0318 -0.1444 -0.1308
25230W        W42077   1.575   0.557   2.402  0.1695 -0.1710 -0.1612
25231W        W42078   0.127  15.647  15.622  0.0271 -0.3824  0.2501
25232W        W42079  17.517  10.457  12.673 -0.1361  0.1110  0.1600
25233W        W42080   0.279  13.709   5.121  0.2120 -0.0239 -0.2271
25234W        W42081   3.532   3.819   1.882 -0.2906 -0.0888  0.1373
25235W        W42082   5.452  11.481  13.887 -0.2395 -0.0688 -0.0109
25236W        W42083   4.917  14.515   2.203 -0.1685  0.0577 -0.1844
25237W        W42084   1.790   9.479   0.231  0.1207  0.0648 -0.0562
25238W        W42085   5.056  11.642   4.677 -0.0492  0.0253  0.1506
25239W        W42086   2.129   0.211  14.050  0.1595  0.0366  0.0063
25240W        W42087   7.050   1.156  13.444 -0.2293  0.2318 -0.0313
25241W        W42088   4.076  12.045   3.838 -0.1631 -0.3209 -0.3284
25242W        W42089  14.024  16.658   1.135 -0.0925 -0.0855  0.0601
25243W        W42090   1.820   0.125  15.776  0.1628 -0.0796  0.0897
25244W        W42091   4.134  15.712   2.496 -0.1879  0.2574 -0.1124
25245W        W42092   3.192   3.489  11.001 -0.1013 -0.2567  0.0227
25246W        W42093  12.771   2.710   3.664 -0.1953  0.0053  0.0633
25247W        W42094   8.801  15.599   5.541  0.3577 -0.1047  0.2550
25248W        W42095   3.603  12.249  15.086 -0.0347 -0.1285  0.0309
25249W        W42096  14.940   8.404   1.827 -0.1770 -0.0663 -0.0337
25250W        W42097  15.600   5.634   0.649 -0.2827  0.1925 -0.0237
25251W        W42098   4.714  17.488   5.006  0.0484 -0.1814  0.1803
25252W        W42099  12.677   7.398   1.028 -0.3316  0.3071  0.1651
25253W        W42100  14.186   8.690   0.339 -0.0710 -0.1918  0.1086
25254W        W42101  15.265  16.782   0.286  0.0544  0.0893  0.0826
25255W        W42102   3.129   6.819   4.048  0.0911 -0.2558  0.1282
25256W        W42103  13.546   7.911  10.423 -0.1383  0.2649 -0.2038
25257W        W42104   0.850  13.092   2.911 -0.0919  0.2870  0.0765
25258W        W42105  13.918  13.832  12.478  0.1136 -0.0947 -0.2924
25259W        W42106   6.377  12.510   2.656  0.1395 -0.1121  0.0420
25260W        W42107   3.123   9.870  11.773  0.2462 -0.3258  0.0708
25261W        W42108   7.621  14.060   4.316  0.2074  0.0673  0.1073
25262W        W42109   0.087   5.386  12.033  0.2548 -0.0389  0.2511
25263W        W42110   2.387  12.883   5.128 -0.3452  0.2463 -0.1965
25264W        W42111  14.250   1.202   3.157  0.3726 -0.2589  0.2272
25265W        W42112   9.157   9.923  15.931  0.3823  0.0815  0.0215
25266W        W42113  17.884  18.079   0.963  0.0221 -0.3140  0.2376
25267W        W42114  13.243  11.110  11.643  0.4500 -0.0839  0.0301
25268W        W42115  11.837  15.735  14.480 -0.1804 -0.0734 -0.1055
25269W        W42116  11.178   0.655   1.171  0.3315  0.0341  0.0151
25270W        W42117   1.533   3.890   1.246  0.1102 -0.2168 -0.0160
25271W        W42118   8.984  17.571  14.667  0.1404 -0.2141  0.1093
25272W        W42119  14.995   7.687   4.492  0.1225 -0.0266  0.3621
25273W        W42120  15.003   6.712   1.290 -0.1093 -0.1598  0.0487
25274W        W42121  14.431   6.869   4.400 -0.0507  0.3585  0.0668
25275W        W42122   0.245   2.813  11.907 -0.2410  0.3118  0.0038
25276W        W42123   3.784  16.903   5.868 -0.3456  0.1122 -0.1693
25277W        W42124  18.157  16.413  11.612 -0.2665 -0.2812 -0.1262
25278W        W42125  15.228  17.010   3.346 -0.3756 -0.0231  0.2191
25279W        W42126   1.323   1.927  15.749  0.1095 -0.0383  0.2065
25280W        W42127   5.843  11.987  12.681 -0.0359 -0.1438 -0.1396
25281W        W42128   0.732   4.780  11.903 -0.1148  0.0543 -0.2346
25282W        W42129  17.571   2.972   0.111 -0.1795 -0.1171 -0.1871
25283W        W42130   0.163   1.081  13.857  0.0642  0.1653  0.2552
25284W        W42131  13.176   3.419  15.413  0.2725  0.0222 -0.2141
25285W        W42132  17.744   2.982  12.739  0.0581  0.0538 -0.4210
25286W        W42133   5.556   0.377   4.448  0.1845  0.0849 -0.0375
25287W        W42134   2.526  12.803   3.355 -0.2135 -0.0607  0.2674
25288W        W42135  13.758   9.641  15.774 -0.2120 -0.2093 -0.1559
25289W        W42136   9.656   1.588  14.417 -0.0348  0.2287  0.1849
25290W        W42137   8.572   4.439   1.725  0.1138 -0.1704  0.1416
25291W        W42138  15.068   5.269  12.429 -0.1164 -0.1310 -0.1908
25292W        W42139   5.466   1.878  14.865 -0.2885  0.2488  0.0625
25293W        W42140   7.250   2.455  11.539 -0.2018 -0.0276  0.1395
25294W        W42141   3.943   5.725   3.615  0.0851  0.1405  0.4136
25295W        W42142  12.914  16.556  14.099 -0.0191 -0.0551 -0.0352
25296W        W42143   0.910   1.255  11.237  0.1003  0.2875  0.1903
25297W        W42144  14.813  13.055  13.923 -0.0183  0.1211  0.1933
25298W        W42145  13.328  18.450   1.799 -0.0909  0.2293  0.0922
25299W        W42146   2.765   8.744  11.674 -0.0047 -0.0158  0.2397
25300W        W42147  10.943  14.843  12.251  0.2998 -0.1197  0.1628
25301W        W42148   8.627  15.869  13.012 -0.1593 -0.0937 -0.0269
25302W        W42149   8.749   0.358  15.749  0.0667 -0.0123  0.1738
25303W        W42150   3.112  17.234   1.457 -0.1051 -0.1518 -0.1762
25304W        W42151   8.029  16.609  13.122 -0.0389 -0.3454  0.1488
25305W        W42152  15.637   0.888   0.033 -0.1123  0.0197  0.2256
25306W        W42153   4.743   3.546  10.178  0.0654  0.0996  0.1272
25307W        W42154   2.232  13.035  13.893  0.3500  0.4905  0.1504
25308W        W42155   2.649   6.461  14.068  0.0352 -0.1235  0.0683
25309W        W42156  10.314   1.896   5.531 -0.0232 -0.1023 -0.0208
25310W        W42157   6.146  15.572  13.250  0.2314 -0.1978  0.1456
25311W        W42158  14.047  18.217  14.314 -0.0335 -0.1111  0.1304
25312W        W42159  11.586  12.743   4.586 -0.0244  0.1904  0.1241
25313W        W42160  12.546  13.673  12.773 -0.1554  0.2033  0.3760
25314W        W42161   9.658   9.791  10.921  0.0844  0.0832 -0.2555
25315W        W42162   0.226  17.633   5.462 -0.0251 -0.1839  0.0447
25316W        W42163  11.155   3.736   4.633 -0.1258 -0.1911 -0.1006
25317W        W42164  14.550   2.341  12.928  0.1585 -0.1815  0.0570
25318W        W42165   0.379  16.362   1.784 -0.0791 -0.1286  0.2375
25319W        W42166  11.208   3.567  15.807  0.0030 -0.0629 -0.2143
25320W        W42167   4.919   6.649  14.653 -0.2210 -0.1068 -0.1297
25321W        W42168   8.162   7.001   3.111  0.2302  0.1106 -0.0789
25322W        W42169  14.875  15.701  10.507 -0.2866  0.2765 -0.1804
25323W        W42170   8.993  17.167  13.548  0.0133 -0.4037 -0.0310
25324W        W42171   7.110  12.635   0.181 -0.0813 -0.0813  0.1031
25325W        W42172  16.302   6.209  13.899  0.1259 -0.2287  0.0674
25326W        W42173   6.331   7.671   0.702 -0.3261  0.2281 -0.0697
25327W        W42174  13.617  11.424  11.772 -0.1307 -0.0260  0.0851
25328W        W42175   7.243  12.007  14.025 -0.1993  0.2929  0.0555
25329W        W42176  10.878  15.325   4.686  0.1019  0.2508 -0.1506
25330W        W42177   2.148   9.653   1.763  0.0776 -0.0565  0.0592
25331W        W42178  15.895   0.541   3.483 -0.0044 -0.1512 -0.0035
25332W        W42179   1.146  14.015  14.000  0.0068 -0.0390 -0.0975
25333W        W42180   4.613  12.505   2.641 -0.1004 -0.0001 -0.0154
25334W        W42181   8.063   6.282  11.006 -0.2359  0.3269 -0.3168
25335W        W42182  18.241   3.291   3.530  0.1615  0.1066  0.1902
25336W        W42183   4.778   8.448  13.257 -0.0124 -0.0533  0.0414
25337W        W42184  14.950   0.090  14.413 -0.0607 -0.0097 -0.1216
25338W        W42185  11.704   1.253  14.956  0.0759  0.2779  0.1216
25339W        W42186   3.368  13.175  15.928 -0.0881  0.0575 -0.0530
25340W        W42187   2.007  11.211  13.223 -0.1256  0.0620 -0.2319
25341W        W42188   9.578   0.779  11.060  0.0852  0.3061  0.0093
25342W        W42189  12.742  16.524  12.967 -0.1685 -0.4108  0.1201
25343W        W42190  17.607   9.122   0.080 -0.3858  0.2339  0.0524
25344W        W42191  11.926  16.085   2.728 -0.2951  0.0752  0.1145
25345W        W42192  11.841   4.838  12.703  0.1845  0.1536  0.0620
25346W        W42193  12.493  14.492  13.368  0.1750  0.0657 -0.2710
25347W        W42194   2.209   9.131   1.883 -0.2790  0.1235 -0.0013
25348W        W42195  17.646  17.588   0.833 -0.2107 -0.2104  0.0922
25349W        W42196   3.180  18.041  13.447 -0.2876 -0.1254 -0.0073
25350W        W42197   4.917   7.149  13.172 -0.1385  0.4224  0.0483
25351W        W42198  14.197   3.707  15.522  0.0449  0.0996  0.0290
25352W        W42199   0.248   0.069  14.859 -0.0234  0.1029  0.1755
25353W        W42200  16.354  11.111   5.369 -0.0893 -0.2193 -0.0611
25354W        W42201   5.639   2.273  15.248  0.1341  0.2135  0.1629
25355W        W42202  13.643  16.166  11.946  0.0015 -0.3072 -0.0569
25356W        W42203  14.883  10.204  14.915  0.1023  0.0502  0.3202
25357W        W42204   7.208   9.379  14.473  0.3281  0.3092  0.1279
25358W        W42205   6.257  12.776   3.436  0.1049  0.4607  0.2487
25359W        W42206   6.724  13.832   0.419 -0.0759 -0.1877  0.1829
25360W        W42207  14.521   9.077   3.374  0.0463  0.0947 -0.0677
25361W        W42208  10.829  13.706   3.520 -0.0867  0.2409  0.0769
25362W        W42209  14.359   0.866  14.708  0.1909  0.0509  0.1771
25363W        W42210   8.760  16.198  12.055 -0.3506 -0.0636  0.1006
25364W        W42211  16.786   7.913   5.647  0.1533 -0.3388 -0.2646
25365W        W42212  10.961   9.562  14.291  0.0181 -0.2474 -0.1991
25366W        W42213   4.329  14.923  15.039 -0.0723  0.1104 -0.2632
25367W        W42214   5.928   8.601  13.899  0.0802  0.1061  0.0485
25368W        W42215   6.608  11.870   1.051  0.1705 -0.0081  0.0706
25369W        W42216  13.284  14.736   1.564  0.0331  0.0827 -0.0993
25370W        W42217   8.467  12.512  15.869 -0.3597 -0.0481  0.0989
25371W        W42218  16.419   3.856   0.331 -0.1318 -0.0386  0.2308
25372W        W42219  11.231  10.255  15.928  0.0867  0.4165  0.0404
25373W        W42220   0.068   7.565  12.210 -0.1818  0.0224  0.0678
25374W        W42221   6.438  17.616   2.206  0.0048 -0.1172  0.0439
25375W        W42222  18.344   9.523   0.332  0.1497 -0.2869 -0.1838
25376W        W42223   9.990   0.832   4.071 -0.1640  0.2383 -0.0071
25377W        W42224  10.087  16.292  14.006  0.5273 -0.1381  0.1515
25378W        W42225   2.922   1.831   5.593  0.2551 -0.2391 -0.0989
25379W        W42226  11.389   3.350   1.986  0.1382 -0.0217  0.0747
25380W        W42227   0.164  13.379  14.956 -0.2060 -0.0425  0.1599
25381W        W42228  13.636  13.338   5.464  0.1824  0.1163  0.0996
25382W        W42229   9.045   1.490   4.967 -0.1741  0.1284  0.0261
25383W        W42230  12.521  15.263  13.203 -0.1128 -0.4006 -0.0672
25384W        W42231  17.879   5.561  10.688 -0.2963  0.1027 -0.2042
25385W        W42232   5.372   0.136   0.053  0.0542 -0.1205  0.2068
25386W        W42233  16.805  16.483  15.386 -0.2209  0.0310  0.2720
25387W        W42234   3.953  18.340  11.061 -0.1728  0.0019 -0.0206
25388W        W42235  16.261  16.166   5.398 -0.0397  0.1007 -0.0415
25389W        W42236   8.363   6.963  12.032  0.0094  0.0333  0.0645
25390W        W42237  10.907  15.955   3.492  0.2707  0.1643  0.2550
25391W        W42238   1.707  12.501   5.587 -0.1588  0.0725 -0.2175
25392W        W42239  12.572   6.710   4.726 -0.2759 -0.3226 -0.0462
25393W        W42240   4.958   4.381  15.055 -0.0714 -0.0287  0.1043
25394W        W42241  10.026   1.574   3.327  0.0690  0.1909  0.0644
25395W        W42242  12.087  17.887   0.385  0.2517 -0.1386  0.0433
25396W        W42243   6.976  13.211  14.490  0.0255 -0.0850 -0.0141
25397W        W42244  18.362   0.594  12.810  0.0806 -0.1243 -0.2605
25398W        W42245   6.066   4.416  13.178  0.1949  0.0243 -0.0010
25399W        W42246   7.117  14.919   3.027  0.1144  0.1460  0.1997
25400W        W42247   5.952  17.718  13.766  0.1859 -0.1449 -0.0862
25401W        W42248   7.410  15.055  14.219  0.4550 -0.0015  0.0693
25402W        W42249   0.875  16.190  15.373  0.0634 -0.0361 -0.1639
25403W        W42250   6.244   6.597  14.696 -0.0615 -0.1242 -0.0680
25404W        W42251  14.504   0.453  14.013 -0.2941 -0.0243 -0.1231
25405W        W42252   7.785   2.828  15.862 -0.1223  0.3071  0.0202
25406W        W42253  17.668   8.345  15.127 -0.1873 -0.0665  0.2033
25407W        W42254   9.024  13.351   1.858 -0.1326 -0.2364  0.0913
25408W        W42255   1.461   2.297   0.592 -0.1562  0.3481 -0.0498
25409W        W42256  16.559   7.723   0.918  0.3163 -0.5102 -0.0600
25410W        W42257   8.283   3.515   5.482 -0.2056  0.0376 -0.0726
25411W        W42258  10.016  15.602  12.444  0.2059 -0.2858  0.0977
25412W        W42259   3.035   8.617  14.064 -0.0723  0.0850  0.2127
25413W        W42260  17.317   1.791  11.115 -0.1328  0.1223 -0.1625
25414W        W42261   0.024  13.116  15.437 -0.1123 -0.1435 -0.1734
25415W        W42262   0.493  17.380  11.765  0.2884  0.3326  0.2777
25416W        W42263  13.933  14.511   2.631  0.2388 -0.1123  0.2079
25417W        W42264  13.941   7.647  11.305 -0.0347 -0.2290 -0.0573
25418W        W42265  16.649   2.398   2.120 -0.0446 -0.0381 -0.3523
25419W        W42266  15.541   1.224  14.154  0.2174  0.3459  0.0179
25420W        W42267   1.072   9.523  12.081  0.0213 -0.1562 -0.0905
25421W        W42268  14.165   6.317  13.016  0.3500 -0.1104 -0.2085
25422W        W42269   9.472  16.087  14.253  0.1124  0.0782  0.2200
25423W        W42270   0.619   0.841  11.899 -0.2994  0.4631 -0.1917
25424W        W42271  17.736  11.938  13.101 -0.2455  0.1852  0.2865
25425W        W42272   0.492   6.368   4.936 -0.1605 -0.0195 -0.0799
25426W        W42273   2.685  15.415  12.803 -0.2882  0.0661 -0.1359
25427W        W42274  11.058  18.240   0.123 -0.1457 -0.1357  0.1456
25428W        W42275   2.082  17.123  11.956 -0.0702  0.0187 -0.0857
25429W        W42276   6.078   1.820   2.690 -0.1029 -0.2288 -0.2450
25430W        W42277  14.690  17.743   5.041 -0.2805  0.0220 -0.1599
25431W        W42278   9.414   3.665  13.161  0.1796 -0.5549  0.2150
25432W        W42279   2.985  10.848  14.983 -0.0091 -0.1169 -0.3028
25433W        W42280   8.831   5.973  13.255  0.0605 -0.0766  0.1058
25434W        W42281   5.998   5.662   2.494  0.2839  0.1490 -0.1841
25435W        W42282   0.415  15.623   4.400 -0.0650 -0.1991 -0.0146
25436W        W42283   0.290  11.833   5.331  0.0161  0.0216  0.1221
25437W        W42284  14.453   6.245   1.551  0.0865  0.1895 -0.1244
25438W        W42285   5.202  11.948   4.345  0.0501  0.1774 -0.1730
25439W        W42286   3.086   9.016  12.621  0.0544  0.2060 -0.1527
25440W        W42287  15.296  11.033   3.476  0.0402 -0.1444 -0.2867
25441W        W42288  18.020  14.539   2.509  0.0143 -0.2068  0.2437
25442W        W42289  11.050   5.204  10.165 -0.0198 -0.3377  0.0707
25443W        W42290   3.592   8.916   3.395 -0.1188 -0.0017  0.0660
25444W        W42291   0.004  12.758  14.088 -0.1740 -0.1291 -0.1816
25445W        W42292  14.441   0.477  12.085 -0.0156 -0.0940 -0.0871
25446W        W42293   0.667   8.502   2.253 -0.2131  0.1125  0.2652
25447W        W42294  17.473   5.703   5.437 -0.1224 -0.1263 -0.2649
25448W        W42295  13.321  17.553   2.459  0.0776  0.0614 -0.1447
25449W        W42296   7.035   9.683  14.148  0.1108 -0.2524 -0.3269
25450W        W42297  11.795  17.056  13.909 -0.0620  0.1573 -0.1058
25451W        W42298   0.805  17.159   5.046  0.0934 -0.2915 -0.2176
25452W        W42299  14.656   2.018   3.069  0.1705  0.2121  0.1989
25453W        W42300   8.172  12.739  12.037  0.1518  0.0841 -0.0286
25454W        W42301   6.368  12.031  12.364 -0.2656 -0.2857  0.2104
25455W        W42302  12.679   9.886   3.527  0.4196 -0.1146 -0.1384
25456W        W42303   1.099  17.642   5.365 -0.1017  0.1299  0.0485
25457W        W42304  18.286  12.004  12.921  0.1510 -0.1182  0.2383
25458W        W42305   7.459  10.790   2.259  0.2135  0.1536 -0.2036
25459W        W42306  15.493   6.197   4.509 -0.0838 -0.0245  0.0062
25460W        W42307   4.429  14.531   1.501 -0.2208 -0.0317 -0.1042
25461W        W42308  14.797   9.045  14.398  0.0508 -0.1918 -0.1191
25462W        W42309  12.539  11.178   0.411  0.2603 -0.1341  0.1250
25463W        W42310  13.891   7.122  11.420 -0.3521 -0.3354  0.0342
25464W        W42311  15.368  10.940  13.214  0.6815  0.4420 -0.2533
25465W        W42312  18.387   9.368   3.821  0.2351 -0.0479 -0.2864
25466W        W42313  16.648   8.890   3.298 -0.1191 -0.0184  0.4306
25467W        W42314  13.543  16.399   3.923 -0.0350  0.0100 -0.0123
25468W        W42315  10.329   0.527  11.588 -0.0623  0.2445  0.1019
25469W        W42316   0.497  12.089  15.614 -0.0747 -0.1048 -0.4678
25470W        W42317   3.260   8.300   1.742  0.0815  0.1315 -0.0595
25471W        W42318   3.872  10.111   1.711  0.2212 -0.0107  0.0345
25472W        W42319  10.150   0.576   5.078 -0.1328 -0.0273 -0.2792
25473W        W42320  14.406  17.625   4.595 -0.0905 -0.2685 -0.0174
25474W        W42321   7.390   7.013  13.476 -0.0591 -0.0594 -0.2307
25475W        W42322  14.122   3.777   4.807  0.0046 -0.0540 -0.1840
25476W        W42323   4.530   3.052  15.921 -0.1881 -0.0720 -0.0751
25477W        W42324   1.146   8.677  11.526 -0.2565 -0.1653  0.0318
25478W        W42325   2.756  14.781   4.064 -0.0069 -0.0669  0.2695
25479W        W42326  11.633  10.366  13.630 -0.2641  0.0956  0.0721
25480W        W42327   9.100   4.457  11.539 -0.0637 -0.0531  0.1683
25481W        W42328   6.388  10.357  12.110 -0.0435 -0.5141 -0.0990
25482W        W42329   0.403   9.724   1.021 -0.2392 -0.3755 -0.0878
25483W        W42330   8.860   4.240   2.090 -0.0624 -0.0974  0.2683
25484W        W42331   6.791   3.067   4.960 -0.1665 -0.0938 -0.0242
25485W        W42332   9.005   6.146  10.713  0.1026  0.1334  0.3972
25486W        W42333  12.108   8.027   3.087  0.0291  0.0105  0.1757
25487W        W42334   8.779  15.969  11.631 -0.0969  0.0658  0.1739
25488W        W42335  10.630   4.049   0.162  0.1156 -0.0132  0.1731
25489W        W42336  14.924   3.257  15.369 -0.0421 -0.0590  0.1320
25490W        W42337  16.883  15.427  11.759 -0.1304  0.0075  0.0205
25491W        W42338   1.945  12.912  14.899 -0.0080 -0.0037  0.0036
25492W        W42339   5.240   8.064  13.314  0.2385 -0.1963  0.2047
25493W        W42340   1.819  14.456  12.198  0.2624 -0.0142  0.4529
25494W        W42341   1.934   2.098   3.315  0.0780  0.0512  0.2188
25495W        W42342   1.873   2.548   3.827 -0.3016 -0.2779 -0.1471
25496W        W42343   6.130   4.997  11.013  0.1612 -0.3536 -0.1783
25497W        W42344  13.332   0.873   0.607  0.0416 -0.2486 -0.0772
25498W        W42345   3.760   1.541   1.778  0.1944 -0.1942  0.1914
25499W        W42346  15.152  10.789   4.468  0.1115  0.1015 -0.2329
25500W        W42347  15.511   7.195   2.695  0.1724  0.1513  0.0600
25501W        W42348  16.758   9.844  12.271 -0.0511  0.0003  0.1715
25502W        W42349   5.307  15.593   1.370 -0.0540  0.1036  0.3150
25503W        W42350  12.383  15.329   3.239 -0.1992 -0.0626 -0.1765
25504W        W42351   9.533  12.641   1.256 -0.3842 -0.2341  0.3099
25505W        W42352   7.964   6.227   0.703  0.1956 -0.2493 -0.1365
25506W        W42353   5.011   2.985  11.000  0.6361 -0.0510  0.1328
25507W        W42354   7.472   1.306   5.128 -0.3000 -0.0929  0.0502
25508W        W42355  11.704  11.314   4.281  0.1769  0.1319 -0.0484
25509W        W42356   4.098   7.371  12.065  0.3173  0.0129 -0.0085
25510W        W42357  15.942   9.299   2.040 -0.1127  0.3245  0.2077
25511W        W42358  16.382   4.659  14.518 -0.3875  0.0927  0.0407
25512W        W42359  16.535   6.255  14.374 -0.0582  0.2051 -0.3277
25513W        W42360   3.633   5.393   4.478 -0.3917 -0.0301 -0.1083
25514W        W42361   2.374   9.468  12.721  0.0641 -0.1421  0.0308
25515W        W42362  18.081  16.248   3.359 -0.2962 -0.1122  0.2962
25516W        W42363  11.951  12.862  13.269  0.2351 -0.0290  0.3589
25517W        W42364  12.594  13.393   0.854  0.0222 -0.4019 -0.0534
25518W        W42365  15.610   2.874  11.506  0.1852  0.2575  0.1346
25519W        W42366   3.187   8.832  15.194  0.0634  0.2895 -0.0147
25520W        W42367  17.698   9.623   0.911  0.0786  0.1750 -0.1961
25521W        W42368  13.347  10.880   5.614 -0.0114 -0.1361  0.1382
25522W        W42369   5.451  13.783   1.015  0.0793  0.1066 -0.3493
25523W        W42370   2.172  12.310  12.189  0.2320 -0.0513 -0.0364
25524W        W42371  10.180  12.835   4.745  0.1032  0.1798 -0.1284
25525W        W42372  10.683   0.421  14.645  0.0311 -0.1157 -0.1444
25526W        W42373  10.719   9.140  14.085  0.0092 -0.1638 -0.2692
25527W        W42374   4.449  15.053  13.550  0.1642 -0.1885 -0.3140
25528W        W42375   3.105  18.214  12.419 -0.0580  0.0810 -0.0935
25529W        W42376  18.165  16.870  14.953  0.0434  0.2602 -0.1030
25530W        W42377   9.743   1.789  12.196  0.0192  0.0549 -0.2575
25531W        W42378  11.817  18.419  14.414  0.1558 -0.5197  0.2333
25532W        W42379  17.052   1.787  12.080 -0.1057  0.0995  0.1993
25533W        W42380  12.656   1.567   1.950 -0.3741 -0.0693 -0.2139
25534W        W42381   0.761   3.324  13.888  0.1499 -0.3742 -0.1889
25535W        W42382   1.540  13.249  10.238  0.1031 -0.0083 -0.3774
25536W        W42383  11.249  17.544  15.612  0.2922  0.0009  0.0348
25537W        W42384  10.476   7.614   0.407  0.0049  0.0023  0.2853
25538W        W42385  18.405   9.896  13.729  0.0920 -0.0463  0.0736
25539W        W42386  16.458  16.026   3.484  0.0601  0.0627  0.0505
25540W        W42387   8.878  18.101  13.694  0.0560 -0.4167 -0.0033
25541W        W42388   9.789   2.748   5.141  0.1873  0.1294  0.1752
25542W        W42389  16.274   3.744   4.802  0.2540 -0.0613  0.1521
25543W        W42390  12.075  10.106  12.629 -0.0914 -0.2048 -0.2003
25544W        W42391   2.931   7.979  12.444 -0.2179 -0.3113 -0.0175
25545W        W42392  15.413  17.430   2.438 -0.1006 -0.2027  0.0015
25546W        W42393  13.195   1.822   4.140 -0.1836 -0.0036  0.4895
25547W        W42394   1.332   9.483   5.522 -0.3596 -0.2220  0.2419
25548W        W42395   7.392  11.781   0.053  0.0128  0.3875  0.5301
25549W        W42396   2.478   5.850  12.516 -0.0768 -0.2118 -0.1395
25550W        W42397  18.192   3.313   9.809 -0.2939  0.1232 -0.1029
25551W        W42398   1.569  15.832  14.901  0.2641 -0.2731  0.0735
25552W        W42399  10.902  18.509  14.887  0.4921  0.0197 -0.1357
25553W        W42400   0.387   2.825   0.440  0.2361  0.0564  0.0280
25554W        W42401  17.196  17.831  15.091  0.0154 -0.1386 -0.1833
25555W        W42402   8.803  10.922   3.365  0.1444  0.1955  0.0048
25556W        W42403   2.254   9.471  15.912 -0.1504 -0.1519  0.0184
25557W        W42404   4.264  16.586   2.392 -0.4485 -0.0157  0.0019
25558W        W42405   6.331  13.606  15.623 -0.1573 -0.0286  0.0362
25559W        W42406  14.000  14.370  12.968  0.0119  0.1397  0.4450
25560W        W42407  13.548   3.279  12.082  0.0186  0.1812 -0.0881
25561W        W42408   4.813   3.013   3.218  0.0782  0.0062  0.1489
25562W        W42409   4.605   0.783  12.701 -0.1619 -0.0429  0.1934
25563W        W42410  17.052   3.409   2.673 -0.1426  0.1435  0.3506
25564W        W42411  15.731   7.909   0.370 -0.0062  0.0809  0.3124
25565W        W42412  11.080   7.815   2.194  0.2015 -0.1366  0.3231
25566W        W42413  17.406   4.258   1.259 -0.1691  0.0271  0.2064
25567W        W42414  10.905   6.256  11.127 -0.2016  0.1139  0.0217
25568W        W42415   1.902  15.307   4.843  0.0083 -0.0819  0.0098
25569W        W42416  16.201  11.943  15.357 -0.0454  0.0880 -0.3742
25570W        W42417  18.455  17.167  13.564  0.3678 -0.1907  0.1443
25571W        W42418   1.724  10.467   1.468  0.1761 -0.0522 -0.1288
25572W        W42419   9.792  16.918   3.474 -0.0999 -0.0008 -0.1042
25573W        W42420  10.850  16.835  14.000  0.1616  0.1454 -0.0422
25574W        W42421   1.430  10.399   3.920 -0.1492 -0.1891 -0.1094
25575W        W42422   8.582   4.217  10.847 -0.1725 -0.1107 -0.0186
25576W        W42423   8.340   6.885  15.138 -0.0416 -0.0072  0.1182
25577W        W42424   7.672   9.388  11.112 -0.0426 -0.1174 -0.4531
25578W        W42425  18.417   9.877   2.849  0.2116  0.0866  0.2056
25579W        W42426   0.956   2.030   2.144 -0.1153 -0.0514  0.3342
25580W        W42427   6.479  15.642   3.309 -0.1240 -0.3408 -0.1412
25581W        W42428  12.211   5.733  11.963  0.0531 -0.0655 -0.1448
25582W        W42429   3.675   6.782  12.565 -0.0622  0.0400 -0.0471
25583W        W42430   3.058  16.503   3.501 -0.2498  0.1333  0.3857
25584W        W42431  10.453   9.800  13.280  0.0445  0.0639  0.2264
25585W        W42432   0.512   8.513   5.295 -0.2166 -0.1380  0.0622
25586W        W42433  16.312   2.279  13.721 -0.1145  0.1703  0.2721
25587W        W42434  16.240   3.531   2.041  0.0306  0.2077 -0.2414
25588W        W42435  16.058   7.317   1.011  0.1060 -0.3214  0.0419
25589W        W42436   3.180  15.499  12.871 -0.1359  0.3010  0.0312
25590W        W42437   8.479   4.013  12.230 -0.0446  0.1845  0.0487
25591W        W42438  16.570  16.993   0.867  0.0391 -0.0912  0.0390
25592W        W42439  14.469  10.978   0.730 -0.1296  0.1174  0.4508
25593W        W42440   9.869  17.420  15.047  0.1966 -0.1117 -0.0632
25594W        W42441  11.381   9.918  12.458  0.2449 -0.2975  0.0700
25595W        W42442  10.230  15.810  14.409  0.0012  0.0460 -0.0265
25596W        W42443  17.293  12.182   3.401  0.1829  0.2329 -0.0821
25597W        W42444  10.432  14.217  13.387  0.1337  0.0602 -0.1358
25598W        W42445   4.477   9.047  13.469 -0.1075  0.1294  0.0183
25599W        W42446   2.302   6.206   0.030 -0.0867 -0.0974 -0.1231
25600W        W42447   6.583  12.385  14.313  0.1506  0.2373  0.0274
25601W        W42448  15.859  11.744  14.070  0.6272  0.0979 -0.3332
25602W        W42449  11.549  13.209   0.758  0.2812 -0.1873 -0.0355
25603W        W42450   1.216   1.603   4.888 -0.1146 -0.1265 -0.1071
25604W        W42451   9.886  14.060  15.909  0.2496 -0.0305  0.2694
25605W        W42452   6.353  11.298  14.785  0.0531  0.1036 -0.1610
25606W        W42453   4.986  12.753  11.823 -0.0424 -0.3019  0.2071
25607W        W42454   0.665   5.060  10.537 -0.3047 -0.3161  0.2351
25608W        W42455   7.216   8.677   4.552 -0.0639  0.0782  0.0142
25609W        W42456  16.444  10.956  13.075 -0.0379 -0.2662 -0.0119
25610W        W42457   2.934  12.764  12.766 -0.1459 -0.0665  0.0750
25611W        W42458   9.149  11.303  14.117  0.1364 -0.0202 -0.2850
25612W        W42459   4.015  18.355  13.599  0.0378 -0.2705  0.1534
25613W        W42460   6.029   8.592   4.816 -0.0815 -0.2440 -0.1569
25614W        W42461  17.555  16.995  12.868  0.0290  0.2413 -0.0007
25615W        W42462   0.597  14.268  11.780  0.0755  0.1146 -0.0882
25616W        W42463  10.271  13.329  15.779  0.0750 -0.2626  0.5229
25617W        W42464  16.643  17.466   3.296  0.0960  0.1207  0.2763
25618W        W42465   9.506   6.705  15.362 -0.0630 -0.0597  0.1372
25619W        W42466  14.547  14.944   4.117 -0.1468  0.0544 -0.0647
25620W        W42467   5.393  18.229  11.909  0.3343 -0.0912 -0.3241
25621W        W42468  15.758  13.093  13.694 -0.0122 -0.3603  0.2536
25622W        W42469  15.227  14.915  12.454  0.0287  0.1250 -0.0465
25623W        W42470   3.015  18.068  12.948  0.3188  0.0325 -0.0019
25624W        W42471   7.265  13.144  12.002 -0.1482 -0.3473  0.1693
25625W        W42472   2.286  14.495   5.288  0.3816  0.4183  0.0528
25626W        W42473  14.981  11.520  13.612 -0.1244  0.1141 -0.2296
25627W        W42474  16.051   8.658  14.668 -0.0285 -0.2067 -0.3758
25628W        W42475   9.495   1.901   3.356  0.0487  0.1366  0.1447
25629W        W42476  13.566   9.923   2.865 -0.2808  0.3431 -0.0727
25630W        W42477   6.036   2.869   3.437 -0.0665  0.1619  0.1228
25631W        W42478   4.510   4.990  13.082 -0.0144 -0.0523  0.3558
25632W        W42479  13.305   9.914  14.058 -0.0784 -0.0471 -0.2926
25633W        W42480   7.443  12.366  12.434 -0.0914 -0.2950  0.0984
25634W        W42481  10.692  12.929   5.084 -0.1398  0.0340  0.1427
25635W        W42482   1.158   3.393  14.683  0.0416  0.0247 -0.0604
25636W        W42483  13.182   3.675   4.346 -0.0888 -0.0628 -0.2189
25637W        W42484  12.605  17.677   0.168  0.0753 -0.0841  0.0140
25638W        W42485  11.018   5.807   2.308 -0.0194 -0.1776  0.1501
25639W        W42486  12.266   8.222  13.770 -0.1411  0.3454  0.3836
25640W        W42487  13.370  17.986   3.789 -0.2977  0.1332 -0.1684
25641W        W42488  13.152  13.616  11.939  0.0589 -0.0006 -0.0481
25642W        W42489  10.269   8.922   1.063  0.1228 -0.0037  0.0202
25643W        W42490  16.806  11.193  11.210 -0.1331 -0.1251  0.0609
25644W        W42491   7.813  13.155   0.082  0.1530  0.1291  0.0701
25645W        W42492  10.377   0.717   3.212  0.0439 -0.1236  0.3539
25646W        W42493  13.078  17.613   3.806  0.0491 -0.0700  0.1772
25647W        W42494  13.120  10.693  11.871  0.1930  0.0298 -0.4297
25648W        W42495   3.955   5.898   1.401 -0.1177  0.1921 -0.2090
25649W        W42496   5.946  17.413   0.046 -0.1327  0.1074 -0.2243
25650W        W42497   2.851   3.444   1.498 -0.1165  0.0482  0.0860
25651W        W42498   8.823  14.361  14.881  0.3025  0.0817  0.0856
25652W        W42499  10.093   7.620  10.932  0.1292  0.1727  0.1673
25653W        W42500   5.742   9.194   2.079 -0.0664 -0.0793 -0.2422
25654W        W42501   4.206   6.859   1.160 -0.0337  0.0601 -0.2864
25655W        W42502  12.158   7.068  13.073 -0.0322 -0.0691 -0.0248
25656W        W42503  17.423  14.498  15.391 -0.0036 -0.1348  0.2738
25657W        W42504  13.669   8.417   5.063  0.0302  0.1329  0.1328
25658W        W42505  15.541   7.343  15.079 -0.0046  0.2369 -0.1368
25659W        W42506   0.920  15.170  15.299 -0.4936 -0.3595  0.2875
25660W        W42507   6.752   9.018  11.366  0.4596  0.0764  0.3350
25661W        W42508  16.914  15.445  10.009  0.2347  0.0540 -0.2665
25662W        W42509  17.713   9.294  12.511  0.1052  0.0273  0.3347
25663W        W42510   7.796  18.504   4.518 -0.2305 -0.2600 -0.4590
25664W        W42511  14.082   2.884   3.745  0.1765 -0.0562  0.0983
25665W        W42512  10.605   8.310   3.155  0.2343 -0.0490  0.0773
25666W        W42513  10.314  13.846   5.017  0.1985  0.1082 -0.0434
25667W        W42514   6.469   9.375   2.209  0.1496 -0.1071  0.2675
25668W        W42515   9.069  15.775  15.928 -0.0120 -0.2486 -0.0109
25669W        W42516   4.688  18.427  14.547 -0.1501 -0.1033 -0.1725
25670W        W42517   2.653  14.742  11.708  0.0196 -0.0315  0.2438
25671W        W42518   0.685  16.680   0.467 -0.1098 -0.2858  0.0046
25672W        W42519  17.967   5.926   5.561  0.3055 -0.2116 -0.0958
25673W        W42520   8.895  15.638  15.460  0.2994  0.0115 -0.3716
25674W        W42521   5.173   1.418   6.244  0.1897 -0.0057 -0.1506
25675W        W42522  15.312  10.474   3.997  0.1431 -0.0238 -0.4281
25676W        W42523   4.873  17.011   3.070 -0.1162 -0.1124 -0.0538
25677W        W42524  12.150   2.213   4.394  0.1176 -0.0356 -0.0798
25678W        W42525   4.931  18.534  12.736  0.0039  0.0592 -0.2551
25679W        W42526   5.375  12.589   4.571  0.0116 -0.2061 -0.2478
25680W        W42527   0.106  13.975   4.637 -0.0418 -0.0138  0.1066
25681W        W42528   8.524   0.460  15.308  0.2964 -0.1234 -0.1458
25682W        W42529  12.449  14.839  13.017  0.3480 -0.0693 -0.0591
25683W        W42530  10.265   3.106  13.675  0.0535 -0.0340 -0.4413
25684W        W42531  15.074   8.037   2.788  0.1077 -0.1954 -0.1137
25685W        W42532  11.099   9.332  13.853  0.0173  0.2054 -0.1476
25686W        W42533   3.640  13.153  12.923  0.1062 -0.0778  0.2642
25687W        W42534   2.428   9.705   3.096  0.0948 -0.1210  0.2295
25688W        W42535   9.943  14.300  14.753 -0.1713  0.5830 -0.0157
25689W        W42536  13.872   4.216   4.809 -0.2385 -0.0211  0.2064
25690W        W42537  14.041   0.903  12.893 -0.0778  0.0743  0.1427
25691W        W42538  10.662  12.747   4.582  0.1122 -0.1622 -0.2179
25692W        W42539  17.674  13.480  13.454 -0.2028 -0.1056 -0.3402
25693W        W42540   5.574   1.483   1.054  0.1331 -0.0927 -0.1334
25694W        W42541   6.324  16.692   0.951 -0.0029  0.3317 -0.1146
25695W        W42542   6.984   9.946   2.166  0.2110  0.2525 -0.1348
25696W        W42543  15.624  14.488   1.504 -0.2866  0.3041 -0.0063
25697W        W42544   9.621  11.753   5.356  0.0474 -0.0236  0.1137
25698W        W42545   2.138   4.679   2.713 -0.1961 -0.1115  0.3265
25699W        W42546   8.976   8.457   4.600  0.0014  0.1203  0.3465
25700W        W42547  17.638  14.932  15.119  0.3548 -0.4237 -0.4590
25701W        W42548  16.425  14.473  12.636 -0.1394 -0.0060  0.3364
25702W        W42549   6.981   1.407   4.615  0.2776  0.1492 -0.0177
25703W        W42550   0.044  14.076  10.139  0.0719  0.1337 -0.0026
25704W        W42551  12.625   2.962   4.463 -0.0657  0.1088  0.1948
25705W        W42552   9.824   8.556  15.870  0.1832 -0.0966  0.0597
25706W        W42553   5.929   3.864  11.543 -0.2911  0.1522  0.0847
25707W        W42554  16.624   2.933   1.302 -0.0588 -0.0745 -0.0724
25708W        W42555  16.563   3.115   0.323  0.0409  0.1857  0.0200
25709W        W42556   8.964   6.096  13.696  0.2422 -0.1927 -0.1882
25710W        W42557  10.841   7.353   4.042  0.3077  0.0854  0.1760
25711W        W42558  16.169  12.142  14.390 -0.2212  0.2505 -0.0984
25712W        W42559  13.262   8.239  15.808  0.0486  0.0024 -0.2713
25713W        W42560   1.012   6.088  12.054 -0.0322  0.0228  0.3700
25714W        W42561  13.943  11.660   0.120 -0.0267 -0.1835  0.0114
25715W        W42562   3.426   2.208  12.202 -0.2062 -0.0828 -0.0545
25716W        W42563  10.373  12.228   1.933 -0.4540  0.0798 -0.0208
25717W        W42564   9.771  16.326  12.769  0.0921  0.1962 -0.1337
25718W        W42565   1.365  12.520  12.104 -0.0615  0.1316 -0.4597
25719W        W42566   5.449   4.407   2.214 -0.0331  0.0116 -0.3727
25720W        W42567  14.377  17.202  15.187  0.1349 -0.1093  0.2502
25721W        W42568   9.914  10.251  14.380 -0.1520  0.2143  0.1183
25722W        W42569   3.014   5.367  13.369 -0.0336  0.2259  0.2106
25723W        W42570  12.669  17.883   1.491 -0.0227 -0.1696 -0.2651
25724W        W42571  15.448  12.507   3.637  0.2070  0.2166  0.1534
25725W        W42572   8.202  10.471   5.321  0.0463  0.0689 -0.0980
25726W        W42573   0.444   8.136   3.102 -0.0639 -0.2077  0.2193
25727W        W42574   1.871   3.817   3.837  0.0389 -0.0251 -0.2432
25728W        W42575   4.549  12.462  15.503 -0.2240 -0.0181  0.4221
25729W        W42576  14.755   9.455  11.860 -0.2895  0.0751  0.0949
25730W        W42577   9.227   9.501  15.610  0.3572 -0.0057 -0.1231
25731W        W42578   7.323   4.796  13.158  0.1547  0.0903 -0.1369
25732W        W42579   0.399  15.850   0.106  0.2277  0.1203  0.0636
25733W        W42580  13.264   2.734   4.784 -0.0474  0.1389 -0.2557
25734W        W42581   0.323   8.694   1.093  0.1793  0.0355 -0.0503
25735W        W42582  10.275  15.405   1.810 -0.1407  0.1179  0.0375
25736W        W42583  12.625   1.086   5.725  0.1244  0.0309  0.1123
25737W        W42584   5.080   3.967  13.789  0.1342 -0.2473 -0.1896
25738W        W42585   0.756   8.358  13.203 -0.3305 -0.0315 -0.5055
25739W        W42586  10.057   0.196   3.489 -0.0916 -0.2039  0.1367
25740W        W42587   6.816   9.004  12.228  0.1358 -0.1112 -0.1294
25741W        W42588  16.341   2.793  13.871  0.0326  0.0291  0.1313
25742W        W42589   4.217   5.599   0.003 -0.0759 -0.1779  0.1048
25743W        W42590   4.135  10.629   2.525 -0.3135  0.0267 -0.0220
25744W        W42591  17.822  12.257   5.200  0.0874  0.0649  0.0667
25745W        W42592   2.835  12.528  13.829 -0.2735  0.1528 -0.0172
25746W        W42593   2.174   4.253  15.677  0.2746 -0.0344 -0.3068
25747W        W42594   8.114  16.300  15.942 -0.0190  0.4273 -0.1514
25748W        W42595  15.248  17.253  12.230  0.0455  0.1739  0.4472
25749W        W42596   1.736  10.072  12.305  0.0662 -0.1247 -0.0034
25750W        W42597   6.208   8.959  12.337  0.1501  0.1674  0.0491
25751W        W42598   1.097   2.226  11.371 -0.0415 -0.1185  0.0674
25752W        W42599   8.752   3.857   4.082  0.0798  0.1337 -0.1752
25753W        W42600   6.830   2.468  15.064 -0.2664 -0.2065  0.1128
25754W        W42601   2.843  10.768  12.218 -0.0466 -0.3570  0.0978
25755W        W42602   2.646   0.112  15.019 -0.2210 -0.0982 -0.2057
25756W        W42603  14.887   0.111  13.892  0.1443  0.0531  0.3000
25757W        W42604   9.838   1.885  13.971  0.2340 -0.0166 -0.1558
25758W        W42605  17.857  14.574  12.813  0.1479 -0.2464  0.1003
25759W        W42606  17.064   5.525   2.745  0.0122 -0.0236 -0.2057
25760W        W42607  16.022  10.458  11.918 -0.1983  0.0830 -0.5175
25761W        W42608   4.373  12.001   0.465 -0.2032  0.2028 -0.3560
25762W        W42609  11.218   8.304  13.877  0.0969 -0.2846 -0.1024
25763W        W42610   9.401  16.188   0.446 -0.2847  0.4462 -0.0482
25764W        W42611   5.266  16.219   0.605 -0.0314 -0.0199 -0.2189
25765W        W42612   5.278   3.608  15.845  0.1139 -0.2724  0.0618
25766W        W42613   0.986   8.225  10.485  0.1440 -0.0013 -0.3980
25767W        W42614   6.598   1.651   4.454 -0.0016 -0.1347 -0.0195
25768W        W42615   1.082   5.602   4.223 -0.2615  0.1473  0.1404
25769W        W42616   4.049   2.399   0.652  0.1046  0.2120 -0.2750
25770W        W42617  13.792   1.563   0.082 -0.0558 -0.1683 -0.0735
25771W        W42618  14.741  10.614  14.559  0.1874  0.1544  0.0822
25772W        W42619   2.541  12.702  14.187 -0.0832  0.1217 -0.2390
25773W        W42620   3.193  11.395   0.309  0.0711  0.0897 -0.1900
25774W        W42621   7.458  15.656  15.524 -0.2821  0.2735  0.3303
25775W        W42622   1.422  14.347  15.374  0.1870  0.2529  0.0314
25776W        W42623   1.587   1.215   4.078 -0.0629 -0.1124  0.1842
25777W        W42624  10.599   8.971  12.238  0.0829 -0.0626  0.1001
25778W        W42625   3.188  16.509   4.113 -0.1101  0.1294  0.1699
25779W        W42626   7.199   6.341  11.206  0.3237 -0.0970 -0.2376
25780W        W42627  10.001  14.823  15.046 -0.0628 -0.2513 -0.0619
25781W        W42628  11.158  17.191   2.248 -0.2497  0.2688  0.1063
25782W        W42629   2.447  12.351   1.110 -0.1668 -0.0603  0.1891
25783W        W42630  10.103  17.949  12.173  0.1326 -0.3271 -0.0209
25784W        W42631   3.661   4.613  14.385  0.0118  0.0506 -0.0251
25785W        W42632  16.090  14.771   4.095  0.1170  0.2231  0.1526
25786W        W42633   1.887   3.928   2.141 -0.0817  0.0463  0.0117
25787W        W42634   2.826  10.410  15.104  0.0623 -0.0999 -0.2232
25788W        W42635  15.750   3.048   2.853 -0.0408  0.0452  0.4421
25789W        W42636   7.559  13.215  15.575 -0.0364  0.3984  0.1973
25790W        W42637  12.442  11.709   2.487 -0.1478 -0.2172  0.3037
25791W        W42638   3.580  16.820   2.975  0.0391 -0.1637 -0.1973
25792W        W42639  14.067   4.932  15.389 -0.3686  0.1313 -0.2390
25793W        W42640  17.249   0.941  14.302 -0.1697  0.2607  0.0065
25794W        W42641   7.905   6.095  11.432 -0.2906  0.1201 -0.2612
25795W        W42642  14.399  17.675   1.884  0.5583  0.0430  0.0965
25796W        W42643  11.866   7.123   0.889 -0.0004 -0.0073  0.1828
25797W        W42644   2.522   6.315   2.737 -0.0974  0.0449 -0.0634
25798W        W42645  11.365  16.277   4.334 -0.2425 -0.1555 -0.1266
25799W        W42646  13.656   0.159  14.194  0.2899 -0.3400  0.2549
25800W        W42647   9.923   4.499  12.281  0.4099 -0.1181  0.0621
25801W        W42648  14.783  10.001  11.398 -0.1270 -0.0970  0.1316
25802W        W42649   1.694  10.009   5.949  0.4506 -0.0151 -0.1220
25803W        W42650   1.126   7.576  13.227 -0.2394  0.2262 -0.1702
25804W        W42651   1.873   4.605  10.781 -0.1384 -0.2235  0.1393
25805W        W42652   8.887  13.169   4.200  0.1387  0.0596 -0.0420
25806W        W42653   7.172   3.796   4.831  0.1108  0.1390 -0.1815
25807W        W42654   1.374  12.143  14.585 -0.1476 -0.0014 -0.0264
25808W        W42655  17.615  10.671   0.979  0.0412  0.1181 -0.1017
25809W        W42656   9.958   1.359  14.976 -0.1181 -0.0256  0.2679
25810W        W42657  11.918   2.355   1.859  0.0665  0.0194 -0.1255
25811W        W42658   8.036   3.077  12.385 -0.1875  0.1122 -0.1307
25812W        W42659   1.191   4.331   1.169  0.0789 -0.1634 -0.1839
25813W        W42660  17.291  16.190   3.789 -0.4250 -0.0284 -0.0435
25814W        W42661   8.309   1.464  13.972  0.0669 -0.2213  0.2055
25815W        W42662  10.309   2.044  15.489  0.4914 -0.1662  0.1613
25816W        W42663  14.639  13.770  13.077  0.0381 -0.0406  0.0247
25817W        W42664  17.116  15.631  12.277 -0.1253 -0.4125 -0.0605
25818W        W42665   4.620   6.072   2.568 -0.1035  0.0674 -0.2675
25819W        W42666   5.124  13.424  12.007  0.1525 -0.1022 -0.0521
25820W        W42667   7.848  17.866   3.696 -0.1005  0.2035  0.2179
25821W        W42668   7.774   0.438  13.481  0.1461  0.1427  0.0080
25822W        W42669  16.417  15.549  15.596 -0.0088 -0.1250  0.0864
25823W        W42670  13.383   6.593   4.777  0.3335 -0.0043 -0.0326
25824W        W42671   1.178   3.978  10.820  0.4184 -0.1421 -0.0478
25825W        W42672   6.921   1.601  11.049  0.1928  0.1979 -0.0555
25826W        W42673   6.187  11.675   0.848  0.2074 -0.1967  0.1141
25827W        W42674  17.910   5.370  13.349  0.1436 -0.3256 -0.0732
25828W        W42675   1.095   9.736  14.366 -0.2251  0.2720  0.0311
25829W        W42676  17.416   6.893   4.157  0.1681 -0.1752  0.3098
25830W        W42677  11.504  13.179   3.750  0.2911 -0.1315  0.1287
25831W        W42678  12.448   7.331   3.685 -0.1262 -0.1149  0.1097
25832W        W42679  16.806   9.455   0.509 -0.1992  0.1542 -0.1554
25833W        W42680   3.215   2.730  14.431 -0.1394 -0.0248  0.1916
25834W        W42681   9.419   6.268   4.169  0.0811  0.0214  0.1556
25835W        W42682  18.332  11.081  15.352  0.0800  0.0735 -0.2273
25836W        W42683   4.496   5.310  13.471 -0.2723  0.1550  0.3257
25837W        W42684  10.992   1.035   0.644 -0.0117  0.0148 -0.2396
25838W        W42685   0.487   4.149  10.025 -0.0367 -0.0873 -0.0052
25839W        W42686   7.652  15.060   5.907  0.0662  0.4448 -0.0381
25840W        W42687   5.822   9.734   2.895 -0.1488  0.1202  0.0144
25841W        W42688   2.539  16.448   0.488 -0.3701  0.0292  0.0211
25842W        W42689  15.739  15.014  13.097 -0.0876 -0.3665  0.0636
25843W        W42690  18.403  11.160   2.063 -0.2617  0.2097 -0.0717
25844W        W42691   7.031  14.844  14.512 -0.3399 -0.2773 -0.4511
25845W        W42692   4.267   1.191   4.874 -0.4643  0.2183  0.1982
25846W        W42693  18.253   4.236  14.049 -0.0466  0.4083  0.0195
25847W        W42694   1.393   4.217  13.700 -0.1543  0.0478  0.0128
25848W        W42695   1.923  13.359  14.646 -0.0908 -0.0147  0.1036
25849W        W42696  15.785   6.367   2.382 -0.4345 -0.1779 -0.1559
25850W        W42697  12.034   2.113  13.871 -0.1451 -0.0555  0.2161
25851W        W42698  10.654  16.669  11.116 -0.1580  0.2046 -0.4652
25852W        W42699   9.431  16.562  15.644  0.1493  0.2201  0.2014
25853W        W42700   9.614  11.477   4.162  0.0860  0.1163  0.0408
25854W        W42701  14.918   4.272  15.197 -0.1775 -0.0554  0.2055
25855W        W42702  16.936  18.270   3.355  0.0475  0.0045  0.0272
25856W        W42703  15.951  17.343   4.941  0.1362  0.3309 -0.3112
25857W        W42704  17.137   6.764   5.781 -0.2205  0.1286 -0.2452
25858W        W42705  13.320   1.485  13.343 -0.0665 -0.1921  0.1516
25859W        W42706   5.024   4.585  15.510  0.0458 -0.1681 -0.1074
25860W        W42707  15.153  17.961  15.142  0.0855  0.1579 -0.0318
25861W        W42708   8.071  18.384  13.309  0.1285 -0.0719 -0.1214
25862W        W42709   4.151  17.702  15.608 -0.2326  0.1515 -0.0978
25863W        W42710   5.337  10.888  12.475  0.0997  0.0534 -0.0239
25864W        W42711  18.096   5.937   0.241  0.3966 -0.1083  0.0269
25865W        W42712  16.331   6.341   0.697  0.1611  0.1570 -0.2352
25866W        W42713  14.084  12.496   0.078  0.2395 -0.3278  0.2988
25867W        W42714  10.817  11.863  12.535 -0.0463 -0.3581 -0.0194
25868W        W42715  14.067   3.690   3.937  0.0842  0.0675 -0.2020
25869W        W42716   2.537   6.985   0.566 -0.1878 -0.1491  0.0761
25870W        W42717  11.895  15.595   4.812  0.0127 -0.2061 -0.1101
25871W        W42718  10.081   5.198  13.954  0.0901 -0.1654  0.1625
25872W        W42719   9.999   8.499  14.472 -0.2757  0.1072  0.2300
25873W        W42720   2.811  12.579  13.219  0.0004 -0.3218  0.4586
25874W        W42721  11.334  11.909   4.520  0.2868  0.0577 -0.2584
25875W        W42722  17.619  18.386   2.523  0.0480 -0.1019 -0.1513
25876W        W42723   1.309  11.753  15.516  0.0425 -0.1795  0.1850
25877W        W42724  16.327   6.977  15.723  0.1430 -0.2349 -0.0227
25878W        W42725  17.765  17.974  13.176  0.0335  0.3529 -0.0136
25879W        W42726  15.428   1.942   3.397 -0.0877  0.3657  0.4368
25880W        W42727   5.408   2.052  13.161  0.1122 -0.1436 -0.0528
25881W        W42728  12.968   7.601  11.260 -0.0435 -0.0978 -0.0220
25882W        W42729   5.154  14.564   0.185  0.1757  0.0162 -0.1031
25883W        W42730  13.998   8.550   4.696 -0.0965 -0.1077  0.1243
25884W        W42731  11.733  16.365   1.276 -0.0876 -0.2714  0.2832
25885W        W42732  12.953   2.373   4.615  0.0567 -0.0649 -0.0139
25886W        W42733  11.654   2.880   2.137  0.0449  0.1465  0.1455
25887W        W42734  12.336   6.975   1.000  0.0744  0.0552 -0.1611
25888W        W42735   4.936   9.498  13.065  0.3373  0.2121 -0.0497
25889W        W42736   5.043  18.073  13.847 -0.0500  0.0824  0.0931
25890W        W42737   1.127  10.477  13.668  0.1219 -0.0457  0.2748
25891W        W42738   4.561  11.259   0.106  0.0780  0.3090 -0.2078
25892W        W42739  14.168   5.519  10.130 -0.3014  0.0576  0.3201
25893W        W42740   3.074   0.097   0.419  0.2217 -0.1914  0.1876
25894W        W42741   8.457  12.450  13.587  0.1129 -0.2845 -0.3290
25895W        W42742  12.155   6.599  14.945  0.3140  0.2713  0.0133
25896W        W42743   3.576   9.340  13.663  0.1327  0.0479 -0.3050
25897W        W42744   3.411  13.088   5.304  0.3214 -0.1433  0.0601
25898W        W42745  15.909  14.528   2.007  0.2009 -0.2193 -0.0383
25899W        W42746  11.615   3.645  14.074 -0.0166 -0.0292  0.0234
25900W        W42747  12.634   7.519  12.670  0.2254 -0.2992 -0.0731
25901W        W42748   1.159   6.872   0.476 -0.0003 -0.2318  0.2205
25902W        W42749  15.725   3.499   5.227 -0.0848 -0.1510  0.0839
25903W        W42750  12.608   7.765  14.964 -0.1155  0.2714 -0.3097
25904W        W42751  15.517   3.926   3.135  0.1686 -0.1054 -0.0375
25905W        W42752   1.087  14.059  11.825 -0.2116  0.1421 -0.1269
25906W        W42753  12.723   8.993   3.522  0.3172  0.1465 -0.2353
25907W        W42754   9.978   9.919   2.563  0.0392  0.1847  0.0052
25908W        W42755   8.514   9.889  15.368  0.2375  0.1091 -0.2329
25909W        W42756   0.254   2.547  11.316  0.1859  0.0849  0.1241
25910W        W42757  15.315   5.511  15.179  0.0596  0.2635 -0.2111
25911W        W42758  17.671   1.522  13.213  0.0168  0.0179 -0.0860
25912W        W42759  10.100  17.023   1.991  0.1212 -0.3610  0.1772
25913W        W42760  12.299   3.483  13.617  0.1767  0.0168  0.0885
25914W        W42761  12.167   7.203   5.517 -0.0867 -0.1499 -0.0681
25915W        W42762   2.636  13.510  14.760  0.3551 -0.1265 -0.0016
25916W        W42763  11.796   1.562  15.376  0.4467 -0.1087  0.0987
25917W        W42764  15.711  10.915   2.138  0.1764 -0.3624 -0.0231
25918W        W42765  11.072  16.638  12.282 -0.0271 -0.1812  0.2278
25919W        W42766  14.381   6.153   2.933 -0.0711 -0.2662 -0.0656
25920W        W42767   2.823  13.616   4.833  0.0582 -0.1081  0.2729
25921W        W42768   1.420  15.308   1.454 -0.2732  0.0027  0.0706
25922W        W42769  10.855  14.177  14.184  0.1138 -0.0162 -0.1267
25923W        W42770  12.735  14.915  13.948  0.0775  0.4185 -0.2181
25924W        W42771  18.474  17.190  15.433 -0.2057 -0.0907  0.2855
25925W        W42772  11.245  12.344  15.304  0.2100  0.0739  0.0902
25926W        W42773   7.918  14.562   3.656  0.0876 -0.0478 -0.3709
25927W        W42774   7.177  16.486   1.554 -0.1490 -0.0770 -0.0444
25928W        W42775  13.480  14.865   4.682  0.0052 -0.1324  0.2613
25929W        W42776   1.638   7.937  15.749  0.1415  0.2302  0.2170
25930W        W42777  14.908   6.273  14.125  0.2184  0.0978  0.1001
25931W        W42778   4.770   1.607  14.659  0.0688 -0.2027  0.0290
25932W        W42779   6.444  16.145   0.405 -0.0162  0.0826  0.1218
25933W        W42780   1.475  12.541   5.135  0.3384 -0.1402 -0.0436
25934W        W42781   0.583  11.734  13.935 -0.0904  0.0944 -0.2022
25935W        W42782   7.609  13.226   5.185  0.4675  0.2350 -0.0634
25936W        W42783  15.363   0.269  13.001  0.1203 -0.0287  0.2783
25937W        W42784  16.681  13.710   6.096  0.0605  0.4071  0.0498
25938W        W42785  11.415   3.740   0.721 -0.0628  0.0332 -0.1490
25939W        W42786   3.099  17.035  12.765 -0.0335 -0.3193 -0.0930
25940W        W42787   0.296   9.134   2.605 -0.1821  0.3744 -0.2131
25941W        W42788  13.422  18.388   4.665  0.0788  0.2190 -0.1540
25942W        W42789  17.213   2.582   3.164 -0.3173 -0.0183 -0.3132
25943W        W42790  12.310  17.329   4.421  0.2950 -0.0009 -0.1067
25944W        W42791  16.792   6.952   1.490  0.2289  0.3070 -0.1508
25945W        W42792  16.218   3.792  13.809 -0.0777 -0.1017  0.3016
25946W        W42793  17.886   2.029  14.499 -0.4224  0.0538 -0.0254
25947W        W42794   0.395   0.011   3.932  0.0218 -0.4518 -0.0797
25948W        W42795   2.235   4.709  11.633  0.1168  0.1319  0.2004
25949W        W42796  11.119  10.373  14.891 -0.0612  0.2092  0.1954
25950W        W42797  15.224   3.526  13.989 -0.2972 -0.0043  0.1298
25951W        W42798   9.534   6.727   3.391  0.0815 -0.1539 -0.3073
25952W        W42799   0.156  15.074  10.542 -0.0899  0.0358 -0.0654
25953W        W42800  17.210  14.168  14.559 -0.0137 -0.1706  0.0528
25954W        W42801   8.428  14.000  11.882 -0.0987  0.0673  0.2296
25955W        W42802   5.785  14.913  14.539  0.0244 -0.1261 -0.0263
25956W        W42803  10.344   2.923  11.083 -0.0027 -0.2969 -0.0841
25957W        W42804  12.968  18.297  14.358 -0.0034 -0.0579  0.2180
25958W        W42805  12.433  15.630   1.880 -0.1896 -0.0633  0.0190
25959W        W42806  12.735   7.340   1.567  0.0373 -0.2818 -0.1684
25960W        W42807  14.078   2.312  12.224  0.0165 -0.1813  0.0774
25961W        W42808  15.770   9.012  15.551 -0.0366  0.0115 -0.2690
25962W        W42809   6.181   1.419   0.497  0.2105 -0.2352 -0.2438
25963W        W42810  15.428  15.229  15.071 -0.0131 -0.1414 -0.1213
25964W        W42811   8.859   8.843   1.876  0.3104 -0.0427  0.0488
25965W        W42812  16.963  17.001   3.872 -0.0786  0.3596 -0.1501
25966W        W42813  11.609   3.419   3.880 -0.1839  0.1678  0.1233
25967W        W42814  16.873   5.549  11.862  0.2991  0.1591 -0.0117
25968W        W42815  14.242  14.284   1.582  0.1120 -0.1773 -0.2635
25969W        W42816  11.218   7.858  15.397  0.3041  0.0511 -0.1414
25970W        W42817  11.330   0.430   4.745 -0.0438  0.4114 -0.2423
25971W        W42818   2.007  16.290  14.513  0.0117 -0.3358 -0.2718
25972W        W42819  16.909   0.544   5.062 -0.0756 -0.0434  0.0987
25973W        W42820  14.306  10.220   5.779  0.2010 -0.0170 -0.0396
25974W        W42821   8.766   2.747   4.290 -0.1135  0.0413 -0.1926
25975W        W42822   5.347   5.204   6.027 -0.0386  0.2644 -0.1380
25976W        W42823   0.911  18.140  15.429  0.2000  0.2686  0.1030
25977W        W42824  18.198   0.728   4.318 -0.1640 -0.1865 -0.1887
25978W        W42825   2.119   0.935  10.866 -0.0610 -0.3113  0.1351
25979W        W42826   4.552  16.672  13.709  0.1939  0.2400  0.1138
25980W        W42827   6.566   6.830  13.280 -0.0456 -0.0113 -0.2876
25981W        W42828   9.823  14.998  15.526 -0.2138 -0.2986  0.0647
25982W        W42829   2.932  11.647  15.227  0.0993  0.0563 -0.0594
25983W        W42830   8.709  10.475   2.701 -0.3046 -0.0232 -0.0504
25984W        W42831   8.580   7.613   4.750  0.1911  0.0062  0.6386
25985W        W42832   3.535  14.578  12.524 -0.1367  0.1707 -0.0761
25986W        W42833  17.632  18.176  14.162  0.2060  0.1197  0.1149
25987W        W42834  13.083  17.240   1.786 -0.3603  0.3313 -0.0087
25988W        W42835   8.348   5.613   5.476 -0.3745  0.0080  0.0134
25989W        W42836   8.985   4.614  13.480 -0.0352  0.0050 -0.3009
25990W        W42837   8.097   0.531  11.632  0.1325  0.1949  0.0662
25991W        W42838  18.050   2.824  15.896  0.0686 -0.0951  0.0046
25992W        W42839  17.170   4.841   5.166 -0.0746  0.2159  0.0403
25993W        W42840   0.275   6.415  15.433  0.1258  0.2094  0.1652
25994W        W42841   5.116  16.004   4.691 -0.6818  0.0262  0.0190
25995W        W42842   6.570  17.093  13.687 -0.1060 -0.0526 -0.1492
25996W        W42843   1.886  15.229  14.265  0.0342 -0.0935  0.3676
25997W        W42844  17.808  13.790  14.320  0.0227  0.2389 -0.1002
25998W        W42845  11.410  14.498   2.523 -0.1383 -0.1780  0.0333
25999W        W42846  16.913  14.789   3.171  0.0947 -0.4056  0.0520
26000W        W42847  11.860   2.364   3.964  0.1046  0.1198  0.1524
26001W        W42848  16.882   5.237  15.886  0.0080  0.2747  0.2792
26002W        W42849   4.941   4.936  12.782 -0.3173 -0.3528  0.0326
26003W        W42850  18.118  14.608   4.363  0.0591  0.2081 -0.2338
26004W        W42851  17.674   7.355   5.627  0.3188 -0.1319 -0.0596
26005W        W42852  14.686  16.755  11.475 -0.1211 -0.1342 -0.0333
26006W        W42853  17.745  13.088   0.879  0.3033 -0.0716 -0.2087
26007W        W42854  16.937   0.245  13.942 -0.1034 -0.1368 -0.1627
26008W        W42855  13.344  12.123   5.024  0.0263 -0.0506 -0.3489
26009W        W42856   6.599   5.517  11.919 -0.1245 -0.4647  0.1003
26010W        W42857  15.955  14.870  14.157  0.0848 -0.2100  0.1562
26011W        W42858   2.057  17.975  13.354 -0.0336 -0.0440 -0.1951
26012W        W42859  15.521  10.417   4.588 -0.1576 -0.0078 -0.2724
26013W        W42860   8.529  10.637  14.773  0.0160 -0.1217  0.0295
26014W        W42861   9.335   1.683   3.782 -0.0083  0.3051  0.1477
26015W        W42862  17.914   0.989   2.263  0.1666 -0.0683  0.1201
26016W        W42863   0.954  13.650   1.067 -0.2081 -0.2169 -0.0550
26017W        W42864  16.721  12.312  14.482  0.0964  0.0196  0.1403
26018W        W42865  16.340  11.875   3.949 -0.2019  0.1160  0.3558
26019W        W42866  18.450  14.027  13.339  0.1668  0.4242 -0.0587
26020W        W42867   4.444   3.342   2.579 -0.0609  0.0989 -0.0831
26021W        W42868  16.889   2.105  11.327 -0.1255 -0.4218 -0.1542
26022W        W42869  14.493  15.681  14.163 -0.0889 -0.1959 -0.1682
26023W        W42870   8.011   4.290  12.826 -0.2362  0.1685  0.2002
26024W        W42871  10.344   3.618  14.938 -0.1298  0.0340 -0.0839
26025W        W42872  11.791  13.557   2.510  0.1158  0.1830  0.0089
26026W        W42873  18.242  17.008  14.436  0.0490 -0.1128 -0.0954
26027W        W42874   1.576   4.780   1.642  0.1737  0.0522 -0.1260
26028W        W42875   6.513   7.303   3.485 -0.1195 -0.0863 -0.0345
26029W        W42876  16.377   8.842  13.017  0.2224 -0.0356 -0.1100
26030W        W42877   8.162  17.529  11.568  0.0825 -0.2125 -0.0152
26031W        W42878  17.055   5.106  11.313 -0.1902 -0.0643  0.2696
26032W        W42879  16.092   4.258  12.986 -0.1404 -0.2541 -0.3280
26033W        W42880  17.387   0.087   4.493  0.0890 -0.0536  0.3537
26034W        W42881   0.916  12.102   1.913  0.1432  0.1591 -0.2425
26035W        W42882   0.706   1.775   2.588 -0.0262  0.0429 -0.0811
26036W        W42883   0.018  12.547  11.688  0.2247 -0.0253  0.1064
26037W        W42884  17.451   9.634  13.371  0.0935 -0.0578 -0.0581
26038W        W42885   7.587   4.697   3.937 -0.2018  0.3224  0.0229
26039W        W42886   5.242   1.159   1.054  0.0610 -0.0116 -0.2741
26040W        W42887   1.735   1.144   2.171 -0.1995  0.0270  0.0519
26041W        W42888   9.087   9.571   5.232 -0.0496  0.2788 -0.1048
26042W        W42889   0.878   5.353   1.961  0.2089  0.1209  0.0805
26043W        W42890   7.460   5.933  12.030  0.2177  0.2391 -0.0326
26044W        W42891   9.725   5.478   1.373  0.0276 -0.0649 -0.2912
26045W        W42892   6.236   9.343  13.657  0.0850 -0.0761  0.0499
26046W        W42893  11.629   9.853  13.795  0.1408 -0.0450 -0.1824
26047W        W42894   8.323  18.074  10.851  0.1853 -0.1370  0.2264
26048W        W42895   9.629  12.004   2.238 -0.1544  0.0212  0.1055
26049W        W42896   6.660  11.039   2.650 -0.0712 -0.1388  0.0747
26050W        W42897   1.206   6.879  15.820  0.1807 -0.2262  0.0283
26051W        W42898   9.559   1.493  15.731  0.3196  0.3022 -0.0877
26052W        W42899  17.352   4.554   3.931 -0.1009  0.0929  0.1578
26053W        W42900  14.879   3.198   3.274  0.0673  0.0568  0.0049
26054W        W42901   6.235   1.216   1.753  0.0026 -0.3232 -0.0933
26055W        W42902  13.764   1.460  11.072 -0.1604 -0.0184 -0.1120
26056W        W42903   4.195   8.159   0.804  0.0067  0.0917  0.0355
26057W        W42904   1.227  11.646  15.012  0.0284  0.1783  0.0543
26058W        W42905   3.644   8.904  12.728 -0.2180 -0.1743  0.0124
26059W        W42906   3.563   1.034   2.112  0.1961  0.1461 -0.0432
26060W        W42907   0.671   9.525  15.355 -0.2052 -0.1193  0.2211
26061W        W42908  10.998   4.096   4.231  0.2596  0.1694  0.0976
26062W        W42909   5.230  13.841  10.980 -0.1386  0.1481  0.0610
26063W        W42910   9.707   2.221   2.192  0.0993 -0.0491  0.0596
26064W        W42911  17.751   8.449  13.133 -0.1776 -0.0168 -0.0285
26065W        W42912   9.214  15.640   4.467 -0.0975 -0.1898  0.0462
26066W        W42913   3.719   8.018   0.442  0.2550  0.0165  0.3197
26067W        W42914  14.047   0.406   0.394 -0.0223  0.3607  0.1274
26068W        W42915   2.669   1.096  11.631 -0.0179  0.2499  0.2318
26069W        W42916  14.097  12.294  14.519  0.0624  0.1103 -0.2324
26070W        W42917   7.075  17.720   0.880 -0.0959  0.1469  0.2000
26071W        W42918   5.567  12.920   0.051 -0.1655  0.1102  0.0404
26072W        W42919  17.608   3.992   4.195  0.1435  0.0376 -0.0070
26073W        W42920  12.191   9.740  15.660  0.0943 -0.1219  0.2049
26074W        W42921   8.199  13.752  12.214 -0.1382  0.0285  0.2345
26075W        W42922   2.867   0.770   4.519  0.1333  0.0029  0.1230
26076W        W42923  18.510   2.713   3.552 -0.0713  0.0195  0.0541
26077W        W42924   7.008  18.525  12.612  0.0586  0.0638  0.0127
26078W        W42925   7.517  10.844  11.749 -0.2897  0.2058 -0.0542
26079W        W42926  10.170   0.092  11.426  0.2753 -0.1602  0.2318
26080W        W42927   8.078   0.465   4.656 -0.1132 -0.3037  0.1085
26081W        W42928  11.473  18.113  14.245  0.2022  0.1143  0.1007
26082W        W42929   9.164   1.710   4.368  0.1717 -0.1493 -0.1281
26083W        W42930  16.627  11.491   0.014  0.2197 -0.3075  0.2657
26084W        W42931  14.174   6.314  11.036  0.2674  0.2633 -0.0913
26085W        W42932   1.073  15.711  15.762 -0.2667  0.3152  0.1102
26086W        W42933  13.165  14.869   2.773  0.2372 -0.0186 -0.2215
26087W        W42934  17.182   7.444  15.634 -0.0540  0.2910  0.1910
26088W        W42935  16.134  14.621   4.826  0.0238  0.1387  0.0090
26089W        W42936  13.369  10.883  11.180  0.1098 -0.1182  0.1928
26090W        W42937  15.070   5.412   5.289 -0.1084  0.1081 -0.4911
26091W        W42938   3.928  17.696  13.228 -0.0257  0.0914  0.0325
26092W        W42939   2.281   2.356   2.956 -0.2327  0.0896  0.3213
26093W        W42940  18.349  12.246  13.584  0.1274  0.0564  0.0885
26094W        W42941   6.405   8.764  14.736  0.1399 -0.1554  0.2426
26095W        W42942   9.019   9.340   3.916  0.1830 -0.1191 -0.1046
26096W        W42943   5.494   8.736  11.054  0.3677  0.2554  0.0608
26097W        W42944  14.336   2.549  15.072  0.0554 -0.3154  0.4111
26098W        W42945   2.221  15.629  13.639  0.1969  0.0818 -0.0252
26099W        W42946   5.868  12.061   3.471  0.1496  0.4175  0.0868
26100W        W42947  13.804   1.527  13.546 -0.4476 -0.0375  0.3253
26101W        W42948   6.874  10.741  13.433  0.1443  0.1074  0.2065
26102W        W42949  12.407  16.295   5.190 -0.0143  0.4748  0.1273
26103W        W42950  14.359   6.921  13.036 -0.0832 -0.0675  0.1087
26104W        W42951   0.114   0.059   1.092 -0.2789  0.2820  0.1802
26105W        W42952   8.037   9.962   0.969 -0.1345  0.4841 -0.2104
26106W        W42953  16.607  10.805  12.553  0.0145 -0.2832  0.0317
26107W        W42954   3.512   5.036  15.195 -0.0348 -0.0734 -0.2165
26108W        W42955  11.957   5.968   3.327 -0.0326  0.2832  0.0752
26109W        W42956   4.595   8.175  15.592 -0.2434  0.0262  0.0939
26110W        W42957  17.288  12.460   1.450  0.0559  0.1168 -0.0047
26111W        W42958   2.911  14.470   1.698  0.0131  0.0889  0.0176
26112W        W42959   4.094   6.132  13.501 -0.0624  0.0965 -0.0098
26113W        W42960   8.112  12.791   5.485 -0.0637  0.0272 -0.1665
26114W        W42961  18.106   6.526   0.100 -0.1106 -0.2292 -0.0029
26115W        W42962  11.688  13.751   0.802 -0.2343 -0.2766  0.0480
26116W        W42963  15.781  13.436   4.385 -0.2571 -0.1386  0.2655
26117W        W42964   6.500   5.510  15.093  0.2475  0.2318 -0.2374
26118W        W42965  17.533  11.738  15.717 -0.1000 -0.2960  0.0369
26119W        W42966   4.176   4.649  11.319  0.2668  0.0858 -0.3674
26120W        W42967   0.306   8.439   3.543 -0.4250 -0.1545  0.3201
26121W        W42968   7.900   7.694  15.581  0.4170 -0.1003  0.1691
26122W        W42969   4.395   2.182   3.976  0.2870 -0.4502  0.2027
26123W        W42970   2.592   6.995   0.049  0.1780 -0.0806  0.0532
26124W        W42971  14.612  11.466  10.394  0.1558  0.3288  0.3563
26125W        W42972   1.859  16.329   4.099  0.1465  0.0713  0.1155
26126W        W42973   9.578   6.398   1.763 -0.1000  0.2584 -0.3157
26127W        W42974  10.437  10.550  12.625 -0.2236 -0.0643  0.0090
26128W        W42975   0.712   1.354   3.892 -0.4316  0.0345  0.4308
26129W        W42976  18.325  10.971   1.178 -0.0871  0.1985 -0.1647
26130W        W42977  15.071  16.601   3.803  0.2514  0.4466 -0.1290
26131W        W42978   4.376  17.056   3.154 -0.1409 -0.0035  0.0396
26132W        W42979   7.399   4.535  12.740  0.3106 -0.3608  0.2955
26133W        W42980   8.513   6.329  15.037  0.0249 -0.2197  0.0812
26134W        W42981  11.138   2.265   3.292 -0.1610 -0.1271 -0.1366
26135W        W42982   1.868   7.146  13.411 -0.0761  0.2944 -0.0687
26136W        W42983   4.780  14.914   5.339  0.2036 -0.1258 -0.1046
26137W        W42984  11.494   5.713  15.527 -0.2093 -0.2225  0.2545
26138W        W42985   5.029   3.047   0.071 -0.1660  0.0987 -0.0725
26139W        W42986  15.431   0.876  12.438 -0.0346  0.0621 -0.2040
26140W        W42987  10.251   8.716   2.038 -0.2114  0.0641 -0.1085
26141W        W42988  12.566  10.971  15.507 -0.0180 -0.1132  0.1614
26142W        W42989  12.314  11.798  15.818  0.0154 -0.0855 -0.0781
26143W        W42990   3.843  18.521   5.801 -0.0254  0.3147  0.1448
26144W        W42991   3.878  10.936   4.814  0.0550  0.0422 -0.0469
26145W        W42992  16.751  11.443   2.522  0.4204  0.3186  0.1111
26146W        W42993  12.230   1.256  12.583 -0.3454  0.1729 -0.0747
26147W        W42994   9.116   2.524   3.493  0.0982  0.0295  0.2093
26148W        W42995   5.022   8.958   1.428 -0.0226  0.0059 -0.0423
26149W        W42996  14.374  15.060  15.116 -0.0317  0.0390 -0.1897
26150W        W42997  11.181  10.706   4.175 -0.0825  0.0251 -0.2210
26151W        W42998   0.412   5.411   0.503  0.2609 -0.1914 -0.0071
26152W        W42999   7.713  15.543   0.011 -0.0145  0.0405 -0.0972
26153W        W43000   2.401   7.165  13.261  0.3300  0.0854 -0.0703
26154W        W43001   1.690   7.397   0.341 -0.1046 -0.1439 -0.0349
26155W        W43002  18.359   6.987   3.994  0.3339 -0.0269  0.0460
26156W        W43003   8.763   5.506   3.992 -0.2270 -0.2124  0.2499
26157W        W43004  10.644   9.491  10.926 -0.5364  0.1429 -0.2600
26158W        W43005  13.906  16.708   3.762  0.0216 -0.1825 -0.0716
26159W        W43006  17.587   1.089  15.851  0.2811 -0.1181  0.0010
26160W        W43007   9.931   5.944  14.933 -0.2185  0.2526 -0.0749
26161W        W43008   2.393  18.373  11.992 -0.1225 -0.3038 -0.1686
26162W        W43009   2.128   1.263   5.031  0.1217 -0.0263 -0.0092
26163W        W43010   9.536   0.753   3.938  0.1240 -0.1059 -0.2953
26164W        W43011   0.704  15.999   4.534 -0.0282  0.0409  0.0503
26165W        W43012   5.249   9.101   3.277 -0.0453  0.3580 -0.0368
26166W        W43013   5.171  17.339  15.185  0.0913  0.0567 -0.2630
26167W        W43014   7.873   9.943   1.929  0.1988  0.0649 -0.0505
26168W        W43015   9.978  12.425   5.085  0.0877  0.0164  0.0317
26169W        W43016   2.784  18.419   0.860  0.0755  0.0084 -0.0287
26170W        W43017  12.203   8.924   3.512  0.1755 -0.2369  0.0737
26171W        W43018  10.595  18.176  12.217  0.0039  0.3925 -0.0120
26172W        W43019   3.702  15.802   3.419 -0.0937  0.1151  0.0030
26173W        W43020   4.802   3.757  11.777  0.0491  0.0215  0.1369
26174W        W43021   5.757   7.054  13.550 -0.2073 -0.0235  0.3194
26175W        W43022   8.637   8.246  15.141 -0.1989 -0.1497 -0.0238
26176W        W43023  12.323   6.629  11.928 -0.3336  0.1529  0.0093
26177W        W43024   6.763  12.072   3.998 -0.0718 -0.5617  0.3424
26178W        W43025  16.682  13.718  11.243 -0.0425 -0.0181  0.1002
26179W        W43026  10.217   8.482   0.235 -0.2987 -0.1095  0.0021
26180W        W43027   8.627   1.489   3.221 -0.0066  0.1701 -0.3048
26181W        W43028   2.632  11.215  15.068  0.1351 -0.1194 -0.1046
26182W        W43029   8.452   0.678  12.910  0.0491  0.0990 -0.4466
26183W        W43030   1.668   1.558   2.530 -0.0401  0.1110  0.3073
26184W        W43031   3.435   1.975  14.897 -0.0736 -0.1667  0.0328
26185W        W43032  17.759   3.033  14.923 -0.2553 -0.0945 -0.0053
26186W        W43033   9.034  13.249  15.297  0.0333 -0.0421  0.2917
26187W        W43034   4.531  10.072   0.394  0.1787 -0.1841 -0.2354
26188W        W43035   1.275  10.012   1.405  0.2179  0.1696 -0.3735
26189W        W43036  11.358   4.037   3.198  0.0762  0.0119 -0.5066
26190W        W43037   0.483   3.772   1.514  0.2388  0.0789 -0.0370
26191W        W43038  16.278   2.092  12.702  0.2539 -0.4343  0.2636
26192W        W43039  13.686  15.255   2.542  0.0775 -0.0341 -0.0083
26193W        W43040   1.037  13.073   4.556  0.3372  0.1162  0.0406
26194W        W43041  18.281  13.676   4.318 -0.0538  0.3508  0.0640
26195W        W43042  12.624  16.720   3.537  0.0813 -0.1688 -0.1067
26196W        W43043  15.113  14.007  11.855 -0.2977  0.2536 -0.1332
26197W        W43044   6.612   1.610  13.031  0.0916  0.0495  0.3402
26198W        W43045  15.465   0.791   2.578  0.0222 -0.3594  0.1589
26199W        W43046  14.431   3.891   0.992  0.1753 -0.1068  0.1400
26200W        W43047  13.683  15.786  11.189  0.1464  0.1973 -0.0184
26201W        W43048   6.132   9.588   1.955 -0.0022  0.1851  0.0830
26202W        W43049   0.850   1.104  13.592 -0.1650  0.2154  0.1052
26203W        W43050   1.880  15.659   3.194  0.1890 -0.0752  0.2201
26204W        W43051  15.982  17.969   4.692  0.0206 -0.2691  0.1320
26205W        W43052   0.334   3.940  11.276  0.3281 -0.1188 -0.2271
26206W        W43053  16.819   7.416   5.471 -0.3107 -0.0752  0.1992
26207W        W43054  10.859  16.076  15.636 -0.0835  0.0354 -0.3133
26208W        W43055  14.840   6.019  13.045 -0.1923 -0.2293  0.2710
26209W        W43056   6.047   9.318   5.502 -0.1146  0.0351 -0.2689
26210W        W43057  14.241  11.342  14.411  0.3944 -0.2133 -0.0624
26211W        W43058  11.012   1.447   0.345 -0.1404  0.2404 -0.0192
26212W        W43059  16.033  17.910  14.124 -0.0235  0.0434 -0.0788
26213W        W43060   2.887   6.774  14.426  0.0117  0.1187 -0.0300
26214W        W43061  13.548  17.242   1.585 -0.0056  0.0724  0.1733
26215W        W43062  16.662  18.131   6.263  0.0716 -0.1668  0.2415
26216W        W43063   5.171  18.282   0.319 -0.3712  0.3896 -0.1617
26217W        W43064   2.662   7.405   5.238  0.2249 -0.3617  0.0623
26218W        W43065  15.663   6.360  10.897  0.2881 -0.2217  0.0117
26219W        W43066   7.904   9.665   3.378 -0.0442  0.0361 -0.0520
26220W        W43067   6.224   1.036   3.957  0.1538  0.0626 -0.0401
26221W        W43068   1.282   2.798   3.153  0.3374 -0.3564  0.0752
26222W        W43069  13.399  13.826   1.751  0.0347  0.0594 -0.1766
26223W        W43070  15.145  12.328   2.869 -0.1548 -0.0461 -0.3911
26224W        W43071  13.861  15.498   5.361 -0.2910  0.1290 -0.2618
26225W        W43072   6.250   8.529  15.550 -0.2278 -0.0974 -0.2765
26226W        W43073   3.254   6.100  15.443 -0.2656 -0.0552  0.3199
26227W        W43074  15.425  17.713   0.367  0.0780  0.0148 -0.0307
26228W        W43075   9.647   4.935  14.209  0.0835 -0.1822 -0.1566
26229W        W43076  16.859  14.221   3.948 -0.1189 -0.2386  0.0766
26230W        W43077   0.812   6.931   2.633  0.1738 -0.1187 -0.3897
26231W        W43078  10.645  12.478   0.343 -0.1749  0.2910 -0.1619
26232W        W43079  17.562   3.871  11.827  0.1335 -0.1413 -0.3115
26233W        W43080   3.535  16.980   1.573  0.2041 -0.0110 -0.2290
26234W        W43081   2.087  17.843   0.720  0.3906  0.0245 -0.0371
26235W        W43082  17.872  15.187  14.309 -0.0195  0.0639  0.3161
26236W        W43083   9.047   0.229   1.786 -0.0446 -0.0637  0.1594
26237W        W43084  10.627   6.663  11.297 -0.2954  0.1272  0.3233
26238W        W43085  17.016   4.606   4.743 -0.1573  0.1037 -0.0792
26239W        W43086  11.811   6.710  13.956  0.2814 -0.2269  0.1306
26240W        W43087  18.335  12.671   4.373  0.1736 -0.3222 -0.2224
26241W        W43088  14.738  13.931  12.584 -0.1539 -0.1985  0.0780
26242W        W43089   4.961   2.207   2.268 -0.4838 -0.1618  0.3114
26243W        W43090   5.596  14.701  15.304 -0.2529  0.1574  0.1860
26244W        W43091   1.062   0.734  12.209 -0.1219  0.3264 -0.0861
26245W        W43092  11.180  18.112  12.789 -0.1905  0.0745  0.1308
26246W        W43093  16.257  15.159  15.871  0.1329  0.1777  0.2481
26247W        W43094  14.398  12.387   0.436 -0.0548  0.2053  0.2080
26248W        W43095   0.315  11.496   3.576  0.2202 -0.1016  0.0006
26249W        W43096   7.623  10.971   5.106 -0.0570 -0.0155  0.0303
26250W        W43097  17.380  15.425  11.625 -0.2747 -0.1337  0.0621
26251W        W43098   1.137   7.976  11.859  0.0106 -0.1757 -0.1794
26252W        W43099  14.791   6.286   3.485  0.1843 -0.0580  0.2460
26253W        W43100  11.432   2.441  13.479  0.0667  0.0945  0.2005
26254W        W43101  14.714   7.186  15.848 -0.4022 -0.1138 -0.2440
26255W        W43102  17.189  11.343  12.872  0.1165 -0.0208 -0.0701
26256W        W43103  17.058   9.060  11.684 -0.0539 -0.1667  0.0391
26257W        W43104   2.975  10.815   4.731 -0.4399 -0.0204  0.3736
26258W        W43105  14.790   3.839  15.495  0.1322  0.0850 -0.0852
26259W        W43106  16.269   2.776  11.579  0.1734 -0.1103  0.1741
26260W        W43107   6.019   2.072  14.769 -0.1978  0.1897  0.0438
26261W        W43108   7.620  13.494   3.252  0.0488 -0.1725 -0.3048
26262W        W43109   5.205   5.149  15.718 -0.0141 -0.0393  0.1404
26263W        W43110  14.201   9.642  12.163  0.1965  0.0119  0.0732
26264W        W43111   9.117   1.339   1.527  0.0531  0.2904 -0.1980
26265W        W43112  17.876  14.904   1.150  0.1088  0.2102  0.0299
26266W        W43113   0.405  18.217   3.470 -0.1169  0.1944 -0.0495
26267W        W43114   8.737  10.378  13.749 -0.0920  0.2971 -0.1738
26268W        W43115  14.459   2.960  12.068  0.3242  0.0233 -0.0113
26269W        W43116   3.229   2.530   2.474  0.0255  0.1014 -0.3552
26270W        W43117   5.201  11.279  13.455  0.0013 -0.0094 -0.1790
26271W        W43118   2.640  10.369   0.760 -0.1733  0.0791  0.1430
26272W        W43119  10.765  12.104   4.949 -0.1115 -0.3691  0.0099
26273W        W43120  15.118   0.922   2.190 -0.0079  0.0033 -0.1739
26274W        W43121  10.484   2.261  15.073 -0.1649 -0.2811 -0.1462
26275W        W43122  13.493   9.184   2.990  0.1701  0.3004 -0.0220
26276W        W43123  10.406   2.822   3.996 -0.0616 -0.1899 -0.1751
26277W        W43124   2.427   4.601  13.714 -0.0195 -0.3522  0.0146
26278W        W43125   5.279  17.234  15.684  0.0488  0.1215 -0.1530
26279W        W43126  16.956   6.943  12.462 -0.2317 -0.2779 -0.1283
26280W        W43127  12.972   9.178   2.413 -0.1149 -0.0407  0.0485
26281W        W43128   1.354   2.898  10.887  0.2949 -0.0409  0.1867
26282W        W43129  12.724  13.875   0.981  0.1826  0.4836 -0.1783
26283W        W43130  12.633   4.938   3.861 -0.0540 -0.1925  0.2506
26284W        W43131  10.502  18.297   4.496  0.0411  0.0173 -0.0655
26285W        W43132  11.450   3.981  15.710  0.4515  0.0577  0.2602
26286W        W43133   1.598   3.875   5.604 -0.0378  0.1801  0.5152
26287W        W43134   5.878   2.325   0.648 -0.2747 -0.0384 -0.0392
26288W        W43135   1.924   8.367  11.597 -0.0984  0.0065  0.0320
26289W        W43136   2.025   4.847   1.317  0.1029 -0.1115  0.1624
26290W        W43137   4.504  13.181   3.239  0.3491 -0.0113  0.1382
26291W        W43138   9.400   3.959  15.788  0.2157 -0.4439  0.0274
26292W        W43139  12.327  17.712   1.154  0.0895 -0.2388 -0.0658
26293W        W43140  14.287  14.014  12.781 -0.0510  0.1383  0.1345
26294W        W43141  18.377  15.985   2.994  0.2652  0.0230  0.0247
26295W        W43142  17.041   8.690   5.046  0.1956 -0.3880 -0.0280
26296W        W43143  15.148  16.499   1.866 -0.1343  0.3433 -0.1799
26297W        W43144  11.970   0.540  15.534  0.1579  0.0236  0.0498
26298W        W43145  14.348   5.368   3.298  0.2906 -0.0020 -0.0934
26299W        W43146   7.418   3.052   2.528 -0.1299 -0.0500 -0.2763
26300W        W43147  10.358  11.785  12.796 -0.0611  0.1861 -0.3178
26301W        W43148   3.370  18.116   2.559  0.0522  0.0245 -0.0649
26302W        W43149   5.322   6.345   2.031  0.0196  0.2179 -0.0317
26303W        W43150   5.302   7.926  13.892 -0.2098  0.1048  0.3334
26304W        W43151   6.605   4.893   1.234  0.0575 -0.0465 -0.1300
26305W        W43152   3.192   5.094   3.793 -0.1656  0.1501  0.0176
26306W        W43153   8.836   8.362   1.098 -0.0181 -0.1411  0.3290
26307W        W43154   2.992  13.871  13.670 -0.0510 -0.2252  0.2313
26308W        W43155  12.047   2.566  14.137  0.1859  0.2311 -0.2870
26309W        W43156   2.400   1.109   6.080 -0.2427 -0.1670 -0.1545
26310W        W43157  15.789  12.614  13.597 -0.2136 -0.0027  0.1846
26311W        W43158  18.008  13.781  10.900 -0.0095 -0.0185  0.0712
26312W        W43159   1.978   0.143  12.164  0.2710 -0.1120 -0.4128
26313W        W43160   8.503   6.056   3.179 -0.2555 -0.1826 -0.1322
26314W        W43161   7.352   1.436   5.580  0.0151 -0.0059 -0.1735
26315W        W43162   7.547   6.678   9.999 -0.1285 -0.0892 -0.2537
26316W        W43163  18.456   5.255  12.520  0.1553  0.0207  0.2833
26317W        W43164  16.012   9.168   0.959  0.1076 -0.0296 -0.2386
26318W        W43165  12.683  18.238  15.068  0.0974  0.2187 -0.2090
26319W        W43166  16.822  16.070   3.862  0.1292  0.0617  0.1086
26320W        W43167   6.963  16.523   5.225 -0.1652  0.0757 -0.0967
26321W        W43168   7.734  11.912  11.863 -0.2599 -0.2886  0.1631
26322W        W43169  13.824  16.646   2.808  0.2513  0.1015  0.0222
26323W        W43170  10.618  10.888   0.650 -0.2041  0.1405 -0.5766
26324W        W43171  17.332  12.844   5.134  0.0064  0.0124 -0.1010
26325W        W43172  16.322  17.159   4.183 -0.0367  0.0469  0.0708
26326W        W43173  10.409  11.533  13.767  0.2735  0.2652 -0.0012
26327W        W43174   7.276   5.810   5.087 -0.1084  0.0877  0.1981
26328W        W43175   4.857  17.642   1.462  0.3905  0.0992  0.1433
26329W        W43176  11.680   2.732  14.443  0.1714  0.1609 -0.2849
26330W        W43177   7.105  10.084  13.455  0.1660  0.3529 -0.1361
26331W        W43178  16.468   7.200   2.524 -0.0418  0.0120 -0.0024
26332W        W43179   7.163  10.714   1.025 -0.1343  0.2747  0.3153
26333W        W43180  11.739  10.854  15.266 -0.1843 -0.0497 -0.4235
26334W        W43181   9.165  18.071   4.366 -0.2083  0.0983 -0.1022
26335W        W43182   9.405   7.201   3.329 -0.2590 -0.2137  0.2203
26336W        W43183   7.728   4.292   3.063 -0.0894 -0.1994  0.3480
26337W        W43184   6.314   0.705  12.462  0.1021  0.2657 -0.2097
26338W        W43185  15.848   0.985  15.166  0.0389 -0.1503 -0.3192
26339W        W43186   8.084   1.467  10.940  0.4716  0.1393 -0.3270
26340W        W43187  10.101   5.523   2.728  0.0044  0.0406  0.1043
26341W        W43188   6.591  10.632  14.198 -0.0444 -0.0619 -0.0281
26342W        W43189   4.252   0.387   1.562  0.2055  0.3575 -0.1250
26343W        W43190   9.650   1.941  13.535  0.3524  0.0544 -0.3515
26344W        W43191   7.258   4.853   2.712 -0.1830 -0.0404 -0.3156
26345W        W43192  15.044   3.700   2.824 -0.0024 -0.1970  0.3018
26346W        W43193   6.094  13.506  12.804 -0.0399  0.0425  0.0004
26347W        W43194  10.234  15.041   5.356  0.0937 -0.0456  0.0054
26348W        W43195  11.436   8.120   4.588 -0.0717 -0.1245 -0.1359
26349W        W43196  15.390   6.139  14.514  0.0846  0.2628 -0.0900
26350W        W43197  16.715   7.606   3.566  0.4530  0.0660 -0.0199
26351W        W43198  12.361  10.217  15.573 -0.3657 -0.0237 -0.0890
26352W        W43199  10.848   0.009  12.422  0.0613 -0.1383 -0.5427
26353W        W43200   7.539  11.987  13.630 -0.2044 -0.1431 -0.1996
26354W        W43201   7.731  17.695   1.372 -0.1360  0.2563 -0.2173
26355W        W43202   9.027  10.601  14.578 -0.0559 -0.0211 -0.0755
26356W        W43203   5.405  12.206   0.632  0.2283  0.0306  0.0579
26357W        W43204  11.090  14.614   3.840 -0.0142 -0.1374  0.2958
26358W        W43205  15.270   3.508   0.373  0.1197  0.0219  0.0976
26359W        W43206   3.623   1.733   5.159 -0.1133 -0.0013  0.0147
26360W        W43207  18.307   6.170   1.408 -0.0579  0.1160 -0.3209
26361W        W43208  17.457   2.153   0.632  0.0918  0.0954  0.0703
26362W        W43209   4.330  12.614  14.617  0.2050 -0.1286  0.0710
26363W        W43210   1.367   3.378   5.146  0.3642 -0.1877 -0.0283
26364W        W43211   7.981   0.069   2.632  0.2566 -0.0701  0.1927
26365W        W43212   1.106   6.946  13.900 -0.1991  0.3258  0.2546
26366W        W43213   7.738  17.030   0.652  0.1526 -0.0043 -0.0540
26367W        W43214  14.275   5.819  13.111  0.3325 -0.2342  0.1991
26368W        W43215   7.463   9.984  11.406 -0.2253  0.1800  0.0711
26369W        W43216  16.048  12.115   1.437 -0.0848  0.2741 -0.1255
26370W        W43217  13.894   2.952  13.945  0.2166  0.2420  0.1737
26371W        W43218  16.875   5.801  15.845  0.0733  0.1531 -0.3005
26372W        W43219   0.842  16.115  15.893  0.2079 -0.0431 -0.3607
26373W        W43220  14.093  17.277  13.115 -0.0742  0.0762  0.0662
26374W        W43221   2.295   3.668   2.322 -0.0505  0.0320 -0.2371
26375W        W43222   0.947   5.601   1.105 -0.2103  0.0381  0.0580
26376W        W43223   1.705   7.379   5.266 -0.0141  0.0149  0.1601
26377W        W43224  15.165   3.128  14.381  0.2724  0.2821  0.0689
26378W        W43225   4.638   6.916   0.399  0.1420  0.0080 -0.0463
26379W        W43226  18.173   6.048   2.938 -0.3119  0.0901 -0.0047
26380W        W43227  13.809  13.570   4.054  0.0269 -0.0466  0.0615
26381W        W43228   5.834  16.103   0.622 -0.0100 -0.0299  0.3077
26382W        W43229  15.221  12.562  11.472 -0.1250 -0.0483 -0.2008
26383W        W43230   6.303   1.143  15.210 -0.0117 -0.3043 -0.0436
26384W        W43231  10.777   5.483   0.471 -0.0606  0.0592 -0.0825
26385W        W43232  12.944  10.090  14.358  0.2947  0.1069 -0.0294
26386W        W43233  15.865  15.588  11.621  0.0078  0.1734  0.0435
26387W        W43234  16.106   3.473   3.830 -0.0793  0.0973  0.1141
26388W        W43235   4.595  18.120  12.446  0.0991  0.2943  0.1289
26389W        W43236  14.942  12.022  11.669  0.1038 -0.0834 -0.2512
26390W        W43237  15.922   4.110  13.567 -0.0778  0.0940  0.1530
26391W        W43238  10.979  14.477  15.804  0.0290 -0.1219  0.1241
26392W        W43239   5.114   0.323  13.255 -0.2586 -0.1969 -0.0755
26393W        W43240  14.703  16.579   3.298  0.0139  0.4212  0.0857
26394W        W43241  13.875  13.841  13.134 -0.0507  0.1143 -0.1490
26395W        W43242   6.097   8.860   0.322 -0.0973  0.3507 -0.0204
26396W        W43243  12.779   3.453  13.734 -0.1158 -0.0123 -0.4865
26397W        W43244  16.744   1.990   3.318  0.0062 -0.0257 -0.0769
26398W        W43245   3.292   7.793   2.914 -0.1226  0.0006 -0.1542
26399W        W43246   1.583   9.088   1.182 -0.0373 -0.2209  0.0211
26400W        W43247  10.291   4.545   4.522  0.3703 -0.0804  0.0843
26401W        W43248   5.988  13.214  10.262  0.1612  0.0450  0.0031
26402W        W43249  12.372   6.072  14.945  0.1261 -0.0356 -0.3115
26403W        W43250  17.737  14.773  14.603 -0.0934  0.0059  0.1202
26404W        W43251  16.825   6.499  12.179 -0.1451  0.0442 -0.2818
26405W        W43252  12.466   1.360   0.719  0.2761  0.1821  0.0279
26406W        W43253   2.395   7.681   1.114  0.0167 -0.3753 -0.1285
26407W        W43254   2.455  12.856  12.962  0.3136 -0.1449  0.1981
26408W        W43255   6.582  11.564  12.487  0.1579 -0.1133 -0.0416
26409W        W43256   3.843   6.313   5.034  0.0583 -0.3223 -0.1897
26410W        W43257   3.176   3.848   2.239 -0.0610  0.2079 -0.1378
26411W        W43258  17.661   5.869  11.628 -0.0966 -0.1725 -0.1131
26412W        W43259  11.734   7.206   0.430  0.0549 -0.1989 -0.1388
26413W        W43260  18.290  18.494   3.057  0.2192 -0.1866  0.2572
26414W        W43261  10.956  11.000  12.705  0.0974 -0.0136  0.1221
26415W        W43262  10.584   5.305  12.615  0.2462 -0.4812 -0.1068
26416W        W43263  14.576   0.795  11.310 -0.2935  0.1191 -0.0419
26417W        W43264   4.362   4.425  12.176  0.0532  0.0474  0.1184
26418W        W43265  13.045  17.247  13.403  0.0307  0.2610 -0.0256
26419W        W43266  17.166  13.547  11.372  0.0480 -0.0280  0.1040
26420W        W43267  17.266  15.704   2.495 -0.3407 -0.2770 -0.0133
26421W        W43268   1.976   0.511   1.068 -0.0222 -0.0950  0.2156
26422W        W43269   2.505   5.643   5.185  0.2014  0.1400 -0.2188
26423W        W43270   7.202   2.633   1.255 -0.0149 -0.3519 -0.1866
26424W        W43271  14.308  10.507  11.068 -0.4955  0.1193  0.0485
26425W        W43272  18.420  18.180   0.715  0.0246 -0.0553  0.4058
26426W        W43273  13.623   5.274   2.033  0.0896  0.2968 -0.1730
26427W        W43274   3.879  10.781   0.097 -0.2870  0.1247  0.1502
26428W        W43275  18.215  11.480   5.355  0.3110 -0.1676  0.0272
26429W        W43276   7.362  17.766  15.595 -0.1925  0.0425  0.0023
26430W        W43277  12.596   9.414  15.644  0.0001  0.1377 -0.0845
26431W        W43278   5.692   7.576   3.380  0.0423  0.1372 -0.1968
26432W        W43279   0.278  17.735  15.863 -0.0876 -0.1457  0.1127
26433W        W43280   8.409   5.369   0.936  0.0138 -0.2023 -0.0082
26434W        W43281   6.296   5.006  11.821  0.0229 -0.2833  0.0408
26435W        W43282  17.208   9.602  13.886  0.0734 -0.0310 -0.1462
26436W        W43283   6.034   0.514   0.746 -0.1288  0.0022  0.1915
26437W        W43284  13.539   5.419   2.528 -0.2145  0.0196 -0.2408
26438W        W43285  17.996  12.249   4.120 -0.1789  0.0557  0.0703
26439W        W43286   9.380  14.534   4.976  0.4809  0.1208 -0.0916
26440W        W43287  11.374  17.308  13.298 -0.2042 -0.1537  0.0703
26441W        W43288  18.252   5.383  14.260 -0.0304 -0.0175  0.0213
26442W        W43289   8.526  17.036   0.116 -0.3762 -0.1421  0.0221
26443W        W43290   1.427   6.645  12.031  0.2386  0.1293  0.1326
26444W        W43291   9.688  12.515  12.279 -0.2493 -0.1358  0.0267
26445W        W43292   0.661   9.028   2.235 -0.2011  0.1979 -0.0444
26446W        W43293   5.409  16.630   5.161 -0.0962 -0.3080 -0.0276
26447W        W43294   4.905  11.192  14.180  0.0696  0.1360  0.4407
26448W        W43295  14.063   1.458  12.847 -0.3149 -0.0331  0.1619
26449W        W43296  15.320  18.394   2.655  0.1072 -0.2111 -0.1167
26450W        W43297  16.677  14.797  11.888  0.0613  0.1687 -0.0582
26451W        W43298   7.929  10.306  15.331 -0.0890  0.1238  0.1323
26452W        W43299   1.616  10.057  13.585 -0.0169  0.0253 -0.1974
26453W        W43300  12.739  10.769   3.980 -0.2003  0.1024 -0.0520
26454W        W43301   9.832   0.446  11.631  0.0020  0.2188 -0.0757
26455W        W43302   5.297  13.932   1.825  0.1872  0.0075  0.0426
26456W        W43303  15.340  10.423  14.621 -0.0233 -0.2633  0.3810
26457W        W43304   5.099   2.358  15.410 -0.1348 -0.3825 -0.0363
26458W        W43305   8.879   0.347   5.324  0.2272 -0.2188  0.1945
26459W        W43306   0.538   5.234   2.305 -0.2493 -0.0668 -0.0357
26460W        W43307  12.410   0.506   5.251  0.1450  0.3207 -0.3042
26461W        W43308   0.890   1.324   2.813  0.0084 -0.2873  0.2388
26462W        W43309  11.956   9.321   1.157  0.0510 -0.1168 -0.1154
26463W        W43310   3.442  15.011  10.865  0.1287  0.2033  0.0136
26464W        W43311   2.283   9.865  13.542 -0.0626  0.0553  0.1251
26465W        W43312   3.762   2.653   3.465  0.5051 -0.0167  0.2535
26466W        W43313   6.327  14.103   5.450  0.3671 -0.2935  0.0546
26467W        W43314   8.517   5.807   4.447 -0.0722 -0.0669  0.1384
26468W        W43315  13.701   4.289   5.284 -0.1193  0.2820 -0.0302
26469W        W43316  10.179   0.549   2.783 -0.1087  0.1145 -0.4961
26470W        W43317   4.568  14.513   5.159 -0.0199 -0.2156 -0.4215
26471W        W43318   0.849  13.494  13.142 -0.1667 -0.3216 -0.0913
26472W        W43319  17.829  10.010  13.061 -0.1500  0.1828 -0.0168
26473W        W43320   4.411   8.979   2.440 -0.0132  0.2053 -0.0692
26474W        W43321  11.894   6.324  10.878 -0.1846  0.1009  0.2852
26475W        W43322   1.874   5.766   0.679  0.1646 -0.1665 -0.0394
26476W        W43323   9.455  13.873   0.285 -0.0288  0.2237  0.0581
26477W        W43324  15.602   7.589   4.479  0.1371  0.0204 -0.1489
26478W        W43325  12.256   4.028   2.804 -0.0866  0.0056 -0.0719
26479W        W43326   0.430   1.891   2.024  0.2172  0.2153 -0.0408
26480W        W43327  10.138   3.802   0.003  0.1988  0.0780  0.1422
26481W        W43328   5.491  14.065   4.539  0.0074 -0.0208  0.0623
26482W        W43329  12.787  14.540  12.762  0.0226 -0.1908 -0.4017
26483W        W43330   4.217  11.955   5.278  0.0986 -0.2071 -0.1862
26484W        W43331  11.740  18.390  13.922 -0.1565 -0.0401  0.1430
26485W        W43332  14.674   8.142   5.249  0.0022 -0.4047 -0.3145
26486W        W43333  17.330  11.334   4.282 -0.1245  0.1078 -0.1716
26487W        W43334  10.485   9.620  15.276 -0.0993 -0.0730 -0.1334
26488W        W43335  16.250  14.972   3.518 -0.2923  0.1109 -0.0200
26489W        W43336  15.709   6.218   1.473 -0.0278 -0.1146 -0.1655
26490W        W43337   4.719   7.047  15.843  0.0762 -0.2083  0.1651
26491W        W43338   5.161   1.106  14.630  0.1710 -0.3593 -0.3992
26492W        W43339   5.290  16.020   1.088 -0.1903 -0.1432  0.0845
26493W        W43340  12.830  10.846   3.508  0.1325 -0.0282  0.0599
26494W        W43341  10.276   2.909  12.738 -0.3070  0.1281  0.2958
26495W        W43342   5.648   8.884  14.960 -0.1229  0.0026  0.3015
26496W        W43343  17.623   9.456   5.553 -0.1984 -0.3249 -0.0804
26497W        W43344   3.785   9.337   3.192 -0.1330 -0.0825 -0.0162
26498W        W43345   7.932   5.291   4.626  0.0924 -0.1932 -0.1477
26499W        W43346   5.532  15.028  14.019  0.0670  0.1305 -0.2076
26500W        W43347   3.740  17.305  15.582  0.0448  0.2538 -0.0925
26501W        W43348  16.908  17.391  13.338  0.0853  0.2744 -0.0404
26502W        W43349  10.594   3.907  13.010  0.1073 -0.3546 -0.1748
26503W        W43350  11.179  12.823  12.915  0.2396 -0.2757  0.1176
26504W        W43351  15.980  13.628  12.266 -0.0441  0.1619 -0.1591
26505W        W43352  12.022   4.905   4.714  0.0640 -0.2647  0.0947
26506W        W43353   4.230  16.434  12.008 -0.0613  0.1214 -0.0587
26507W        W43354   7.996  11.355  14.893  0.0943  0.1876  0.4464
26508W        W43355   3.931   1.773  14.983  0.2859 -0.3954  0.2199
26509W        W43356  11.646   1.151  13.535 -0.3485  0.3312  0.2165
26510W        W43357  16.719   9.553   2.105  0.3231 -0.1628  0.2189
26511W        W43358  18.124  14.367   0.068  0.0812 -0.2554  0.0882
26512W        W43359  12.615  12.331  12.786  0.0732 -0.1445  0.1323
26513W        W43360  12.473   0.542   2.951 -0.0300 -0.0771 -0.0273
26514W        W43361  12.907   3.256  12.226 -0.0953  0.0739  0.0792
26515W        W43362  11.550  10.037   4.842 -0.1402 -0.1979  0.2156
26516W        W43363   6.193   7.780  11.940 -0.3470 -0.0591 -0.1137
26517W        W43364   8.306  17.902   2.507  0.1918  0.1343 -0.1102
26518W        W43365   0.193   2.140   3.308 -0.0844 -0.0112  0.2387
26519W        W43366   8.373  17.427  14.403 -0.1014  0.0343 -0.3663
26520W        W43367  11.560   5.549  13.002  0.2406  0.1722  0.3049
26521W        W43368  13.856   4.129  12.014 -0.0170  0.0159 -0.2220
26522W        W43369   7.367  12.009   4.598  0.0116 -0.0779  0.0592
26523W        W43370   6.262   3.794   5.383 -0.2564 -0.0114 -0.2816
26524W        W43371  17.270   7.360  14.058  0.4405 -0.2916  0.1130
26525W        W43372  14.097   8.174  13.685 -0.0391  0.0513  0.0613
26526W        W43373  10.263   8.688   4.922  0.2922 -0.3238 -0.0657
26527W        W43374   9.836   2.262  11.432  0.3081 -0.2636  0.0516
26528W        W43375   2.098   3.569   3.403  0.0568  0.1028  0.1138
26529W        W43376  12.439   2.061  12.943  0.1327  0.3914 -0.1322
26530W        W43377   5.919   6.262   1.295 -0.1573  0.1303  0.0276
26531W        W43378  10.334   1.530  15.554 -0.0418  0.0183 -0.0449
26532W        W43379  16.087   7.927   0.726  0.0734 -0.0337  0.0371
26533W        W43380   4.009   6.565   0.117 -0.1827  0.1496  0.0091
26534W        W43381   1.442   8.326  11.284 -0.0704 -0.0381 -0.1103
26535W        W43382  15.435  12.331  15.662 -0.0553 -0.0957 -0.0265
26536W        W43383  13.914  17.741   4.292  0.0932 -0.5967 -0.0882
26537W        W43384   3.284   4.939   0.246 -0.0446  0.2573  0.1511
26538W        W43385   8.831  15.220  12.251 -0.1782  0.1328  0.2349
26539W        W43386  15.270   2.348  12.206 -0.1842  0.1045  0.2441
26540W        W43387  17.837   6.335   0.541  0.2601 -0.0011  0.0380
26541W        W43388  13.477   8.405  14.404 -0.2375 -0.0687  0.0172
26542W        W43389   0.996  14.824   2.143  0.1372  0.2346  0.0945
26543W        W43390   1.970   1.419   1.111 -0.0732  0.4651 -0.0747
26544W        W43391   7.710   2.924  14.176  0.0317  0.0387 -0.1065
26545W        W43392   2.997   4.581  15.923 -0.2189 -0.0779 -0.1089
26546W        W43393   4.524  18.458  13.717  0.3267 -0.1780  0.1113
26547W        W43394  10.557  14.845  11.946 -0.0479 -0.4338 -0.0636
26548W        W43395  13.193   4.857   0.554 -0.1431 -0.1839  0.1184
26549W        W43396   0.195  17.768  14.245 -0.2634 -0.2174  0.0721
26550W        W43397   5.361   7.399   2.289  0.0966  0.1673 -0.0710
26551W        W43398  17.678   1.306   1.813 -0.2205  0.2050 -0.0164
26552W        W43399  18.312   8.866  14.361 -0.0081 -0.0193 -0.0036
26553W        W43400   0.913   6.535  12.907 -0.1812 -0.0513 -0.2655
26554W        W43401   8.496  11.647  14.861  0.1949 -0.0165  0.0769
26555W        W43402   0.189   4.540  11.736 -0.0538  0.1626  0.0437
26556W        W43403  17.190  10.021  13.524  0.2436  0.0977 -0.0605
26557W        W43404   1.981   0.881   0.550  0.0160 -0.0099 -0.2465
26558W        W43405   0.632  14.036   3.777 -0.0355  0.0366  0.2494
26559W        W43406   0.596   3.649  15.290  0.0545 -0.1455 -0.2398
26560W        W43407  11.004  16.093  12.883 -0.1936  0.0091  0.0130
26561W        W43408  15.149   1.555   3.561  0.2628  0.0347  0.2282
26562W        W43409  10.899   4.380  15.536  0.2179  0.0144 -0.0565
26563W        W43410  13.687   7.600  13.880  0.0661 -0.2272 -0.3182
26564W        W43411  16.224   9.996   4.754  0.0544 -0.4532 -0.3701
26565W        W43412  11.343   2.752   3.178 -0.2381 -0.2493 -0.0150
26566W        W43413   2.776  14.559   5.183 -0.2740  0.3014 -0.2458
26567W        W43414   9.095  18.268   1.973 -0.0347 -0.1214 -0.0437
26568W        W43415   9.234   2.229  13.316 -0.4179  0.2323 -0.2518
26569W        W43416   5.169   6.631  11.635  0.0400 -0.2823 -0.1961
26570W        W43417  13.198   7.933  14.187  0.0716  0.0703 -0.0991
26571W        W43418  11.542   5.769   4.023 -0.1549  0.1674  0.1559
26572W        W43419   8.554   1.442   1.433  0.0887 -0.2475  0.0420
26573W        W43420   5.733  11.651   2.590 -0.0256 -0.2509  0.1583
26574W        W43421   6.583   9.039   2.626  0.1183 -0.1944  0.3320
26575W        W43422   5.425   7.479   0.369  0.2632 -0.0666 -0.1053
26576W        W43423   4.722  11.422   3.629  0.0781  0.0895  0.1082
26577W        W43424   5.895  17.478   5.482 -0.2848 -0.0359  0.0716
26578W        W43425  17.820  12.788   4.393  0.0364 -0.0567 -0.0603
26579W        W43426   7.791  10.238  14.045  0.1748  0.0842  0.2559
26580W        W43427   7.689  16.394   0.242  0.0027  0.2223  0.0486
26581W        W43428  14.390  11.448   0.988  0.2233 -0.0226  0.0145
26582W        W43429   3.763   5.935   2.014  0.1007  0.2747 -0.1288
26583W        W43430  12.417   3.886   4.262 -0.2684 -0.0935 -0.4256
26584W        W43431   9.514   8.506   3.503 -0.1873  0.3011  0.2406
26585W        W43432  12.167  13.856   4.463  0.0668  0.0817  0.2468
26586W        W43433   3.328   0.642   0.754  0.1094  0.1394 -0.0734
26587W        W43434  14.174   9.895   1.238 -0.3594 -0.2704  0.1409
26588W        W43435  15.077  16.437   2.384 -0.2530 -0.1645 -0.0387
26589W        W43436  16.666  15.254  12.169 -0.2397  0.1386 -0.0655
26590W        W43437   5.084   2.488  14.103  0.4530  0.0821 -0.0809
26591W        W43438   8.599   4.352   4.010  0.0407  0.0509 -0.1656
26592W        W43439   8.047   0.534   2.735 -0.0551 -0.0703 -0.3588
26593W        W43440   0.753  18.511  14.632 -0.0026  0.1258  0.3126
26594W        W43441  15.459  14.063   2.566  0.2164  0.0529  0.2815
26595W        W43442  17.632  14.297   4.691  0.0671 -0.2423 -0.0942
26596W        W43443  11.537   2.519   1.278 -0.0274  0.3071 -0.2145
26597W        W43444   0.206  16.162  13.504 -0.2514 -0.1326 -0.0996
26598W        W43445   3.537   0.698  12.767 -0.4184 -0.1380  0.3017
26599W        W43446   6.904   2.742  14.654 -0.1545 -0.0097 -0.2984
26600W        W43447   2.645   6.153  15.542  0.0942 -0.4289 -0.0381
26601W        W43448   2.764   6.979  14.032 -0.2893  0.0930  0.1083
26602W        W43449   5.910   0.502   3.284  0.0743 -0.1455  0.3118
26603W        W43450   6.757   7.830   5.481 -0.1517 -0.3844 -0.0330
26604W        W43451  16.858   4.109  13.340 -0.0736  0.3076 -0.1356
26605W        W43452  10.484   9.623  14.355  0.0315  0.0915  0.1797
26606W        W43453   0.595  18.322  13.961  0.1502  0.1938 -0.0960
26607W        W43454   1.313  14.899  15.072  0.0205  0.3907  0.0777
26608W        W43455   8.210  11.029  11.681  0.0360  0.2260 -0.3471
26609W        W43456   2.457   5.302   3.484  0.1723  0.1116 -0.1909
26610W        W43457   6.995  10.920  14.146 -0.1316  0.0825  0.1096
26611W        W43458  13.934  16.309   2.413 -0.1627 -0.2726  0.0544
26612W        W43459   3.411  10.019   4.919  0.1731  0.1504  0.0045
26613W        W43460  12.991  11.111  15.246  0.0117 -0.1268 -0.0440
26614W        W43461   0.361  16.119  14.104 -0.0677  0.0373 -0.1016
26615W        W43462  16.517  15.749   5.601 -0.2190  0.0390  0.2012
26616W        W43463   7.248  16.954  15.693  0.0229 -0.1826  0.0330
26617W        W43464  13.869   3.287   3.615 -0.2317 -0.1171  0.0483
26618W        W43465  15.344  10.570   3.181  0.0227 -0.0384 -0.0593
26619W        W43466   1.882   4.455   5.405 -0.4211 -0.0659 -0.0007
26620W        W43467  16.094  13.661   4.806  0.1489  0.2033  0.3127
26621W        W43468   6.967   7.075   0.774 -0.1912  0.2266  0.0373
26622W        W43469   2.854  10.392  13.663 -0.0756  0.0278 -0.1179
26623W        W43470  14.208   9.421  15.898 -0.3347 -0.1251  0.1376
26624W        W43471  12.036   2.916  15.852  0.1729 -0.1874 -0.1756
26625W        W43472   0.727   1.759   3.113  0.1306  0.1754 -0.0218
26626W        W43473   8.019  15.985   3.658 -0.1604  0.1315  0.0694
26627W        W43474  14.895   3.822  11.178 -0.0893  0.0842  0.1186
26628W        W43475   5.087   6.584  13.919  0.3561 -0.0074  0.0605
26629W        W43476  12.674  17.357  14.698  0.1573 -0.1287 -0.0914
26630W        W43477   2.665   7.687   2.423 -0.1698 -0.1344 -0.3590
26631W        W43478   6.029  17.788  14.609  0.1374 -0.0832 -0.1451
26632W        W43479   1.443  17.344  14.478  0.2355  0.2048 -0.1936
26633W        W43480  18.462   9.971  15.651 -0.3408 -0.0482 -0.2041
26634W        W43481   9.699  13.623   1.126 -0.3196 -0.1756 -0.0789
26635W        W43482   6.260  13.253   1.041  0.1498  0.0077  0.4001
26636W        W43483  12.786   7.130   3.283  0.0705  0.0869 -0.0940
26637W        W43484   6.832   6.667  10.987 -0.2420  0.2879 -0.2138
26638W        W43485  16.362  13.481  15.601 -0.0178  0.0622  0.1956
26639W        W43486  10.910   3.921   3.398 -0.0262 -0.0435 -0.0388
26640W        W43487   5.043  17.648   4.204 -0.0579  0.1522 -0.0567
26641W        W43488   8.688   3.603  15.078 -0.0066  0.3177 -0.1099
26642W        W43489   4.684   5.467   4.739 -0.0289 -0.1702  0.0860
26643W        W43490  15.835   3.365   4.770  0.2190  0.0500 -0.3144
26644W        W43491   9.226   3.040   3.399 -0.1708  0.1376  0.2514
26645W        W43492   9.436  13.945  15.583  0.0165  0.2191 -0.0773
26646W        W43493   0.327   4.405   3.214 -0.2104 -0.0803  0.0189
26647W        W43494   1.729  16.925  13.212 -0.0827 -0.1903 -0.0833
26648W        W43495  13.351  18.346   0.331  0.1948 -0.2583 -0.1704
26649W        W43496   3.507   7.199   5.530 -0.0084  0.0068  0.1153
26650W        W43497  10.371   7.470   2.176 -0.0184 -0.2428  0.0009
26651W        W43498  15.781   5.957  13.253 -0.1883  0.1771  0.1147
26652W        W43499   6.051  14.095   4.430  0.2423  0.0353 -0.3812
26653W        W43500   3.415   6.392  10.785 -0.0334  0.2129 -0.1107
26654W        W43501  14.657   9.655   3.459 -0.4429  0.1379  0.1528
26655W        W43502  14.186  15.037   4.456  0.1407 -0.1033 -0.2314
26656W        W43503   8.320   8.511  11.541 -0.2313 -0.0889 -0.0432
26657W        W43504  15.148  13.275   3.170  0.0722 -0.2498  0.3064
26658W        W43505  14.816   5.033   2.578  0.0924  0.1321  0.0773
26659W        W43506   9.706   4.369   3.954  0.2276 -0.0683 -0.0086
26660W        W43507   6.380  17.091  15.153 -0.0861  0.1405 -0.1315
26661W        W43508  17.455   5.825   4.043  0.2287  0.0185  0.0556
26662W        W43509  11.116  16.330   4.773  0.0734  0.0819  0.0346
26663W        W43510  16.151   9.657  12.794  0.1881 -0.1275  0.1549
26664W        W43511   4.881   1.110   2.539  0.2681 -0.2047  0.0753
26665W        W43512  11.995  16.117   4.892 -0.0660 -0.0033 -0.1123
26666W        W43513   3.348  12.478   3.568 -0.1924  0.3949  0.2041
26667W        W43514   7.203  12.635  12.815  0.0951  0.0933 -0.2472
26668W        W43515  16.167   6.387   4.425  0.1285  0.3164  0.2343
26669W        W43516   3.024  16.449  13.978  0.2443 -0.0819  0.2157
26670W        W43517  13.440  17.071  12.374 -0.1302  0.0050  0.1395
26671W        W43518   1.868   1.540  11.791  0.1420 -0.0611 -0.1650
26672W        W43519   8.657  15.187  13.547  0.1494 -0.2568  0.1398
26673W        W43520   4.113   1.463   4.513  0.0394 -0.0255  0.1303
26674W        W43521  13.731  10.464  12.396 -0.0022  0.1902 -0.0060
26675W        W43522   4.723   1.429   1.630 -0.0326  0.0445  0.0510
26676W        W43523  10.488   2.101  11.116  0.2662  0.0395  0.0204
26677W        W43524   6.410  10.856   3.536 -0.1024 -0.0134 -0.0568
26678W        W43525  15.451   0.366   4.152 -0.1296 -0.1199 -0.0405
26679W        W43526   0.097   5.326  13.026  0.0961  0.1156 -0.2489
26680W        W43527  13.061   9.440  15.833 -0.0145  0.0868 -0.1738
26681W        W43528   6.872   6.809   5.174 -0.2056 -0.0547 -0.0970
26682W        W43529   0.135   9.139   1.512  0.0485  0.1734 -0.0436
26683W        W43530   2.261   0.085   2.143 -0.1732 -0.3576 -0.1739
26684W        W43531   7.371   0.444   5.475  0.0446  0.2832 -0.1496
26685W        W43532   5.425  16.365   2.205  0.0278  0.0003  0.0923
26686W        W43533  15.222  15.098  11.310 -0.0664  0.0441 -0.1460
26687W        W43534   8.740  16.512  14.763 -0.0854 -0.1775  0.0027
26688W        W43535  14.782   8.063  14.230  0.0798  0.0453 -0.2170
26689W        W43536  15.533   9.864  11.981  0.1195  0.0458 -0.0379
26690W        W43537  14.486   6.903  14.774  0.0297  0.1550 -0.0133
26691W        W43538   8.142  14.904  15.767 -0.1860 -0.0187  0.1483
26692W        W43539  17.359  10.408  15.714  0.0248  0.0536 -0.1418
26693W        W43540  16.594   9.473   1.589 -0.0253 -0.0384  0.0023
26694W        W43541  15.125  14.538  15.546  0.2984 -0.1975  0.0931
26695W        W43542  11.782  18.057   4.876  0.0166  0.0939 -0.0001
26696W        W43543  14.068  10.509   4.495 -0.1463 -0.1815 -0.0807
26697W        W43544  17.804   5.191   3.739  0.0515 -0.0321  0.2066
26698W        W43545   0.275  12.643  13.014 -0.0069 -0.4441 -0.0311
26699W        W43546  12.890   4.803   1.742 -0.4001  0.0731 -0.0845
26700W        W43547   9.672   9.821  15.691  0.2012  0.0675 -0.1518
26701W        W43548  12.810   5.188  12.299  0.0451  0.0602 -0.4879
26702W        W43549   0.558  15.091   5.089 -0.0628  0.4189  0.0208
26703W        W43550   5.726  17.870   0.942 -0.1005  0.2733  0.0900
26704W        W43551   1.387   2.592   1.876  0.0966 -0.0062 -0.1852
26705W        W43552   3.611  15.104   4.489 -0.1392  0.0224 -0.0206
26706W        W43553  16.936  13.804  14.783 -0.0285  0.0001 -0.1058
26707W        W43554  11.048   1.501   3.256 -0.1453 -0.1771 -0.0706
26708W        W43555   7.296   7.666   5.451  0.0268 -0.0390 -0.1005
26709W        W43556  10.210  13.905   1.936  0.1285 -0.2107 -0.0322
26710W        W43557   3.355  15.050  12.648 -0.0255  0.3065 -0.5159
26711W        W43558  12.764  15.595   5.585  0.1425  0.1616  0.0143
26712W        W43559   6.057   4.000   3.404  0.2771 -0.1602 -0.3592
26713W        W43560  17.001   1.059   5.469 -0.0437 -0.1270  0.0387
26714W        W43561  12.371  11.275  12.917 -0.0814  0.1280  0.0622
26715W        W43562  11.975  16.220  14.728 -0.3960 -0.2320  0.3591
26716W        W43563   4.448  11.001  10.627  0.0013 -0.1606 -0.1498
26717W        W43564  12.220  12.580  15.377 -0.0940 -0.3359 -0.1342
26718W        W43565  17.782  10.561  13.085  0.0947 -0.0757 -0.0203
26719W        W43566   6.750   5.644  12.700 -0.0658  0.4210 -0.3228
26720W        W43567   6.677   2.571   4.172  0.0514 -0.3224 -0.2356
26721W        W43568   2.107  14.775  12.939 -0.0017 -0.2712 -0.1678
26722W        W43569  11.606   4.556  11.371 -0.0695  0.1607 -0.0806
26723W        W43570  11.453   3.727  11.248  0.1383  0.1739  0.2848
26724W        W43571  16.651   5.992   0.855  0.0719  0.3049  0.1527
26725W        W43572  16.266  10.097   2.275 -0.1344 -0.1284 -0.1271
26726W        W43573  16.265   1.300  14.011  0.2756 -0.1591  0.1143
26727W        W43574  10.713  12.988  12.825 -0.0923 -0.1151 -0.0886
26728W        W43575  11.214   5.018   1.105  0.1607  0.0145  0.1002
26729W        W43576   0.202   9.081  14.435  0.2718 -0.1900 -0.2939
26730W        W43577  10.786   1.883   3.431  0.0372 -0.1559  0.0975
26731W        W43578   5.823   2.124   1.760 -0.1743  0.1310  0.0185
26732W        W43579   3.513   4.244   2.163  0.0459  0.3767  0.4747
26733W        W43580  12.218  11.482   4.198 -0.0407 -0.2504  0.1685
26734W        W43581   1.436  11.140   2.126  0.0642 -0.2231  0.2075
26735W        W43582   2.387  14.098  12.796 -0.3243 -0.3990 -0.0670
26736W        W43583   6.626  10.309  13.458 -0.0867  0.1735  0.0627
26737W        W43584  10.807   8.577  11.357  0.1304 -0.0160 -0.2010
26738W        W43585  12.243   4.785  15.353 -0.3722  0.4909 -0.0639
26739W        W43586   3.398   3.842   2.717 -0.0795 -0.1700 -0.2786
26740W        W43587  14.705  12.482   1.916 -0.1535  0.0695  0.2859
26741W        W43588   4.619   8.775   4.012 -0.0703  0.0868 -0.1804
26742W        W43589   7.141   7.231  11.998 -0.1680 -0.0564 -0.0561
26743W        W43590  15.730   8.834  13.650 -0.0674 -0.0317  0.2969
26744W        W43591   3.262   5.039  11.723  0.0908 -0.0826  0.1754
26745W        W43592  18.056  15.347   0.279  0.0252 -0.1129  0.0559
26746W        W43593   7.273   6.965   0.342 -0.1155  0.0431  0.1046
26747W        W43594   0.202   5.495   3.157 -0.1674 -0.3119 -0.0559
26748W        W43595  16.528   9.625  14.899  0.2833 -0.1980  0.0213
26749W        W43596  15.271  13.464  14.688 -0.2023  0.0714 -0.1103
26750W        W43597  13.977   4.624  14.918  0.0228  0.1221  0.0358
26751W        W43598   4.602   0.696   3.416 -0.0735  0.1927  0.0376
26752W        W43599  10.397  10.734   0.086  0.3159  0.0295  0.1611
26753W        W43600   2.236   3.863   2.852  0.0722  0.1563  0.0470
26754W        W43601  12.729   1.120   1.133 -0.2527 -0.1552 -0.0424
26755W        W43602  13.863   9.416  12.844 -0.3257 -0.1976  0.1807
26756W        W43603   1.859   9.571   3.061 -0.0392  0.0864  0.0798
26757W        W43604  10.246   8.478   3.432  0.0235 -0.1234  0.1126
26758W        W43605  16.869   4.447  14.725  0.3238  0.1719  0.0153
26759W        W43606  14.844  17.138  11.915 -0.0931  0.1193  0.2042
26760W        W43607  11.557   2.943   1.667 -0.1625 -0.1338 -0.3105
26761W        W43608  12.749  14.485  14.166  0.2715 -0.0024  0.0504
26762W        W43609   3.710  13.001  15.506 -0.0509 -0.0234  0.1723
26763W        W43610  13.516  14.847  15.593 -0.1243 -0.0160  0.0656
26764W        W43611  14.578  10.819  12.737  0.4106  0.2510 -0.2370
26765W        W43612   9.787   6.160  14.058  0.2020  0.0147 -0.0635
26766W        W43613   4.356  10.848   2.086 -0.1438 -0.1628 -0.3288
26767W        W43614   1.557  13.813   4.500 -0.0021 -0.3199  0.0239
26768W        W43615  11.410  14.270  15.728 -0.1832 -0.2030 -0.3341
26769W        W43616   5.843  11.063  12.640  0.3042  0.0665 -0.2240
26770W        W43617  15.301   5.152   2.701  0.2911 -0.3494 -0.0617
26771W        W43618   4.963  15.056  13.513  0.2222 -0.1149 -0.0671
26772W        W43619   6.492  10.384  12.624  0.1519 -0.0941 -0.1161
26773W        W43620   4.541  18.225   3.154 -0.2150 -0.1185  0.1591
26774W        W43621   1.163  16.555   0.849  0.0031  0.0177 -0.0590
26775W        W43622  12.066   3.021  14.357 -0.1555  0.6169  0.0738
26776W        W43623   3.988   5.887   4.165 -0.1777 -0.2970  0.2520
26777W        W43624   3.476  15.602   1.049 -0.3154 -0.0712 -0.0907
26778W        W43625  13.440   3.181   4.374 -0.1564  0.1206  0.1326
26779W        W43626  17.224   5.051   0.218  0.0177 -0.0427  0.2305
26780W        W43627  10.007   6.119   1.308  0.0800  0.2448 -0.4324
26781W        W43628   3.211   1.776   3.096 -0.0194  0.4325  0.1739
26782W        W43629  14.430  10.507   2.952  0.0107  0.0968 -0.2369
26783W        W43630  17.117   5.586  11.108 -0.0200 -0.1294 -0.1389
26784W        W43631  14.614   5.790   5.316 -0.2278 -0.0637  0.0319
26785W        W43632   8.825  18.454  12.247 -0.0821  0.0144  0.2156
26786W        W43633   4.600  12.323  12.651  0.0588  0.0564 -0.1212
26787W        W43634  12.019   1.325  14.366 -0.1520 -0.1993 -0.1097
26788W        W43635  13.544  11.292  15.264 -0.4703  0.2749 -0.1073
26789W        W43636  13.961  15.855   3.206 -0.1910  0.0748 -0.2239
26790W        W43637  10.116  13.296   5.066  0.5029 -0.0357 -0.0414
26791W        W43638   1.929   8.359  15.342 -0.0252 -0.0756  0.0414
26792W        W43639  13.231  12.626  15.535  0.1005  0.1625 -0.0828
26793W        W43640   6.503   8.089   4.113  0.1083  0.2167 -0.0403
26794W        W43641   5.737  15.282   4.836  0.0337  0.0119  0.2370
26795W        W43642  15.808   4.414  15.766  0.0222  0.1064  0.3596
26796W        W43643  11.789   1.794   0.625 -0.0777  0.0826  0.1914
26797W        W43644   2.716   6.248  13.279 -0.0093  0.2406 -0.1229
26798W        W43645   8.604  12.666   0.856 -0.0315 -0.2077  0.0255
26799W        W43646  12.823  12.209   4.642  0.0428 -0.1750  0.3247
26800W        W43647  10.730   2.504   0.183  0.0522  0.2299 -0.0874
26801W        W43648   0.171   4.851  14.631  0.0373 -0.1035  0.1805
26802W        W43649   6.895   0.145   4.119  0.0130 -0.3140  0.1368
26803W        W43650   3.436  12.300  10.531  0.1474 -0.1375  0.1508
26804W        W43651  14.256  15.835   3.808 -0.0852  0.0573 -0.2133
26805W        W43652   9.493  17.197   5.001  0.0092  0.1224  0.0504
26806W        W43653  10.836  10.697  11.274  0.0714 -0.4130 -0.1069
26807W        W43654   1.854  12.004  13.130 -0.2196 -0.0476 -0.1797
26808W        W43655   9.411  14.950   3.335  0.0004  0.2996  0.1823
26809W        W43656   0.283   7.899  14.988 -0.0066 -0.1715 -0.1376
26810W        W43657   7.026  13.486   2.969  0.0328  0.0978  0.4457
26811W        W43658  15.624   7.182   1.793 -0.0253 -0.0902  0.0732
26812W        W43659   8.713   7.161  10.930 -0.2347 -0.0706  0.0659
26813W        W43660   8.740   2.611  12.589  0.1492  0.3315  0.0088
26814W        W43661   2.797   9.357  13.658  0.0852 -0.1276 -0.0075
26815W        W43662  15.360  15.689   3.447 -0.0831  0.2222 -0.1425
26816W        W43663  15.828  10.662   0.621 -0.0974 -0.2087  0.0607
26817W        W43664  18.111  15.267  11.518  0.1154  0.0334 -0.0519
26818W        W43665   3.368  15.546   4.555  0.0312 -0.0843  0.3317
26819W        W43666   0.658  15.038   1.713  0.2075  0.0345 -0.0754
26820W        W43667   1.293   6.581   1.408 -0.2524  0.1649  0.4160
26821W        W43668   1.335  16.986  14.037  0.0667  0.2444 -0.0496
26822W        W43669   6.332  16.441   4.354 -0.2360 -0.2757 -0.2114
26823W        W43670   1.164   6.563   0.848  0.1999  0.3389  0.1827
26824W        W43671   0.656   4.472   2.808 -0.2246  0.0393  0.0838
26825W        W43672   9.990   6.905  12.181 -0.0790 -0.0219 -0.4846
26826W        W43673   3.016   7.376   2.859 -0.2313 -0.1190 -0.0951
26827W        W43674   2.338   8.274   5.480  0.1198 -0.0549 -0.3349
26828W        W43675  10.505  16.847   3.933 -0.0130  0.0926  0.0208
26829W        W43676   6.377   9.856   5.695 -0.0224  0.1596 -0.3961
26830W        W43677  10.242   2.564   0.381  0.1739 -0.2171  0.0314
26831W        W43678  13.817  11.913   2.736  0.0312  0.1751 -0.1501
26832W        W43679   5.916   4.569   2.522  0.2609 -0.3098 -0.1281
26833W        W43680   5.239   8.953  14.607 -0.1694 -0.1598  0.0207
26834W        W43681   6.047   9.718   1.012  0.1223 -0.0375  0.1680
26835W        W43682  14.682   5.706   0.351 -0.1127  0.3190 -0.3575
26836W        W43683  16.738  13.748  15.439 -0.0210 -0.2947  0.0892
26837W        W43684  16.931   0.911   3.769 -0.4111  0.0152 -0.1178
26838W        W43685  15.740   9.244   5.293  0.1795 -0.2882 -0.2146
26839W        W43686  13.914   8.737   3.144 -0.0536  0.3149  0.2590
26840W        W43687  18.422   0.490  10.980  0.3303 -0.0578 -0.0949
26841W        W43688   1.322   1.530   2.948 -0.2741 -0.0676  0.1623
26842W        W43689  10.044   6.042   4.872 -0.0541 -0.0471 -0.3866
26843W        W43690   5.313   4.751   4.760 -0.1061  0.0047  0.2144
26844W        W43691   3.421  13.673  13.504  0.2191  0.0786 -0.2976
26845W        W43692  17.700   1.552  12.696 -0.3101  0.1176 -0.2453
26846W        W43693   0.248   1.930  12.674 -0.0342 -0.1639 -0.0664
26847W        W43694  14.413  17.187   2.720  0.0758 -0.0095  0.0601
26848W        W43695   6.674   4.642  13.840  0.1629  0.0924 -0.1688
26849W        W43696   4.435  13.656  14.407  0.0342 -0.2020  0.0804
26850W        W43697  14.539  12.628   4.849  0.3080  0.3108  0.0081
26851W        W43698  13.834  17.209  13.838  0.3438  0.1272 -0.0244
26852W        W43699   7.448  12.594   4.173  0.1693 -0.2191 -0.0080
26853W        W43700  15.533  12.813  15.768 -0.0447 -0.3073 -0.0270
26854W        W43701  12.559   0.176   4.878 -0.0421  0.0660 -0.1112
26855W        W43702  11.168   2.155  15.638  0.2147  0.1170 -0.0891
26856W        W43703   4.850  12.149   0.523 -0.2394  0.1547 -0.3976
26857W        W43704   3.930   0.801   1.842 -0.0329 -0.0260  0.0469
26858W        W43705   7.873  16.507   0.751  0.1859  0.4092 -0.2407
26859W        W43706  16.378   7.409  13.095  0.4776  0.3734  0.3216
26860W        W43707   0.979  11.724  12.982 -0.3779 -0.0105 -0.0126
26861W        W43708   5.443   8.847  10.575 -0.1687  0.1686  0.1583
26862W        W43709  14.285  13.907   3.341  0.0369 -0.0626 -0.2254
26863W        W43710   0.161   8.129   1.056  0.0200 -0.0280  0.0610
26864W        W43711   6.013  18.065   3.756  0.0451 -0.0305  0.0233
26865W        W43712   9.012  13.919   0.068  0.2089 -0.1294  0.2505
26866W        W43713  16.561   0.342   6.131  0.1733  0.0249 -0.0684
26867W        W43714  14.877   7.208  14.565 -0.2323 -0.2593 -0.2070
26868W        W43715   3.564   2.522  12.623  0.2038 -0.1144  0.0764
26869W        W43716  15.232  17.041   1.543  0.0201 -0.2916  0.2578
26870W        W43717   1.284   3.383  15.940 -0.0333  0.2218 -0.0155
26871W        W43718   8.610   5.506  13.244 -0.0897 -0.0602 -0.1475
26872W        W43719  12.317   0.024   0.671  0.1236  0.0553 -0.1649
26873W        W43720   5.061   9.629   2.713 -0.1226  0.1664  0.3687
26874W        W43721   2.533  15.917   0.210  0.2514  0.0953  0.1490
26875W        W43722   0.590   1.325   4.351  0.2231  0.2480 -0.1141
26876W        W43723   2.450  11.444   4.408  0.1503  0.1376  0.1474
26877W        W43724   5.484   5.383   2.928 -0.0919  0.1261  0.2039
26878W        W43725  11.179   6.657  11.399 -0.3669  0.3648 -0.1183
26879W        W43726  17.772  15.475  10.314 -0.1788  0.0620 -0.1929
26880W        W43727   3.155   3.915  11.894  0.4227  0.0225  0.1195
26881W        W43728   1.480  17.518  13.995  0.0346 -0.0499 -0.0630
26882W        W43729  12.616   5.611   3.206  0.0871  0.1709  0.0151
26883W        W43730  13.898   5.527   1.689 -0.1087  0.2410  0.1283
26884W        W43731  16.955  12.542   4.831  0.2890 -0.0884  0.0268
26885W        W43732   2.162   3.089  15.503 -0.1170  0.3489  0.0798
26886W        W43733  16.323  13.552   3.213 -0.1458 -0.2866 -0.1846
26887W        W43734  16.119   4.010   3.842 -0.1179 -0.1497 -0.0649
26888W        W43735   6.624   5.823   5.369 -0.0411 -0.2511 -0.3894
26889W        W43736  12.667  10.867  12.229  0.0066 -0.1303 -0.0769
26890W        W43737  17.534   7.714   1.369  0.2413 -0.0656  0.2188
26891W        W43738   0.704  11.975   0.140  0.0929  0.0100 -0.1189
26892W        W43739  13.116   3.113   0.695 -0.0392 -0.1394  0.0447
26893W        W43740  14.521  14.676   5.517 -0.1432 -0.5813  0.2974
26894W        W43741   8.951  14.856   4.814  0.0456 -0.0109  0.1422
26895W        W43742   4.231   0.828   0.379  0.1008  0.3562  0.3570
26896W        W43743   2.188   0.330  11.662 -0.3123  0.1503 -0.0099
26897W        W43744   9.354   3.983   4.884 -0.0136 -0.2971 -0.0112
26898W        W43745  14.009   4.677   2.578  0.0128  0.2692  0.0821
26899W        W43746   1.746  11.849  14.672 -0.0771  0.5546  0.0767
26900W        W43747   8.339  18.119  13.803 -0.0640 -0.0178  0.2642
26901W        W43748   1.884   3.370  13.170 -0.3077  0.1363 -0.0774
26902W        W43749   2.308  13.849   2.166 -0.3835  0.0902 -0.0322
26903W        W43750  11.664   5.867  13.984  0.0152  0.3233 -0.0149
26904W        W43751   6.866   9.160  14.880  0.1975  0.2058  0.1708
26905W        W43752  12.249  13.371  11.923 -0.0401 -0.0938 -0.0210
26906W        W43753   2.856   7.353   0.390  0.1987 -0.0524  0.2029
26907W        W43754   0.865  16.726  13.055 -0.3089 -0.0996 -0.0141
26908W        W43755  17.509   1.981  13.442 -0.1722  0.0197 -0.2975
26909W        W43756  17.261  16.982   4.279  0.0626 -0.3865 -0.1828
26910W        W43757   5.395   7.785  14.869 -0.1962 -0.0002 -0.0081
26911W        W43758  17.330   5.274  13.872 -0.2243 -0.1564 -0.0233
26912W        W43759  17.966   8.526  14.117  0.0565  0.1192  0.0179
26913W        W43760   3.865  17.002   4.639  0.2473 -0.2106  0.0720
26914W        W43761   4.161   1.109   5.529  0.0506  0.0329 -0.1106
26915W        W43762  14.301   6.632   2.887  0.4065  0.3483 -0.0926
26916W        W43763  12.945   0.401  12.225 -0.1989  0.0093 -0.0292
26917W        W43764   7.745   6.503  10.524  0.0096 -0.0250  0.0376
26918W        W43765  15.359   0.462   3.638 -0.2893 -0.0536  0.1551
26919W        W43766   3.117  16.427   2.112  0.4536 -0.1983 -0.0390
26920W        W43767  17.160   6.115   1.852  0.0729  0.0855 -0.3995
26921W        W43768  12.933   3.441   2.436  0.1674  0.2820  0.0232
26922W        W43769   6.747  15.130  13.413  0.0419 -0.4080  0.1248
26923W        W43770   4.588   6.257  13.154 -0.0681  0.2295  0.1697
26924W        W43771  16.258   5.084   4.494  0.1676  0.0525 -0.1510
26925W        W43772   9.219  13.391   1.259 -0.2254  0.0998 -0.1779
26926W        W43773   4.150   4.190   4.464 -0.0087  0.0296  0.1267
26927W        W43774   3.364   0.606   3.875  0.0765 -0.1073  0.3406
26928W        W43775  18.432   5.038   1.736 -0.3352 -0.2344 -0.1591
26929W        W43776  14.877   0.100  13.389 -0.0221 -0.1447 -0.1063
26930W        W43777  15.034  16.692  15.602  0.1198  0.0411 -0.2940
26931W        W43778   1.879  15.900   2.696  0.2008  0.2186 -0.1198
26932W        W43779   1.590  17.732  13.559  0.3251 -0.0070  0.0608
26933W        W43780   4.772  16.176  14.530 -0.0648  0.3101  0.3073
26934W        W43781  16.479  16.232   2.480  0.1035 -0.0634  0.1074
26935W        W43782  16.796   7.811  14.762  0.0811 -0.3119  0.1983
26936W        W43783   9.014  14.293   2.249 -0.1990  0.1516 -0.1567
26937W        W43784  14.905  14.301  13.009 -0.1021  0.2781  0.0110
26938W        W43785   0.479   7.513   1.866  0.0552 -0.2262 -0.3459
26939W        W43786   3.849   5.755  12.012 -0.1881  0.0633 -0.0118
26940W        W43787  13.163  12.199  10.308  0.2390  0.2436 -0.0990
26941W        W43788  13.151  16.512   0.476 -0.0141 -0.0348  0.0126
26942W        W43789  18.175   0.419  13.254 -0.1710 -0.0579 -0.0681
26943W        W43790  14.958  15.417   1.151 -0.1059 -0.0119  0.2604
26944W        W43791   9.892   0.272   0.225 -0.1750  0.3762 -0.1713
26945W        W43792   4.729  10.956  11.342 -0.1861 -0.0266  0.1856
26946W        W43793  17.225   8.473  15.505 -0.0645 -0.1605 -0.0062
26947W        W43794  17.547  12.268  11.820 -0.2635  0.2867 -0.1929
26948W        W43795   2.900   2.373  11.048  0.1717 -0.0117 -0.0030
26949W        W43796  16.654  15.667   2.119  0.0634 -0.1693 -0.1392
26950W        W43797  12.189  10.657  15.364  0.1086 -0.2412 -0.0349
26951W        W43798  11.894   9.793   0.668 -0.1605 -0.0550 -0.0817
26952W        W43799   4.201   4.011   1.339 -0.1077 -0.0998 -0.1621
26953W        W43800   5.818   3.821   0.376 -0.4228  0.1907  0.0238
26954W        W43801   7.582   1.580  15.912  0.1875 -0.0064 -0.1597
26955W        W43802   2.649  15.688   5.296 -0.1762 -0.0648  0.0497
26956W        W43803   9.734   3.645   4.241  0.1253 -0.0936  0.0103
26957W        W43804  15.295   7.438  10.928 -0.1459  0.0366  0.0098
26958W        W43805  12.277   9.758  14.722  0.1578 -0.5242 -0.0262
26959W        W43806   8.796   9.407  15.385  0.2377  0.1166 -0.0392
26960W        W43807   4.505  16.577  14.344  0.1602  0.3987 -0.0198
26961W        W43808   1.186  16.813   5.064 -0.0537  0.4291 -0.1691
26962W        W43809   5.473   5.098   4.383 -0.1004 -0.1054  0.0792
26963W        W43810  10.562   1.519   3.181  0.1701 -0.0239 -0.0526
26964W        W43811  11.429  16.932  11.445 -0.1048  0.1377  0.1011
26965W        W43812   3.573   3.868   3.202  0.0520 -0.0579  0.1378
26966W        W43813  13.642   0.817  15.113  0.0247 -0.1452 -0.1926
26967W        W43814   2.370  18.116   3.551  0.0483  0.2808  0.1367
26968W        W43815  16.878   1.292  14.257 -0.2082  0.2924 -0.5046
26969W        W43816   4.912  11.070   0.463 -0.4582 -0.0245 -0.1996
26970W        W43817   6.699   4.418  13.376  0.3379  0.4359 -0.2735
26971W        W43818   6.031   5.896   4.437 -0.1134  0.2758 -0.0510
26972W        W43819  14.622  14.915   3.619  0.0769  0.0334 -0.2026
26973W        W43820  15.882  11.182  15.215  0.2593  0.0725 -0.0400
26974W        W43821  16.285  14.008  12.442 -0.1071  0.4876  0.3091
26975W        W43822  16.675   0.750  13.032 -0.0969 -0.0781  0.1085
26976W        W43823   4.437   7.194  11.630 -0.2940 -0.0254  0.2470
26977W        W43824  17.630  10.765   5.356 -0.1795 -0.0046 -0.1093
26978W        W43825   0.806  14.563  12.966  0.2322  0.3341  0.2996
26979W        W43826  12.800   6.358   2.817  0.0822 -0.0840  0.0498
26980W        W43827  10.335   4.793  13.023  0.3207 -0.0108  0.1770
26981W        W43828   5.448  12.668  11.331 -0.0472  0.1358 -0.1285
26982W        W43829  13.983   1.089   5.102  0.0814 -0.0647 -0.0150
26983W        W43830  14.493  10.527   1.720  0.1428 -0.0029 -0.1001
26984W        W43831   5.402  10.396   1.508  0.0520 -0.0099 -0.1234
26985W        W43832   6.866   8.838   3.800  0.0114 -0.2587  0.1133
26986W        W43833  12.867  12.653   4.424 -0.0186  0.2706 -0.1468
26987W        W43834   6.115   5.498  11.120 -0.3761 -0.0553 -0.2262
26988W        W43835   3.272  13.252  15.403 -0.1009 -0.1728  0.1006
26989W        W43836   3.177   1.164   1.677 -0.0137  0.0915  0.1355
26990W        W43837   2.272   4.258  11.757 -0.0284  0.2007 -0.0438
26991W        W43838   8.326   6.096  14.349  0.0512  0.0911 -0.0266
26992W        W43839   0.612  18.030   5.367 -0.1215 -0.1567 -0.1187
26993W        W43840   6.839   2.830   3.671 -0.1060  0.0337 -0.0324
26994W        W43841  13.071   8.926  15.489  0.0958  0.1295  0.3729
26995W        W43842   7.965   6.467  14.175  0.1571  0.1548  0.0721
26996W        W43843   6.994   3.313   3.824  0.1252  0.1355 -0.0441
26997W        W43844   7.574   4.911   0.040 -0.2656 -0.3339  0.0391
26998W        W43845   5.949   5.325   4.567  0.0640  0.0286 -0.2147
26999W        W43846   6.734  16.729  12.897  0.0357  0.1340  0.1046
27000W        W43847   4.282  15.203  13.069 -0.0305  0.0362 -0.1030
27001W        W43848   3.675  11.894  11.047 -0.2426 -0.0391  0.0431
27002W        W43849   1.551   4.743   1.129 -0.3263 -0.2862  0.0079
27003W        W43850   5.584  12.894   1.949  0.0182  0.0987 -0.0890
27004W        W43851   2.564   1.469  13.972  0.3607  0.0279  0.0089
27005W        W43852  15.244  17.176  13.666 -0.3447  0.1703  0.2615
27006W        W43853  17.406  15.647   3.999 -0.2047  0.0604  0.1350
27007W        W43854  15.428   4.834   4.223 -0.0878 -0.1368 -0.2309
27008W        W43855   0.586   1.230  14.955  0.4726 -0.0439 -0.0864
27009W        W43856  13.173  13.595   2.888 -0.1691  0.0264 -0.0150
27010W        W43857  14.198  16.443  11.471  0.0895  0.0836  0.0706
27011W        W43858  10.267   9.254  14.657  0.0810  0.0507 -0.0035
27012W        W43859  11.574  17.159  14.375  0.1981  0.1426  0.0499
27013W        W43860  16.402   9.487  13.183  0.3446 -0.1165 -0.6158
27014W        W43861   8.773  10.793  15.216 -0.0431 -0.0957  0.1676
27015W        W43862  12.345  16.799   5.333 -0.0358  0.0575  0.0086
27016W        W43863  15.872   3.218  13.230  0.3402 -0.2769 -0.2673
27017W        W43864  10.707   7.552  12.554 -0.3844 -0.3107 -0.0264
27018W        W43865   1.602   3.427   3.395 -0.1807  0.0634  0.0829
27019W        W43866  17.518  17.816   2.541 -0.2992 -0.1317 -0.2168
27020W        W43867  14.768   9.972   5.705  0.0556  0.0870 -0.0354
27021W        W43868  17.711   1.336  11.185  0.1507 -0.0235  0.1476
27022W        W43869   5.626   3.184   1.598 -0.0868 -0.0098 -0.4307
27023W        W43870  18.270   7.916   5.223 -0.0318  0.0784 -0.1872
27024W        W43871   4.599   0.295  11.621 -0.1550  0.0668 -0.2433
27025W        W43872  17.685  12.164  15.376  0.0567 -0.3157  0.0234
27026W        W43873  13.332  10.644   4.670 -0.3657 -0.0758 -0.0188
27027W        W43874   5.435  17.530   3.349 -0.0058  0.0816 -0.0039
27028W        W43875   8.458   9.475   4.625 -0.0375  0.1355 -0.1393
27029W        W43876   0.002   9.081   0.574 -0.1840 -0.1348  0.0765
27030W        W43877   4.701  10.092  11.919 -0.1574  0.1295 -0.3465
27031W        W43878   0.398   3.456  14.278 -0.0147 -0.3437 -0.0686
27032W        W43879   7.177  14.996  11.700  0.1814 -0.0538 -0.1618
27033W        W43880  16.865   7.559  14.296  0.2094 -0.0451 -0.0194
27034W        W43881  12.731   6.754  14.987  0.3941 -0.0948 -0.0320
27035W        W43882   3.188  13.425  14.776  0.0539 -0.1665 -0.0049
27036W        W43883  12.135   6.271  12.749  0.0569 -0.0487  0.2669
27037W        W43884   1.502   7.878  12.711 -0.1167 -0.0570 -0.0329
27038W        W43885  18.054   7.775   1.638 -0.1188  0.3521 -0.2265
27039W        W43886   3.409   1.424  15.107 -0.6058  0.0404  0.0586
27040W        W43887   7.646  17.998  11.889  0.1120  0.1944 -0.0742
27041W        W43888   9.343   9.701   3.760  0.1549 -0.1316 -0.1217
27042W        W43889   9.327  18.500  12.389  0.0556  0.0525 -0.2866
27043W        W43890   6.456  18.307   3.087  0.2522  0.0496  0.1452
27044W        W43891   7.912   0.837  12.192 -0.3408  0.1874  0.1886
27045W        W43892   8.461   6.212  13.607 -0.0522  0.0758  0.1133
27046W        W43893   7.895  12.513   2.434  0.0883  0.3310  0.1093
27047W        W43894  12.425   9.772  13.423 -0.2810 -0.0671  0.0238
27048W        W43895  15.156   1.564   4.661 -0.3183 -0.3324 -0.1604
27049W        W43896  12.803  13.642   2.219 -0.0212 -0.0193 -0.0938
27050W        W43897   8.608   2.300   4.863 -0.0709  0.1259  0.0945
27051W        W43898   6.291  13.834   0.123  0.1930  0.1663 -0.1176
27052W        W43899   6.352  14.274   3.030 -0.2337 -0.0402  0.1127
27053W        W43900  12.288   3.943   1.640 -0.1908  0.0164  0.4601
27054W        W43901   5.980  15.283   3.986 -0.3382 -0.2074  0.0325
27055W        W43902  16.064  14.882  14.995 -0.2226 -0.1518 -0.1386
27056W        W43903   6.020  17.455  14.992 -0.1384 -0.0464 -0.4250
27057W        W43904   3.791  13.925   3.226  0.2154  0.2932  0.3070
27058W        W43905   5.343  10.998  15.658 -0.1535  0.2607  0.0236
27059W        W43906   9.791  16.359   1.365  0.0412 -0.0673  0.0402
27060W        W43907   2.349  13.792  15.242  0.3332 -0.2547  0.0139
27061W        W43908  17.688   3.613   0.511 -0.2343 -0.1036  0.2075
27062W        W43909  12.741   5.630   2.273 -0.2810  0.0385  0.2235
27063W        W43910  14.367  12.036   0.091  0.0286 -0.2687  0.2487
27064W        W43911  10.055  17.521   4.078 -0.1388 -0.1110 -0.0710
27065W        W43912  12.838  10.655   0.836 -0.1135 -0.2155 -0.3425
27066W        W43913   2.896  17.143   0.403 -0.0870  0.5119  0.1934
27067W        W43914   6.818   4.585   1.578 -0.3305  0.0505  0.2406
27068W        W43915  16.604  14.977  12.799  0.1815 -0.1972 -0.0602
27069W        W43916   3.941  11.703  15.427  0.0367 -0.0599 -0.2754
27070W        W43917   2.751   8.639   5.443 -0.0030  0.0292  0.2625
27071W        W43918   9.392   4.773   2.668  0.0670 -0.2163 -0.0210
27072W        W43919  15.907  10.464  13.698 -0.1599  0.2090 -0.1185
27073W        W43920  17.480  11.326   3.531  0.0225  0.0902 -0.0606
27074W        W43921   4.113   4.076   3.156 -0.0343 -0.0511  0.0607
27075W        W43922   2.846   5.871  12.030  0.1293 -0.1708 -0.0984
27076W        W43923  17.075   5.308   0.681  0.0760 -0.2951  0.2428
27077W        W43924   4.662   2.863   5.668  0.0447 -0.0860 -0.2481
27078W        W43925   3.484   0.703   0.208  0.0620 -0.3479 -0.0213
27079W        W43926  15.514   2.745  11.036 -0.0625 -0.0625 -0.1756
27080W        W43927  10.514   5.359   4.071 -0.3445  0.0690 -0.0817
27081W        W43928   2.755   7.511   1.949  0.0438 -0.4573 -0.0234
27082W        W43929   2.621   8.645  14.340  0.1770 -0.0058 -0.3189
27083W        W43930  11.922   3.928  13.763 -0.1404  0.0216  0.0719
27084W        W43931   7.793   8.247  13.443  0.2065  0.0299 -0.0761
27085W        W43932  11.481   6.611   3.859  0.2764  0.1031  0.2861
27086W        W43933   9.701   5.945  11.900  0.0119  0.2401 -0.1794
27087W        W43934  17.221   2.111   3.220 -0.1304 -0.0787  0.2722
27088W        W43935  11.903  14.933  14.375 -0.1077  0.1876 -0.1077
27089W        W43936   7.323  17.946  15.053  0.0192 -0.1379  0.1690
27090W        W43937  13.730  10.303  11.809 -0.0319 -0.0566 -0.2273
27091W        W43938  12.875  10.273  11.666 -0.1933  0.1519 -0.1807
27092W        W43939   8.325   9.311   0.923  0.3161 -0.1487  0.0363
27093W        W43940   7.401  14.808   1.105 -0.2397  0.0664  0.2318
27094W        W43941   1.434  16.357  14.243  0.0845  0.1887  0.2533
27095W        W43942   1.973  17.267   4.128  0.0908  0.0067 -0.0396
27096W        W43943   1.494  13.023   3.408  0.0513  0.0391 -0.0652
27097W        W43944  16.315   9.318  11.446 -0.2609  0.1111  0.3937
27098W        W43945   5.626  12.504   6.095 -0.0854  0.0274  0.0189
27099W        W43946   9.286   7.998   4.281  0.0949  0.1485  0.1362
27100W        W43947  14.021   8.462  14.540  0.2075  0.3671  0.1198
27101W        W43948   8.696   2.745   1.310  0.3065  0.1702  0.0636
27102W        W43949   2.591  14.595  12.894 -0.3894  0.1784 -0.1796
27103W        W43950  15.548  11.264  11.140  0.3160 -0.1230  0.1309
27104W        W43951   0.187   9.301  13.598 -0.3567  0.0133  0.0210
27105W        W43952  17.814  16.401   1.106  0.2487  0.0513 -0.0178
27106W        W43953  10.536  14.782  14.829  0.1570 -0.1778  0.1300
27107W        W43954   3.580   2.980  14.730  0.0697 -0.4075 -0.1600
27108W        W43955  15.105  16.025   5.096  0.0378 -0.1170  0.1389
27109W        W43956  11.057   2.003   4.253  0.0856  0.0815  0.0022
27110W        W43957  11.218  18.110   3.567  0.0560  0.1783  0.3123
27111W        W43958  15.440  12.736  14.115  0.1832  0.1279  0.3969
27112W        W43959   4.172   1.855  15.484 -0.1304 -0.2555  0.0742
27113W        W43960  11.820  18.178  11.186  0.2086  0.1905 -0.0081
27114W        W43961   6.629  18.185   0.130  0.3279  0.0931  0.1767
27115W        W43962   0.628   2.290   2.432  0.0111  0.1606  0.3299
27116W        W43963   3.113  14.920   4.954  0.0292  0.0629  0.1432
27117W        W43964  12.335   1.618   4.056  0.3781  0.0454  0.0487
27118W        W43965  17.814   1.706   0.037  0.1175  0.1366  0.0954
27119W        W43966   1.690  16.745  13.759 -0.1563  0.1940 -0.0541
27120W        W43967  14.496   2.734   3.977 -0.2843  0.1044  0.2134
27121W        W43968   4.684   4.883   2.827  0.0131 -0.1958  0.0715
27122W        W43969   1.675   8.319   0.246 -0.2020 -0.0748 -0.1217
27123W        W43970  16.430  17.046   1.982 -0.0612  0.0704  0.0994
27124W        W43971  12.823  12.889   1.388 -0.2635  0.0413 -0.0592
27125W        W43972   9.033   6.340  12.855 -0.1552 -0.3113 -0.3499
27126W        W43973   7.393   5.649   0.828  0.3087 -0.1821 -0.1893
27127W        W43974   4.200  11.498   1.141 -0.3758  0.4138  0.0491
27128W        W43975  10.573  11.027  13.897  0.0421  0.0482 -0.2951
27129W        W43976   2.413  15.999   4.929  0.1536  0.0169 -0.0161
27130W        W43977  15.005  13.607  15.501  0.2885  0.0972 -0.0323
27131W        W43978   1.229  16.213  13.336  0.2216  0.1229 -0.0542
27132W        W43979   4.222  16.237   4.231  0.0027 -0.1051 -0.0491
27133W        W43980   0.102   0.488  12.364 -0.1912  0.0891  0.2988
27134W        W43981   2.908   2.578   1.660 -0.0318 -0.0218 -0.4512
27135W        W43982  13.624   3.777   5.017 -0.2003 -0.1955  0.1720
27136W        W43983  14.839   6.070   3.897  0.0278  0.2677 -0.4594
27137W        W43984  13.162   3.468   1.410  0.0671 -0.2000  0.0370
27138W        W43985   0.648   8.052   3.614 -0.0135  0.2616 -0.2814
27139W        W43986  15.924   5.260  14.423  0.2826  0.1769 -0.0986
27140W        W43987   1.012   4.029   4.013 -0.2271 -0.1817 -0.0989
27141W        W43988   6.495   3.556  13.616  0.0208  0.0788  0.0152
27142W        W43989   3.707  11.295   3.778 -0.0973 -0.0578  0.1390
27143W        W43990  12.597   3.206  11.801 -0.0289  0.2154  0.0322
27144W        W43991  10.784  16.994  14.598  0.1487 -0.1910  0.0026
27145W        W43992   5.201   7.376   5.408 -0.3230 -0.0705 -0.1511
27146W        W43993   9.098  14.180   3.721 -0.0162  0.0954 -0.0398
27147W        W43994   1.095   2.989   0.137 -0.1327 -0.0221  0.0462
27148W        W43995  15.363   4.295   4.136  0.0044 -0.1784  0.1014
27149W        W43996  16.764   2.035  14.567  0.1123  0.0757 -0.2980
27150W        W43997   4.170   9.945   2.093 -0.2858  0.1393 -0.2116
27151W        W43998   4.340  10.521   3.950 -0.1208  0.1301  0.0941
27152W        W43999  10.690  18.226   0.914  0.1792 -0.0878  0.1010
27153W        W44000   1.792   7.584   2.140  0.0066  0.0062 -0.1885
27154W        W44001   9.405   1.697   2.886  0.3116 -0.0495 -0.0793
27155W        W44002   9.624  18.515  15.623  0.2700  0.0397  0.2530
27156W        W44003   7.600   8.359  11.437 -0.1355 -0.1600  0.0425
27157W        W44004  16.624   3.032  15.777 -0.2199 -0.0573  0.2156
27158W        W44005   7.157   0.936   5.384  0.1034 -0.0058 -0.0676
27159W        W44006   2.166  11.895   4.932  0.1540 -0.1239 -0.2152
27160W        W44007  14.626   9.523  15.202  0.0897 -0.1249  0.1265
27161W        W44008   9.350   0.256  14.624  0.0294 -0.2551  0.0465
27162W        W44009   6.321  13.091  12.209 -0.3065 -0.1802  0.0362
27163W        W44010  11.244  14.520   4.412 -0.2148 -0.1519  0.1415
27164W        W44011   5.528   1.562   5.904 -0.3592 -0.1933 -0.3335
27165W        W44012   8.688   5.336  11.096  0.0096 -0.1649 -0.0945
27166W        W44013   1.403  15.077   2.449 -0.1839  0.3415  0.0674
27167W        W44014  13.022  17.978  11.792 -0.0178  0.0696 -0.1369
27168W        W44015   2.167  10.838   2.171  0.0967 -0.0478  0.0966
27169W        W44016   2.860   1.188   4.888 -0.1673  0.0579 -0.1959
27170W        W44017   7.048  14.604  11.915  0.0666  0.2172  0.6374
27171W        W44018   5.516  10.129   4.615  0.0912 -0.0898 -0.1644
27172W        W44019   1.773   9.196   2.762 -0.0001  0.1056  0.0990
27173W        W44020   8.852   6.986  11.377  0.0350 -0.0087 -0.2076
27174W        W44021   5.949  13.597  13.758 -0.1967  0.0760  0.1246
27175W        W44022  10.521   5.718   3.666  0.1434 -0.1706 -0.0408
27176W        W44023   6.760  12.336  11.841  0.3299 -0.2260 -0.0264
27177W        W44024  11.308   7.309   4.086  0.2375 -0.2452 -0.1371
27178W        W44025  11.259  15.600   3.599 -0.1763 -0.1532 -0.2066
27179W        W44026   7.016   7.732   3.757 -0.0571  0.0326  0.0330
27180W        W44027  16.322  17.733   4.918 -0.1760  0.0163  0.1022
27181W        W44028   1.705  11.401   2.533 -0.0207 -0.1601  0.0897
27182W        W44029  11.399   3.398   0.344  0.0835 -0.3127  0.2878
27183W        W44030   4.179   0.244  13.744 -0.0259  0.3356 -0.4341
27184W        W44031  14.520  16.359   2.486 -0.1127 -0.0914  0.1329
27185W        W44032   1.175  13.330  15.105 -0.0579 -0.3083 -0.1130
27186W        W44033   5.725   3.721   1.615 -0.0507  0.0322 -0.2672
27187W        W44034   1.454  11.610  12.148 -0.3794  0.0344  0.2365
27188W        W44035   8.423   8.679  14.672 -0.0847 -0.0760  0.0702
27189W        W44036   8.348   5.569   0.424 -0.1361  0.1502 -0.0947
27190W        W44037   5.400  16.947  10.816  0.1398  0.0287  0.2230
27191W        W44038   1.073  13.182  14.646 -0.0676  0.0420  0.0894
27192W        W44039   5.357   5.093   3.820  0.1187  0.1475 -0.0564
27193W        W44040   6.107   7.875  13.250 -0.0684 -0.2616  0.1380
27194W        W44041   2.585   0.375   0.117  0.0814  0.1700  0.0131
27195W        W44042   3.895  17.748   0.961 -0.1868  0.2105  0.2149
27196W        W44043   7.993   5.131   1.604  0.0307  0.0530 -0.1955
27197W        W44044  16.546  15.137   4.886 -0.0121 -0.4055 -0.0882
27198W        W44045  15.008   1.406   2.230  0.1038 -0.3382 -0.0487
27199W        W44046   1.324   8.255   3.528 -0.0859 -0.0650  0.3608
27200W        W44047   8.467  14.644  13.222 -0.0120 -0.0086 -0.0621
27201W        W44048  16.169  18.220  11.892  0.1909 -0.1909 -0.4729
27202W        W44049   7.995   7.238  15.928  0.0340 -0.0131  0.3220
27203W        W44050   1.233   8.993   2.796 -0.3916  0.1840  0.0031
27204W        W44051  13.150  15.359  15.636 -0.1332  0.1540  0.0262
27205W        W44052   0.872   9.812   3.225  0.2422  0.3084  0.0108
27206W        W44053  10.913   6.098  15.002  0.1856  0.2965 -0.2330
27207W        W44054   0.766   2.001  14.388 -0.0055 -0.1376  0.0619
27208W        W44055   6.972   5.990   0.955  0.0983 -0.1556  0.1755
27209W        W44056   6.017   3.671  13.746 -0.1067  0.1853  0.0318
27210W        W44057   0.041   1.491  12.952 -0.2020  0.0745  0.0076
27211W        W44058  14.411   7.523  15.409  0.0037 -0.2345 -0.0086
27212W        W44059   8.541  17.169   5.119 -0.1025 -0.0523  0.0890
27213W        W44060   7.826   5.787   2.910  0.0199 -0.1032  0.1137
27214W        W44061  18.287   8.041   1.987  0.2824  0.2931 -0.1233
27215W        W44062   2.465  11.857   3.095  0.0441 -0.0340 -0.0191
27216W        W44063  17.941   6.675  11.529  0.0463  0.1824  0.3002
27217W        W44064  15.052   9.611   1.050  0.3334  0.0591 -0.2587
27218W        W44065   7.742   6.296   2.535  0.3465 -0.2637 -0.2702
27219W        W44066  16.875   8.190  13.639 -0.1403 -0.1143 -0.1580
27220W        W44067  14.138   7.181   3.538 -0.1785  0.2118 -0.1469
27221W        W44068   4.913   0.884   1.755  0.0846  0.3276 -0.2143
27222W        W44069  17.746   4.622  14.721  0.1178  0.2571 -0.4448
27223W        W44070  15.970   2.610  11.158 -0.1815  0.1077  0.0858
27224W        W44071   5.644  13.081  12.137 -0.2112 -0.1964  0.2479
27225W        W44072   2.344   9.297   3.465 -0.2833  0.2457  0.1933
27226W        W44073  17.251  14.740  13.130  0.0972  0.0121  0.3110
27227W        W44074  12.493   5.074  11.345 -0.0448 -0.1025  0.0683
27228W        W44075   3.724  11.793   5.086 -0.0483 -0.0555  0.1199
27229W        W44076   8.098  16.905  12.702 -0.2677  0.1842  0.0768
27230W        W44077   1.721  11.245  11.911 -0.1118  0.4371 -0.2448
27231W        W44078   0.008   3.751   1.709  0.1054 -0.2746 -0.1180
27232W        W44079   4.777  12.705   4.063  0.0205  0.0697  0.0371
27233W        W44080  12.088   9.206   3.925  0.0422  0.1316  0.0575
27234W        W44081   1.209  17.832   3.138  0.1073 -0.0962 -0.4126
27235W        W44082  14.776   0.936   1.751  0.3544  0.2724 -0.0848
27236W        W44083   5.623   9.695  14.090 -0.0784  0.3749 -0.0008
27237W        W44084  16.954   9.587   3.640  0.0806 -0.1861  0.2372
27238W        W44085   9.940   8.106  13.920  0.3217  0.1441 -0.0265
27239W        W44086   6.807   5.030  11.873  0.0693 -0.0815 -0.0946
27240W        W44087   8.897   1.384  13.507  0.1978  0.1249  0.1142
27241W        W44088   5.849  18.284  11.619 -0.2006 -0.1770  0.0191
27242W        W44089  17.132   7.378  14.713  0.1286 -0.1643  0.3235
27243W        W44090  14.787  16.985   3.557  0.0212  0.0106 -0.0930
27244W        W44091  15.054   6.748  13.289  0.1224  0.3507 -0.1999
27245W        W44092  11.764  10.888  12.295 -0.0770 -0.0841 -0.2792
27246W        W44093   8.871   0.260  13.099  0.1110 -0.0042  0.3805
27247W        W44094   5.847   8.498  14.553 -0.0276 -0.2541  0.2448
27248W        W44095   2.636   6.261   5.086  0.0101 -0.0066 -0.0903
27249W        W44096   6.250  14.907  14.406 -0.0757 -0.1167 -0.2789
27250W        W44097  15.580  11.558  10.761  0.0865  0.1756 -0.0199
27251W        W44098  12.087  10.476   3.361 -0.0739 -0.3837  0.2458
27252W        W44099   8.613  11.738  13.786 -0.1863  0.0118 -0.1128
27253W        W44100  11.433  13.652  11.708  0.0263 -0.2219  0.0586
27254W        W44101   6.912  12.195   3.181 -0.1440  0.0558  0.0411
27255W        W44102   6.387   4.118  14.459  0.1373 -0.1831  0.0754
27256W        W44103   2.397   1.151  13.049 -0.0592  0.0047  0.0339
27257W        W44104  14.548   9.009   1.793  0.1672  0.0220  0.0364
27258W        W44105   6.066  17.949  12.638  0.3670  0.0184 -0.0166
27259W        W44106  16.412  12.741   4.979  0.3246 -0.0184 -0.3494
27260W        W44107  10.265   0.481  13.659  0.0782 -0.1362 -0.0084
27261W        W44108   3.409  15.006   1.602 -0.2753  0.3174 -0.5072
27262W        W44109   7.217   7.760  14.125  0.2820  0.3520 -0.0636
27263W        W44110   4.764   5.972  10.703  0.0648  0.2663  0.0921
27264W        W44111  16.261  16.860  14.958 -0.1410 -0.0462 -0.3066
27265W        W44112   4.237  14.603  13.723  0.0589 -0.4335 -0.1690
27266W        W44113   7.888  16.948  12.273 -0.1560 -0.0525  0.0355
27267W        W44114   7.883  17.575  15.865  0.2901 -0.2582 -0.2336
27268W        W44115  11.563   2.705   3.633  0.2059  0.0637  0.0385
27269W        W44116  16.903   7.957   0.554  0.1151 -0.0081 -0.0888
27270W        W44117   7.736  12.660   5.200  0.1207 -0.0514 -0.1097
27271W        W44118   9.707  17.798  14.038  0.5483  0.1071  0.1994
27272W        W44119   0.202   6.303   2.236  0.4988  0.2694 -0.2045
27273W        W44120  10.785   8.634   5.199  0.0630 -0.1362 -0.1331
27274W        W44121  14.373  16.659   0.155 -0.2868 -0.0505 -0.4328
27275W        W44122   0.314   8.731   3.982  0.0390  0.0629 -0.3704
27276W        W44123   2.173   7.035   4.053  0.3437 -0.2390  0.0138
27277W        W44124   7.479  17.640   3.918  0.3426  0.2369  0.3243
27278W        W44125  13.715   7.633  14.990 -0.1240 -0.0677  0.0883
27279W        W44126   0.449   4.320  12.135  0.0317  0.2478 -0.0088
27280W        W44127  17.712  12.399   2.375  0.3724  0.2870 -0.2798
27281W        W44128  12.510  10.647   3.147  0.0735  0.0681 -0.0428
27282W        W44129  11.713  16.156   0.761  0.3225  0.0082 -0.0350
27283W        W44130  11.037   3.645  12.773  0.0847  0.1601  0.1310
27284W        W44131  12.783   8.629  15.179  0.2196 -0.0438  0.0225
27285W        W44132  13.709  14.727   4.262  0.2915 -0.0862  0.0968
27286W        W44133   9.746  15.358  15.153 -0.1413  0.0346 -0.2993
27287W        W44134  17.844  14.491  15.018 -0.1450  0.2103  0.3631
27288W        W44135   0.902   3.396   0.833  0.1579 -0.5445  0.0863
27289W        W44136   7.241  11.236  15.903  0.3443 -0.2287 -0.1303
27290W        W44137   1.020  14.717   1.500  0.1432 -0.3836 -0.1281
27291W        W44138   5.940   5.509   5.027  0.1114 -0.2500  0.1001
27292W        W44139   9.758  10.976  15.014 -0.1845 -0.0521  0.3140
27293W        W44140   9.734   2.453   4.247  0.1002 -0.1495 -0.0026
27294W        W44141   4.625   5.698  13.231 -0.2268  0.0302  0.2004
27295W        W44142   9.846   2.725  15.473 -0.1432  0.0823 -0.0295
27296W        W44143  10.726  12.517  13.734  0.0554 -0.0364 -0.5761
27297W        W44144   9.805   3.906  15.553 -0.0566 -0.1712  0.0031
27298W        W44145  14.970  18.015  12.656  0.0413 -0.1213  0.0166
27299W        W44146  11.042   2.542  11.658  0.4413  0.0891  0.1288
27300W        W44147   1.303  14.966   1.072 -0.0721 -0.2520 -0.2494
27301W        W44148   0.768   7.164   0.574  0.1888 -0.2699  0.0656
27302W        W44149  14.735   7.891   5.674  0.0418  0.2455 -0.2498
27303W        W44150  16.035   5.329  11.388  0.0322  0.4216  0.0590
27304W        W44151  14.209   6.297   0.084  0.0254  0.2023  0.0362
27305W        W44152   2.087   9.215   4.832  0.1562  0.2312  0.0589
27306W        W44153   2.665  12.508  15.142 -0.2707 -0.2018  0.1671
27307W        W44154  12.054   1.076  13.904 -0.0131 -0.0159 -0.1232
27308W        W44155  10.016   9.037  13.533 -0.3412  0.2117  0.2252
27309W        W44156  16.406   9.588   0.785 -0.1156  0.1981 -0.2750
27310W        W44157   9.907  13.238   4.151  0.0853  0.1681  0.2011
27311W        W44158   4.453   0.365   0.547 -0.2574 -0.1002  0.1686
27312W        W44159   3.477   0.711  11.335  0.0452 -0.3421  0.1979
27313W        W44160  16.267  12.768  13.743 -0.1144  0.0541 -0.0854
27314W        W44161  17.410   6.640   2.708 -0.1036 -0.0848 -0.1161
27315W        W44162  10.460   1.672   2.714 -0.0034 -0.2374  0.1448
27316W        W44163   6.629  14.243   6.338 -0.0402  0.0560  0.1586
27317W        W44164   5.832   8.931   3.448  0.1635 -0.1462  0.0625
27318W        W44165  15.432  11.525   4.242  0.1097 -0.1397  0.1724
27319W        W44166  14.916   5.152  11.939  0.1613  0.0003 -0.0643
27320W        W44167   8.746  17.289   4.310  0.0387 -0.1701  0.4609
27321W        W44168   5.790  10.868  12.140  0.0799  0.0835 -0.0471
27322W        W44169   6.795   8.177   3.676 -0.0270 -0.0350  0.3082
27323W        W44170   1.080  12.103   3.757 -0.1903 -0.1326 -0.2951
27324W        W44171  18.187   3.296  14.661 -0.1424  0.2499 -0.0916
27325W        W44172  12.002   4.178   4.119  0.0269  0.1168  0.1534
27326W        W44173  11.927   6.468   2.521  0.1129  0.1866  0.1668
27327W        W44174  16.960  11.923  14.353  0.0113  0.1744 -0.0933
27328W        W44175   3.477  11.546  15.303 -0.0440 -0.2717  0.2971
27329W        W44176   1.789  11.834  15.664  0.1312 -0.0866 -0.1345
27330W        W44177  11.495   3.092   0.710 -0.0196  0.0139 -0.0558
27331W        W44178   2.363   6.121  14.265  0.0711 -0.1077  0.1654
27332W        W44179   7.164   0.281  11.827 -0.1893 -0.3047  0.1570
27333W        W44180   9.163   9.090  12.209 -0.0816 -0.3484  0.1204
27334W        W44181   0.212  16.532  14.375 -0.1173  0.0909 -0.5145
27335W        W44182  13.343  18.493  13.510  0.4367  0.0750  0.0190
27336W        W44183   4.125  14.111  12.426  0.2359 -0.0943  0.1497
27337W        W44184   3.341  16.477  11.547  0.2657  0.2428  0.2541
27338W        W44185  14.807   8.931  11.365 -0.3969 -0.0313 -0.1615
27339W        W44186  11.377   9.012   0.286 -0.2775 -0.0667 -0.0115
27340W        W44187  16.165   2.968   3.969 -0.0193  0.1902  0.3062
27341W        W44188   5.865  13.577   3.362 -0.1237  0.1724 -0.1628
27342W        W44189  13.875   2.048   1.843  0.1374 -0.1778 -0.1757
27343W        W44190   7.430   6.808   5.200  0.0356  0.1390 -0.0983
27344W        W44191  12.509  13.724  15.012 -0.1007  0.0465 -0.1255
27345W        W44192  16.057   3.163  15.455  0.1420  0.0996  0.0268
27346W        W44193   7.135  18.365   1.480 -0.0500  0.2658  0.2265
27347W        W44194   8.357   9.727   1.868  0.2457  0.0471 -0.1397
27348W        W44195   7.661  16.705   4.829 -0.2619 -0.0861  0.1261
27349W        W44196  10.916   6.568   3.612 -0.0361 -0.0552 -0.0410
27350W        W44197   7.294  10.206   4.101  0.2315  0.1863 -0.1471
27351W        W44198   9.015  16.742  13.859 -0.3634  0.1917 -0.1805
27352W        W44199   0.504  14.741   2.873  0.1198  0.1795  0.3091
27353W        W44200   3.947   0.041   1.268 -0.0726 -0.3288 -0.0120
27354W        W44201  14.337   9.151   2.639  0.1949  0.2128  0.0647
27355W        W44202  13.268  17.673  15.597 -0.0496  0.0991  0.0582
27356W        W44203  16.042   7.292   2.158  0.2293  0.2638  0.0025
27357W        W44204   3.641   8.499   2.053  0.0264  0.3328 -0.1320
27358W        W44205  11.382  13.694  13.570 -0.0766 -0.1582 -0.2324
27359W        W44206   4.101   3.079  11.599  0.1495  0.0430  0.2397
27360W        W44207   1.000  15.477  11.741 -0.1219  0.0095  0.1917
27361W        W44208  10.387  12.344   4.723  0.0837 -0.1552  0.1157
27362W        W44209  16.307   8.253  12.603 -0.1383 -0.2144 -0.0463
27363W        W44210  13.005   9.170   4.160  0.0551  0.3631 -0.1373
27364W        W44211   6.564   4.160   1.478  0.1359 -0.1170 -0.1426
27365W        W44212   6.814  15.886   1.260  0.2557 -0.1016 -0.3276
27366W        W44213  11.038   6.056   2.812  0.3986  0.2596  0.0069
27367W        W44214   4.867   7.043   4.958  0.2770 -0.0663 -0.1689
27368W        W44215  17.629  15.279  14.737  0.1223  0.0373  0.0651
27369W        W44216   2.024  10.942  14.258  0.1064  0.4114 -0.1728
27370W        W44217  11.839   7.952   4.308  0.1844 -0.0501 -0.0955
27371W        W44218  11.839   0.671   4.024  0.1245  0.1092 -0.2770
27372W        W44219  17.956   5.170  12.613  0.3148  0.2249  0.1116
27373W        W44220   3.369  16.001  12.640 -0.4474 -0.0142  0.0764
27374W        W44221   4.120  15.419  14.850  0.0586 -0.0265 -0.1341
27375W        W44222  14.964  15.302   4.151  0.0559  0.1356  0.1937
27376W        W44223   0.703  13.458  12.631 -0.1861 -0.2637  0.1756
27377W        W44224   8.035  10.011   4.778  0.1342 -0.1378  0.0256
27378W        W44225  13.387   5.538   3.344 -0.1471  0.0362  0.4610
27379W        W44226   0.300   1.316   4.749 -0.2732 -0.1047 -0.2409
27380W        W44227  12.091   8.953  14.497 -0.0897 -0.0310  0.0077
27381W        W44228  11.072  15.463   1.317  0.0644 -0.1867 -0.4112
27382W        W44229  16.615  17.056  15.913  0.2092  0.1611  0.0991
27383W        W44230   1.568   9.757  13.103  0.3250 -0.1337  0.2442
27384W        W44231   5.367   7.465   1.786  0.1564  0.1856  0.0954
27385W        W44232   0.624   8.984   1.426 -0.0532  0.1807  0.1404
27386W        W44233   8.283   2.734   0.375  0.0642  0.2557  0.3268
27387W        W44234  12.977  10.038  13.462 -0.0628  0.0225 -0.1277
27388W        W44235  15.979  11.039  12.852 -0.1361 -0.3648  0.0904
27389W        W44236  13.319  12.686  14.630  0.0904  0.3806  0.1601
27390W        W44237   1.659  16.064   2.149  0.0364 -0.4022  0.0699
27391W        W44238  10.362  17.373  15.190  0.1215 -0.1195  0.2664
27392W        W44239  16.167  15.170   0.391  0.0477  0.2381 -0.0628
27393W        W44240  13.616   6.172  10.252 -0.0619 -0.0338  0.1346
27394W        W44241  11.690   9.458   4.124  0.0364  0.1008 -0.0519
27395W        W44242  17.648   5.596  15.240  0.1056  0.1704  0.1326
27396W        W44243   4.334   1.073   3.247 -0.0570  0.2117 -0.0739
27397W        W44244   7.332   5.596   5.903  0.0249  0.0488  0.3526
27398W        W44245  13.339   8.828  14.639  0.0141  0.3510  0.3589
27399W        W44246   2.280  18.339  12.947  0.0745  0.0900 -0.1046
27400W        W44247   2.801  15.373  14.681 -0.3203 -0.1379 -0.1534
27401W        W44248  15.768   9.671   1.711 -0.2791  0.1948  0.1847
27402W        W44249  14.496  17.787   0.102  0.0077  0.1342  0.0894
27403W        W44250  11.298   1.603  15.681 -0.0435  0.2215  0.0363
27404W        W44251   1.872   3.840  11.322  0.3287 -0.2908 -0.2008
27405W        W44252  16.505  18.070  12.454  0.1253  0.1782  0.0620
27406W        W44253   1.177  10.067  13.339  0.0500 -0.0021 -0.1192
27407W        W44254   0.526   8.904   5.597 -0.1216 -0.2184  0.0151
27408W        W44255   4.141  18.042  12.640  0.0285 -0.0159  0.3180
27409W        W44256   2.707   8.631  13.153 -0.1323 -0.1245 -0.1599
27410W        W44257  18.214  15.799   2.023 -0.0243 -0.1397  0.3723
27411W        W44258   1.729   9.674  14.141 -0.2310  0.0238  0.2611
27412W        W44259  11.875  18.319   5.307 -0.1765 -0.0214 -0.0693
27413W        W44260   5.473  18.023   4.372 -0.2977  0.2585 -0.0190
27414W        W44261  16.347   1.793  13.782 -0.0182 -0.0349 -0.3205
27415W        W44262   4.629   0.912  15.410  0.0414  0.0600  0.2211
27416W        W44263  14.956  14.091  15.849 -0.2009  0.0464 -0.0278
27417W        W44264  14.721   1.869  15.748  0.1182  0.0526 -0.3290
27418W        W44265  13.859  11.564   1.553 -0.2644 -0.4926  0.1160
27419W        W44266  14.657  10.985   2.707 -0.0023  0.3273  0.0420
27420W        W44267   8.114  17.173  14.095 -0.0446  0.3204  0.1619
27421W        W44268   2.722  14.315  13.752 -0.1024 -0.3348 -0.1659
27422W        W44269   3.684   7.550   0.684 -0.0998 -0.4127  0.4380
27423W        W44270   1.667  11.975  13.698 -0.0776 -0.0526 -0.0719
27424W        W44271  12.659  10.958  13.112  0.0096  0.0389 -0.2586
27425W        W44272   7.970  10.486   3.230  0.2090  0.2547 -0.0797
27426W        W44273   7.234   3.015  13.488  0.4683  0.1820 -0.1917
27427W        W44274  18.060  14.845  15.410  0.0659 -0.2140  0.0711
27428W        W44275   3.822   5.502   1.718  0.2465 -0.1326  0.1223
27429W        W44276   5.271  10.872   3.129  0.0669 -0.2340 -0.0916
27430W        W44277  10.697   4.864  13.395 -0.0612  0.0028  0.0972
27431W        W44278  11.801  14.664  15.812 -0.0056  0.0027  0.0969
27432W        W44279  16.978   3.297   3.913 -0.0560  0.1981 -0.1782
27433W        W44280  14.684  16.335   4.711  0.3478 -0.0934  0.2300
27434W        W44281  16.946   9.929   0.600  0.3740  0.0950  0.3902
27435W        W44282  16.187  11.268   2.350 -0.0097  0.0657 -0.1119
27436W        W44283  17.302  15.620   4.560 -0.0394  0.1720  0.0570
27437W        W44284   9.404   4.429  15.603  0.5322  0.3460  0.2900
27438W        W44285  10.911   4.524   0.448 -0.1993 -0.2988  0.0235
27439W        W44286  10.776   7.329  12.075 -0.0938 -0.2486 -0.0476
27440W        W44287   3.065  13.156   4.549 -0.4832  0.0959 -0.2912
27441W        W44288   2.444  11.202  15.944  0.0661  0.0702 -0.0207
27442W        W44289  13.115   1.693   1.738 -0.2422  0.5155 -0.2279
27443W        W44290   1.981   9.267  11.680  0.0474 -0.0296 -0.1425
27444W        W44291   0.443   1.806   4.452  0.0331 -0.1347  0.0246
27445W        W44292   2.364  10.343  13.729  0.2162 -0.2328  0.1089
27446W        W44293   3.828  18.254  14.477  0.1341  0.1576 -0.2298
27447W        W44294   4.296   6.419  15.379  0.1085 -0.0452  0.2182
27448W        W44295  17.733   2.321  11.581  0.1478  0.1664 -0.0625
27449W        W44296   1.294  17.767   1.729 -0.2186  0.1678 -0.0820
27450W        W44297  13.996  15.760   2.674 -0.3505 -0.4057  0.0602
27451W        W44298   9.926  13.553   1.603 -0.0306  0.0873 -0.1102
27452W        W44299   7.825  17.201   3.121 -0.1053 -0.0667  0.2064
27453W        W44300  12.457  15.437  13.672  0.0222  0.0366  0.1657
27454W        W44301  13.238  15.445  10.002 -0.2331 -0.1265  0.1487
27455W        W44302   4.380  17.169  14.509  0.1741 -0.0802 -0.1566
27456W        W44303   5.896   7.237   3.733  0.1442  0.3782  0.0392
27457W        W44304  18.249  11.116  11.445 -0.0588  0.1322  0.1850
27458W        W44305   4.194  14.477   3.148  0.0491  0.0931 -0.0183
27459W        W44306  17.376  13.502  13.836 -0.0706 -0.3020  0.2502
27460W        W44307   5.043   1.273   0.296  0.2555  0.2395 -0.3692
27461W        W44308   4.524   6.353   3.118  0.0393 -0.0908 -0.1091
27462W        W44309   7.144  12.746   4.512  0.0833 -0.2014 -0.3277
27463W        W44310  16.967  12.467  14.031 -0.0870 -0.2149 -0.1994
27464W        W44311  14.898   1.082  13.429 -0.0519 -0.0439  0.3052
27465W        W44312   6.096   3.393   0.325  0.1532 -0.2133  0.0701
27466W        W44313   9.987   5.200   0.049 -0.4286  0.0348 -0.2174
27467W        W44314  15.686  12.103  14.363 -0.0292  0.3251  0.3401
27468W        W44315   9.103  18.219   3.678  0.6697  0.0530 -0.1133
27469W        W44316  12.356   1.211  11.128  0.3030  0.0905 -0.0626
27470W        W44317  17.872   9.838   3.429 -0.4816  0.1210 -0.0450
27471W        W44318  11.927  15.357  15.243  0.0897 -0.1678  0.1695
27472W        W44319   7.480   6.791   3.835  0.2675 -0.1197  0.1462
27473W        W44320  10.510   3.568   1.638 -0.1573  0.2797  0.0213
27474W        W44321  10.775  11.036   0.126  0.0328 -0.1425  0.3370
27475W        W44322  15.726  12.035   3.232  0.1204 -0.1839  0.1532
27476W        W44323  18.268  10.020   0.165  0.2319  0.0892  0.1700
27477W        W44324  11.710   4.138  13.150  0.0484  0.0515  0.2491
27478W        W44325  15.284  10.500  15.645  0.0539  0.1960  0.2351
27479W        W44326   8.278  16.203  14.093  0.4841 -0.2093 -0.2263
27480W        W44327   8.485  16.310  13.152 -0.0892  0.1951 -0.7035
27481W        W44328   2.251  14.413  14.820  0.1260 -0.2324  0.0135
27482W        W44329  11.117   1.298   1.166 -0.0792  0.0093 -0.3118
27483W        W44330   0.590  11.014   4.295  0.2461  0.0277 -0.2301
27484W        W44331   3.390   4.523  13.044 -0.1598  0.0608  0.1247
27485W        W44332  17.411   7.432  13.467 -0.1580 -0.1122  0.3865
27486W        W44333  13.912  16.600  12.543  0.2923 -0.1022  0.3354
27487W        W44334  17.848   8.046  12.334  0.2433  0.1150  0.2311
27488W        W44335   2.472  17.554   0.574 -0.4043  0.1387 -0.0484
27489W        W44336   4.292   3.608  13.282  0.2143  0.2510 -0.0791
27490W        W44337  10.270   6.173   4.342 -0.0546  0.0662 -0.0968
27491W        W44338   8.945   7.150   1.210  0.1397  0.1292 -0.0075
27492W        W44339   4.829   5.410  11.177  0.1725  0.1109 -0.1680
27493W        W44340   2.827   9.768  15.899  0.0354 -0.3030 -0.2238
27494W        W44341   1.454   6.118  15.445 -0.0409  0.1931  0.0456
27495W        W44342  11.173  12.234  14.553 -0.1457  0.0170 -0.0573
27496W        W44343  14.178   3.168  14.258 -0.1796 -0.0628 -0.1806
27497W        W44344  16.090  16.375   4.959  0.0603 -0.2043 -0.0768
27498W        W44345  17.301  11.015   3.861 -0.0855 -0.1731  0.2546
27499W        W44346   6.420  15.886  13.730 -0.3981 -0.2901  0.0604
27500W        W44347  10.836   8.813   3.966  0.0548  0.2376 -0.1513
27501W        W44348  13.649  17.843  14.450 -0.1895  0.2113  0.1850
27502W        W44349  15.010   0.663   4.697 -0.4275 -0.1609  0.0822
27503W        W44350   7.712   7.122   2.487  0.1208 -0.2709 -0.0076
27504W        W44351   0.696   9.057  15.570 -0.0580 -0.4544 -0.1726
27505W        W44352  12.584  15.607  11.300  0.1935  0.0383  0.0488
27506W        W44353   0.354  15.018  15.343  0.0049  0.1417  0.0429
27507W        W44354  13.053  16.512   4.119 -0.3099  0.3179  0.1701
27508W        W44355   2.044   6.693   0.689 -0.0173 -0.0073 -0.0223
27509W        W44356   0.353  17.305   2.674 -0.1040 -0.4425 -0.1678
27510W        W44357   8.570  16.388   4.738 -0.0802  0.0378 -0.3924
27511W        W44358   7.676   0.617   0.815  0.2561  0.0501 -0.2463
27512W        W44359   2.900   2.965   1.329 -0.0015 -0.0413  0.1737
27513W        W44360  14.017  11.695  14.670  0.2970  0.0876 -0.0624
27514W        W44361   2.148  15.157  13.777  0.0166  0.0285  0.2636
27515W        W44362  11.112   8.811  14.678 -0.1454  0.1662  0.0087
27516W        W44363  16.782  17.742  12.972 -0.0767 -0.0301 -0.1161
27517W        W44364  17.172   8.720   3.040  0.1725 -0.3089  0.1886
27518W        W44365   0.766   5.639   3.326 -0.1100 -0.2466 -0.1537
27519W        W44366  12.476   7.512  11.138  0.0804  0.1064 -0.0828
27520W        W44367  12.496   7.446   9.542 -0.2907 -0.2148  0.2132
27521W        W44368   6.342  16.554   5.445  0.1591  0.3842 -0.1143
27522W        W44369   6.921   2.392  12.728  0.1081  0.1553  0.1423
27523W        W44370  14.902  18.523   1.897  0.0173 -0.0446  0.1207
27524W        W44371   9.420  15.760   0.812  0.0579 -0.2183  0.1176
27525W        W44372   0.814  14.933   0.916 -0.2846  0.0635 -0.3765
27526W        W44373  13.063  18.395  11.495 -0.0102  0.1251  0.2325
27527W        W44374  16.748   1.008   4.932  0.0336  0.0564 -0.2741
27528W        W44375  11.435  14.285   0.782 -0.0562 -0.1844 -0.1102
27529W        W44376  13.094  14.275   5.237 -0.0432 -0.2580  0.1112
27530W        W44377  12.556  17.114   2.012 -0.0977  0.3116  0.1720
27531W        W44378   4.357   3.488   1.266  0.1679 -0.0637 -0.4362
27532W        W44379   4.001   3.199  13.436  0.1276  0.0124  0.3213
27533W        W44380   7.830  16.012  12.192 -0.0317 -0.1160  0.0309
27534W        W44381   4.817  15.008  15.274 -0.0681 -0.2289 -0.2159
27535W        W44382  12.560  15.061  11.896  0.1832 -0.1214 -0.1672
27536W        W44383   3.395  18.378  14.531 -0.0382 -0.0833  0.1179
27537W        W44384   9.826   3.495  14.584  0.0635 -0.2604 -0.1446
27538W        W44385  17.393  18.123  11.885 -0.0121 -0.2253  0.1081
27539W        W44386   8.802   7.184  13.697  0.0174 -0.1286 -0.0506
27540W        W44387   7.371  18.305  11.563  0.1185 -0.0162 -0.1806
27541W        W44388   7.564   7.809   3.111  0.0787  0.1482 -0.2429
27542W        W44389   4.949   5.128  12.257 -0.0634 -0.0736  0.1364
27543W        W44390  14.190   2.602  13.708 -0.0175  0.2590 -0.1059
27544W        W44391   9.974  15.200  12.053 -0.1605  0.0088  0.0145
27545W        W44392   8.907   5.929  15.059  0.1185  0.1360  0.2998
27546W        W44393   3.079  14.950   1.998 -0.2193 -0.1566  0.0741
27547W        W44394   8.772  18.418   4.542  0.0665  0.0224  0.0326
27548W        W44395   0.599  15.496   5.358  0.3105 -0.1661  0.0758
27549W        W44396   9.205  18.407  13.980  0.1677 -0.1267  0.1197
27550W        W44397   6.436  11.791   5.141  0.3397 -0.0221  0.0478
27551W        W44398  17.348   5.309   3.928 -0.4381 -0.2623  0.4148
27552W        W44399   4.707   7.921  13.228 -0.0380 -0.1428  0.0943
27553W        W44400   1.681  14.579  14.985 -0.1218 -0.0483  0.2143
27554W        W44401   6.884   7.131  13.521 -0.1508 -0.0524  0.0217
27555W        W44402  10.209   0.899   1.012 -0.1755  0.0190  0.2635
27556W        W44403  11.394  14.199   4.774  0.1327 -0.0171 -0.0255
27557W        W44404  12.641   7.923  11.399  0.0606 -0.0656 -0.2303
27558W        W44405   1.148   4.603   2.749  0.1074  0.0590 -0.0922
27559W        W44406  11.459  12.866  13.359  0.1617  0.0199  0.0240
27560W        W44407   4.130   9.369  13.619  0.0410 -0.1451  0.2114
27561W        W44408   2.689  15.280  11.562  0.1443  0.2952 -0.3904
27562W        W44409  11.001  14.615  11.347 -0.0254 -0.0210 -0.2367
27563W        W44410  16.213  11.366   3.793  0.0072 -0.3075  0.0100
27564W        W44411  16.403   9.181  12.608 -0.0027 -0.0781  0.0203
27565W        W44412  16.358   2.044  13.225 -0.1933 -0.0600  0.0368
27566W        W44413  14.523  10.602   3.449 -0.0935 -0.1506  0.2642
27567W        W44414  11.009   9.292   0.036 -0.1050 -0.0099 -0.1161
27568W        W44415  13.003   3.472  12.948  0.1832  0.3716  0.1558
27569W        W44416   7.762  12.289  12.860 -0.1915 -0.0157  0.0292
27570W        W44417   6.912   3.086  10.732 -0.0603 -0.2452 -0.1360
27571W        W44418   7.300  17.806  13.354 -0.3724  0.2850 -0.0955
27572W        W44419   9.994  12.525   1.468  0.1351  0.1038 -0.0040
27573W        W44420   2.660   1.606  14.470  0.2211  0.1328  0.1647
27574W        W44421   6.208   5.237   0.832  0.3478  0.0273 -0.3325
27575W        W44422  11.117  17.637   1.340  0.0150  0.0936  0.0510
27576W        W44423   5.707  16.397   3.168  0.1682  0.3704  0.0749
27577W        W44424   5.429  11.788  14.603 -0.3078  0.1713 -0.0114
27578W        W44425   4.702   2.322  11.970  0.1811  0.2899 -0.1724
27579W        W44426   6.107  17.594   4.127 -0.1321  0.3043  0.0659
27580W        W44427  18.012   8.556   0.074  0.1369  0.1235 -0.1888
27581W        W44428  13.579  14.002  12.800  0.2532  0.0760  0.1211
27582W        W44429   2.545  15.785   5.762 -0.2572  0.0301  0.1545
27583W        W44430   6.193   1.846  12.691  0.0956 -0.0649 -0.0514
27584W        W44431  11.932   2.738   3.329  0.3678 -0.1184 -0.0047
27585W        W44432   7.434   8.367   3.014 -0.0367 -0.1670 -0.2369
27586W        W44433   4.388  13.723   0.777 -0.1460  0.0047 -0.1147
27587W        W44434   9.945   6.757   2.558 -0.3761 -0.0256 -0.2496
27588W        W44435  10.331   7.386   3.284 -0.1256 -0.1019  0.1713
27589W        W44436  14.316   0.064   2.364 -0.1094  0.3933 -0.4941
27590W        W44437  11.550   1.318  13.970  0.0678  0.1901  0.0785
27591W        W44438   9.449   9.562   0.156  0.0131 -0.0372  0.1886
27592W        W44439   4.037   6.903   4.444  0.3474 -0.2207 -0.1191
27593W        W44440  12.945   8.116   0.265 -0.1355  0.1288  0.0389
27594W        W44441   7.145  17.311   3.964  0.1888  0.0354 -0.2452
27595W        W44442  11.431   8.601  14.192 -0.0001 -0.1050 -0.1221
27596W        W44443  11.914  13.923  11.695  0.0271  0.0108 -0.3800
27597W        W44444  16.432  16.940  13.647 -0.0652 -0.0708 -0.2275
27598W        W44445  17.707  18.055   5.321 -0.3545  0.0311  0.1296
27599W        W44446  18.477   1.086  12.710  0.2137  0.0867 -0.1364
27600W        W44447  11.528  13.650  15.909 -0.0520 -0.2469 -0.3034
27601W        W44448  17.711   1.892   1.989 -0.1816  0.0530  0.1155
27602W        W44449   7.743  10.893   1.799 -0.0344 -0.1838  0.2062
27603W        W44450   1.002   2.275  13.990 -0.1282 -0.0182 -0.0500
27604W        W44451   0.020  18.111  13.005 -0.1384 -0.0863 -0.0987
27605W        W44452   1.455   7.320   2.416  0.0554 -0.3023  0.0227
27606W        W44453   4.652   3.807  15.302 -0.1373  0.0157 -0.0235
27607W        W44454   0.660   3.167  15.225  0.0196  0.0178 -0.0122
27608W        W44455  18.045  11.598   2.061 -0.2881  0.3552 -0.2395
27609W        W44456  15.286  16.231   4.081  0.4585  0.1565 -0.0569
27610W        W44457   8.132   5.221   0.146  0.4667  0.0561 -0.0983
27611W        W44458   3.525   2.315   0.686  0.0668  0.2747 -0.2085
27612W        W44459   4.711  10.358  12.923  0.1434 -0.0148  0.1509
27613W        W44460  14.259   0.466   3.847 -0.0583  0.2297 -0.2198
27614W        W44461  13.558   3.547   4.031 -0.0290 -0.0977 -0.1799
27615W        W44462   8.362   9.751   2.888 -0.0275  0.4419  0.3511
27616W        W44463   3.276   4.352   4.481  0.1746 -0.1597 -0.0409
27617W        W44464   2.967   0.083   3.372 -0.4128  0.0571  0.0324
27618W        W44465   1.998  18.205  15.753 -0.1859  0.2440 -0.3546
27619W        W44466  16.029   4.833  14.906  0.0163  0.0610  0.0379
27620W        W44467   0.626   0.034  12.498 -0.0739 -0.0677 -0.1042
27621W        W44468   7.645  15.323  13.868 -0.0572 -0.2347  0.0601
27622W        W44469  12.384  17.679  14.380  0.4065 -0.2178  0.0461
27623W        W44470   9.289  11.618   4.575  0.1460  0.2977  0.2685
27624W        W44471   0.964   9.808   2.146 -0.0939  0.0760  0.0284
27625W        W44472   6.328  14.476   4.565  0.2116 -0.0784 -0.0012
27626W        W44473  17.105   3.153   0.951  0.1717 -0.0403 -0.1061
27627W        W44474  16.635   7.920  12.432 -0.1139 -0.0040  0.3139
27628W        W44475   8.114   6.247  12.661 -0.0421  0.2988 -0.2977
27629W        W44476   9.276  10.851   3.040 -0.2153  0.2422 -0.1593
27630W        W44477  15.928  15.933   4.806 -0.1673  0.4271 -0.3083
27631W        W44478   6.563  12.392   1.043  0.2069  0.1158 -0.0199
27632W        W44479   3.576  14.125   5.358  0.0307  0.1169  0.1151
27633W        W44480   2.782   8.438   1.855 -0.0879  0.1083 -0.1120
27634W        W44481   0.433  16.373   0.174 -0.1511 -0.0007  0.1246
27635W        W44482  18.128   1.200   4.076 -0.0293  0.0684 -0.4997
27636W        W44483  14.225   4.551   3.124  0.0350 -0.0713 -0.0207
27637W        W44484   9.432   2.194  13.942 -0.1334 -0.2513 -0.0293
27638W        W44485  15.837   1.725   0.177 -0.0100 -0.0166 -0.2382
27639W        W44486  12.861  11.745   2.936  0.3549  0.1903  0.0722
27640W        W44487   5.809  11.323   5.002  0.2974 -0.0582  0.0976
27641W        W44488   6.185   2.204  15.290  0.1642  0.1813  0.1606
27642W        W44489   4.116   5.052  10.729 -0.1598  0.1457  0.0740
27643W        W44490   8.548   2.001   1.648 -0.1350 -0.2981  0.1041
27644W        W44491  15.907   0.476  15.785 -0.1838  0.0159 -0.0126
27645W        W44492  16.880   0.464   4.009  0.1757  0.0968  0.0326
27646W        W44493  15.914   4.041   1.098  0.0594 -0.0694 -0.1358
27647W        W44494  16.920   5.474   1.398 -0.1534 -0.0970  0.1043
27648W        W44495  17.512  12.593   6.110 -0.1219 -0.1453 -0.0147
27649W        W44496   2.859  10.801   3.775  0.0548 -0.0796 -0.0582
27650W        W44497   5.666  18.242   0.124  0.2851 -0.1482 -0.0837
27651W        W44498  15.552  18.051  11.762 -0.0235  0.3791 -0.0622
27652W        W44499  13.156   8.599  11.147  0.1013 -0.1596  0.1231
27653W        W44500  17.641   3.341   1.755  0.1539 -0.2093  0.2639
27654W        W44501   2.656   9.251   2.761 -0.2627  0.0287 -0.1244
27655W        W44502   0.368   9.900   1.948  0.1629  0.0712  0.0192
27656W        W44503   6.466   1.467   2.695 -0.1038  0.0152 -0.0498
27657W        W44504   7.572  17.470   3.475  0.2988  0.2804 -0.2121
27658W        W44505  11.316  17.391   5.923 -0.1517  0.0139  0.2261
27659W        W44506   8.121   2.886   2.356  0.0131 -0.1219  0.0454
27660W        W44507   5.940   6.780  15.057  0.0224 -0.2204 -0.0158
27661W        W44508   2.602  16.385  14.212 -0.4438  0.3229  0.0423
27662W        W44509  14.837  14.241  12.145  0.0731  0.1081 -0.1247
27663W        W44510  14.960  14.378   5.916 -0.1931 -0.0697  0.1321
27664W        W44511   0.867   3.634  14.376 -0.0882  0.1772  0.1863
27665W        W44512  11.075   4.567   4.023 -0.2353  0.1068  0.0187
27666W        W44513   3.272   7.068   1.319 -0.1441 -0.0085 -0.0623
27667W        W44514   7.398  15.494   5.066  0.1080  0.0424  0.0027
27668W        W44515  11.788   6.605   4.539  0.1380  0.2234  0.1684
27669W        W44516   5.859   5.235   2.229  0.0275 -0.2513  0.0313
27670W        W44517   8.571  15.994  15.235  0.0563 -0.5793 -0.1002
27671W        W44518   2.240   9.784  14.910  0.0204  0.1552  0.2360
27672W        W44519  12.127   7.244  15.591 -0.1457 -0.2039 -0.2990
27673W        W44520  16.239   5.094  10.926 -0.1079 -0.2668  0.1900
27674W        W44521   5.639  14.582   0.303  0.1336  0.0972 -0.1452
27675W        W44522  15.497  17.514  14.944  0.1427 -0.1100 -0.0389
27676W        W44523   4.668  18.130   9.669 -0.2026  0.1899 -0.3020
27677W        W44524  13.180  12.386   1.529 -0.0627 -0.1063 -0.3076
27678W        W44525  17.394  12.286  13.069 -0.0172  0.1333 -0.1791
27679W        W44526   0.459   2.707  12.644 -0.1549  0.0028  0.3069
27680W        W44527  15.025   3.839   3.321  0.0029 -0.0443 -0.1529
27681W        W44528  15.655   9.436  12.214 -0.0497  0.0626  0.2432
27682W        W44529  11.152  16.465   0.596 -0.1704 -0.1691 -0.1117
27683W        W44530   2.494   5.800   2.725  0.3689  0.0176  0.2361
27684W        W44531   6.054   4.150  15.920 -0.5364 -0.0916 -0.1702
27685W        W44532  12.072   8.752  11.499 -0.1172  0.1557 -0.3204
27686W        W44533   0.679  17.039  11.401  0.2380  0.0731  0.0041
27687W        W44534   3.444   9.208   0.046  0.1449 -0.0285  0.2185
27688W        W44535  10.175  17.730   5.678  0.1588  0.1670 -0.1928
27689W        W44536  15.697   4.531  13.885  0.2166  0.4459  0.0286
27690W        W44537  18.311   6.483  15.537 -0.0283 -0.0074 -0.0642
27691W        W44538   8.323   9.085   4.983 -0.1489  0.3099  0.2296
27692W        W44539   6.505   3.091  11.062 -0.1831 -0.0494 -0.4064
27693W        W44540  18.246  12.487   5.451  0.2220  0.0044  0.1120
27694W        W44541  10.320   7.699  14.856 -0.1765  0.0174 -0.1030
27695W        W44542   4.793   7.319   3.693 -0.3239  0.0010 -0.1887
27696W        W44543   3.868  14.404  12.881  0.2409  0.0111 -0.1272
27697W        W44544   3.301   6.309  11.748 -0.0918  0.0737  0.1171
27698W        W44545  11.632  10.580   4.917  0.0190  0.0506 -0.0798
27699W        W44546   9.485   9.924  14.139  0.1187 -0.2228 -0.3085
27700W        W44547   4.793  14.724   1.776 -0.1012 -0.1494  0.0838
27701W        W44548  14.114   4.154  11.389 -0.3324 -0.1768  0.2612
27702W        W44549   9.827   6.397  12.117 -0.3490 -0.2339 -0.3295
27703W        W44550   5.876   6.600  15.916 -0.0570 -0.2325 -0.0179
27704W        W44551  15.493  10.010   4.972  0.0406  0.0706 -0.1007
27705W        W44552   6.278  17.368   1.539  0.0461 -0.2950  0.1666
27706W        W44553  17.822  11.308  14.470  0.2819 -0.2961  0.1036
27707W        W44554   8.775   3.979   1.669  0.2793 -0.2292 -0.1577
27708W        W44555   3.716   3.349  11.328  0.0349  0.1023 -0.0652
27709W        W44556  10.710   3.366   1.207 -0.0205  0.0053  0.0717
27710W        W44557  15.227  10.710   1.370  0.3224 -0.0299  0.0843
27711W        W44558   7.573  17.258   1.588  0.0981 -0.0648 -0.0981
27712W        W44559   8.906  17.459  13.110  0.1019 -0.0468 -0.3068
27713W        W44560  12.568   0.117   2.134  0.2332  0.0110  0.0876
27714W        W44561   6.316   3.835   0.292 -0.2655 -0.1122 -0.1512
27715W        W44562   4.705  13.469   0.496 -0.2305 -0.1154  0.0908
27716W        W44563   6.529   6.328  13.492 -0.2204 -0.1571  0.3060
27717W        W44564  16.213   6.591  12.846 -0.1964  0.0598 -0.5408
27718W        W44565   3.572   7.393  13.478  0.1348  0.2527  0.3065
27719W        W44566  12.417   6.164  12.178 -0.0716 -0.0131  0.0348
27720W        W44567   0.909  14.221   1.507  0.2657  0.2106 -0.0805
27721W        W44568   2.266   1.399  12.535  0.0808 -0.1656 -0.1335
27722W        W44569   6.934   7.052   1.353 -0.0501 -0.3852 -0.1383
27723W        W44570  10.491  11.272   1.478 -0.3133 -0.1419  0.1152
27724W        W44571   9.594   2.270   1.212 -0.0324  0.1412  0.2145
27725W        W44572   1.134   2.484  13.539  0.0640  0.0232 -0.1421
27726W        W44573   5.825   1.104  13.968 -0.4840  0.3810  0.0571
27727W        W44574  18.455  11.216  11.929  0.3941  0.2972  0.0696
27728W        W44575  15.316   6.727  12.427 -0.1013 -0.1669 -0.0488
27729W        W44576   1.398   2.782   0.594 -0.0760  0.3276 -0.1147
27730W        W44577  14.373  15.376   3.770 -0.0684 -0.0353  0.1548
27731W        W44578  12.552   8.947   2.183 -0.0880 -0.0485  0.2737
27732W        W44579   3.054   0.207  14.616  0.2729 -0.1629 -0.1102
27733W        W44580  11.722   0.815  13.178 -0.1323  0.2268 -0.1065
27734W        W44581  16.046   9.478  15.569  0.1595  0.2031  0.1722
27735W        W44582   9.234   0.099  11.791  0.2170 -0.2470 -0.2338
27736W        W44583  16.641  17.158   1.315  0.0589  0.0083  0.0139
27737W        W44584   9.839   9.273  12.201 -0.0361  0.0195 -0.1403
27738W        W44585  10.181  15.928   2.509 -0.0665 -0.0298 -0.0716
27739W        W44586  15.653  16.856  13.289 -0.2113 -0.1109 -0.1613
27740W        W44587  13.398  13.889   3.929  0.1827  0.3167 -0.0560
27741W        W44588  11.314  17.159   0.076 -0.0598  0.1158  0.3511
27742W        W44589  17.490   3.430   1.198  0.4927  0.0708  0.0284
27743W        W44590   7.316  16.007  12.270 -0.2017 -0.3310 -0.1946
27744W        W44591   2.578  12.105   3.904  0.0273 -0.1547 -0.3158
27745W        W44592   4.233  15.007   1.034  0.2023 -0.2476 -0.1040
27746W        W44593   8.852  15.730  13.451  0.0116  0.0627  0.0094
27747W        W44594  12.965   5.167  10.835 -0.1451 -0.0601  0.1428
27748W        W44595  11.345  13.104  14.241 -0.1633 -0.1455 -0.2723
27749W        W44596   6.044   0.485   4.732  0.1915 -0.0193  0.0404
27750W        W44597  10.933   3.319   0.608 -0.1408 -0.1092 -0.2072
27751W        W44598   4.737  16.220   5.004  0.1218 -0.2053 -0.1837
27752W        W44599  15.593  15.309  15.518  0.1138 -0.4442 -0.2367
27753W        W44600  12.412   0.834   4.815  0.0502 -0.0718 -0.0608
27754W        W44601   9.841   1.267   1.145 -0.0573  0.0400  0.0817
27755W        W44602   7.929   1.160   5.235  0.0113  0.2484 -0.0806
27756W        W44603   7.089   1.002   3.749  0.1365  0.2702 -0.2148
27757W        W44604   7.770  13.520  12.220  0.0346 -0.1607 -0.0083
27758W        W44605  11.414  14.885  12.054 -0.1016  0.2057  0.2481
27759W        W44606  14.497  17.490   3.651 -0.0082 -0.2112  0.2144
27760W        W44607   8.169   0.595  13.701 -0.0195  0.1857 -0.1568
27761W        W44608  18.166  11.374   2.449 -0.2502 -0.2287 -0.3769
27762W        W44609   5.832   7.073   0.922  0.1488  0.3568 -0.3023
27763W        W44610  17.199  12.139   3.930  0.1396 -0.0166 -0.0492
27764W        W44611   7.893   5.190  14.310  0.0481 -0.0979 -0.2232
27765W        W44612   8.817  12.176  13.906  0.1552 -0.0499  0.1905
27766W        W44613   3.773   4.296  12.232 -0.2545 -0.0001 -0.0433
27767W        W44614   9.937   3.612   1.214 -0.1865  0.0838  0.2004
27768W        W44615  12.118   9.620   4.275 -0.1288 -0.0631  0.1219
27769W        W44616   9.515  11.193   0.002  0.0013  0.0137 -0.2192
27770W        W44617  11.504  11.582  12.878 -0.0794 -0.1824  0.1347
27771W        W44618   0.053   2.476  12.804 -0.0623  0.0016 -0.2648
27772W        W44619  11.828  13.192   3.284  0.0248  0.1326  0.2108
27773W        W44620  13.330   1.658   1.041 -0.0533 -0.1786 -0.0649
27774W        W44621   1.087   9.024   0.016  0.1080 -0.1104 -0.1858
27775W        W44622   7.506   1.307   3.653  0.1751  0.0350  0.2617
27776W        W44623  13.161  13.026  12.268  0.1422 -0.1658 -0.1147
27777W        W44624   0.416  11.529  15.891  0.0226 -0.0197 -0.1175
27778W        W44625   6.474  13.019  14.475 -0.0417  0.1318  0.2367
27779W        W44626  11.315   9.998  14.639  0.0457 -0.4395  0.2063
27780W        W44627  11.796   8.774  15.320  0.1460  0.1764 -0.1628
27781W        W44628  12.144   0.882  12.935 -0.1699 -0.1041  0.2510
27782W        W44629   6.535   6.046  10.757 -0.2322  0.2607 -0.0541
27783W        W44630   7.438  15.139  15.198 -0.1333 -0.1189 -0.1606
27784W        W44631  11.631   1.039  12.710  0.0722 -0.3743  0.0903
27785W        W44632  18.144   1.680  11.378 -0.2639 -0.0326 -0.1063
27786W        W44633  12.710  12.151   0.659 -0.1416 -0.1400  0.0911
27787W        W44634  18.246  16.776  15.501  0.0291  0.3465 -0.2597
27788W        W44635   2.042   2.001  10.871  0.1288  0.4985  0.0464
27789W        W44636   0.808   4.615   5.322 -0.0329 -0.1872 -0.1563
27790W        W44637   1.204   7.345  15.257  0.1500  0.3133 -0.0845
27791W        W44638   6.093  13.635   1.468 -0.1130 -0.2091 -0.2385
27792W        W44639   9.496   1.409  15.164  0.2403 -0.1883  0.2196
27793W        W44640   4.164   6.819  12.533  0.1982 -0.0133  0.1007
27794W        W44641  16.011  12.145   1.903  0.2308 -0.1279 -0.2030
27795W        W44642  11.251  15.018   4.604  0.0433 -0.1150  0.1448
27796W        W44643   8.455   9.724  12.298  0.1522 -0.1390  0.0414
27797W        W44644   5.846  16.746  12.325  0.1948  0.2472  0.0237
27798W        W44645   1.072   2.000  12.763  0.2374 -0.1222  0.0459
27799W        W44646   6.498   0.168   0.168 -0.1018  0.2540  0.1798
27800W        W44647   8.100   2.516   0.804 -0.0959  0.1184  0.0891
27801W        W44648   0.553   6.935   3.578 -0.0403  0.0988  0.0604
27802W        W44649   0.022  11.944  15.813  0.2344 -0.1432 -0.3302
27803W        W44650  12.499  14.902  14.425  0.1028  0.0771  0.0122
27804W        W44651  11.581   9.569  15.619 -0.2980 -0.0824 -0.0356
27805W        W44652   7.948   4.287   2.183  0.0408  0.1397  0.1143
27806W        W44653  13.795  15.409   3.039  0.0006  0.2019  0.1034
27807W        W44654  18.193  12.603   0.630 -0.1078  0.0176 -0.2365
27808W        W44655  16.315  10.684   2.971  0.0439  0.4090  0.2913
27809W        W44656   3.169  14.456   3.152 -0.2786  0.1588 -0.0900
27810W        W44657  18.262  14.537  13.214  0.1318  0.2681  0.2759
27811W        W44658  12.238  13.822   0.856  0.0061  0.1837 -0.0352
27812W        W44659   7.559   5.074   3.542  0.1578  0.1086  0.0678
27813W        W44660   8.240   7.802   2.464 -0.0283  0.1510 -0.0480
27814W        W44661   1.063  13.892   1.820  0.0124 -0.0968 -0.0781
27815W        W44662  10.800  13.637  15.712 -0.1811  0.2733 -0.1122
27816W        W44663   5.194  16.727   0.793  0.0289  0.0839 -0.1492
27817W        W44664   4.395   0.244  15.946  0.1633 -0.0043  0.3212
27818W        W44665   2.914   4.586  12.878  0.2618 -0.2161  0.0006
27819W        W44666  13.552  11.865  13.523 -0.2313  0.1092  0.3568
27820W        W44667  14.251  14.456  13.982  0.0082 -0.0633  0.2977
27821W        W44668  11.219   1.226  15.357  0.1825  0.2685 -0.0677
27822W        W44669   3.619   9.970  15.365  0.0728  0.0896 -0.1444
27823W        W44670   7.408   0.825  13.490 -0.1485 -0.1249 -0.1739
27824W        W44671   5.179  16.572  14.551  0.0660 -0.1863 -0.2576
27825W        W44672  16.676  16.820  12.025  0.2427 -0.3062  0.0695
27826W        W44673   3.384  13.056   3.352  0.0477  0.0061 -0.0906
27827W        W44674  10.313  11.220   3.712  0.2775 -0.0295  0.1585
27828W        W44675  14.435   5.859  15.848  0.2288 -0.3807  0.2488
27829W        W44676   9.871   6.815  14.624  0.3471  0.4870  0.2200
27830W        W44677   5.821   8.615  12.420  0.0231  0.3341  0.1416
27831W        W44678  17.333   0.017   0.315  0.2599  0.4329 -0.0926
27832W        W44679   6.674   1.971   0.187 -0.1676 -0.4028 -0.2502
27833W        W44680  10.009   3.935  10.678 -0.1269 -0.0448 -0.0440
27834W        W44681   1.857   8.523  11.046 -0.4551 -0.3033  0.1652
27835W        W44682   3.981   1.355   3.967 -0.3009  0.1484 -0.0413
27836W        W44683  16.721   7.893  15.255 -0.0510 -0.0211  0.2213
27837W        W44684  15.627  12.733  11.708  0.4758  0.0082 -0.1056
27838W        W44685  15.822   3.586   1.352 -0.2478 -0.0278  0.1677
27839W        W44686   2.568  15.299   4.310  0.1779  0.0810  0.1710
27840W        W44687   0.771   0.750  13.192 -0.1653 -0.2355 -0.2378
27841W        W44688  18.465   7.160  15.392 -0.0106 -0.2175 -0.1687
27842W        W44689  17.767  10.057   0.036 -0.1426 -0.1954 -0.0622
27843W        W44690  11.336  16.156  13.695 -0.0670 -0.0825  0.1148
27844W        W44691   7.701   3.506   4.670 -0.1404 -0.1216 -0.3423
27845W        W44692  13.027   4.880  15.829 -0.0250 -0.0364 -0.2581
27846W        W44693   7.745  10.952   3.243 -0.0983 -0.1334  0.0594
27847W        W44694  13.805   5.659  12.246  0.5912 -0.2447  0.0595
27848W        W44695   6.122  18.273  14.767  0.1513  0.0944  0.0022
27849W        W44696   1.004   5.480  12.339  0.1362  0.1275  0.1293
27850W        W44697  15.958   7.825   3.060 -0.4654 -0.1635  0.1203
27851W        W44698   7.292   4.940   5.339  0.4604 -0.0767  0.2008
27852W        W44699   4.388   3.885  11.457  0.0264  0.3197 -0.1107
27853W        W44700  10.617   6.019   4.910 -0.0855  0.0160 -0.1381
27854W        W44701  15.836  10.639   3.072 -0.1987 -0.0284 -0.1234
27855W        W44702   1.600  10.579  13.621 -0.3918 -0.0841  0.0868
27856W        W44703   4.462   4.069   5.999 -0.1241 -0.1328 -0.3135
27857W        W44704  15.211   5.461  13.773 -0.2377  0.0075 -0.3463
27858W        W44705  17.764   8.767  12.225  0.5203  0.1304 -0.1992
27859W        W44706   5.846   2.521  11.563  0.0446 -0.3411 -0.0546
27860W        W44707   9.463  13.624  14.136  0.1488  0.0472  0.1376
27861W        W44708  13.138  18.122  13.812 -0.2397 -0.0686  0.3708
27862W        W44709   2.468   7.066  15.344 -0.1005 -0.1158 -0.1804
27863W        W44710   1.250  12.781   3.017 -0.2858  0.1214  0.5039
27864W        W44711  10.873  14.450  12.610 -0.0720  0.0724  0.1644
27865W        W44712   6.740  11.645  14.582  0.0493 -0.0945 -0.1807
27866W        W44713  12.193   8.213   3.887  0.1492 -0.0475  0.2112
27867W        W44714   9.362  12.775  15.202  0.0549 -0.0356  0.1489
27868W        W44715   6.836   8.898   1.635  0.1133 -0.1982 -0.0839
27869W        W44716   8.296   5.894   0.766 -0.1288  0.0738 -0.0480
27870W        W44717   1.326  15.605   5.582 -0.0799 -0.2103  0.0001
27871W        W44718  12.190   6.275   4.540  0.6013  0.0479  0.4451
27872W        W44719   1.187  15.335   2.813 -0.1786 -0.3252  0.0581
27873W        W44720  15.344  11.500   2.056 -0.1629 -0.1429  0.1283
27874W        W44721   1.371   5.046  12.536  0.2458  0.1657 -0.0898
27875W        W44722   9.834  14.706  12.185  0.1041 -0.1324  0.0446
27876W        W44723   7.927  16.703   5.866  0.0632  0.1648  0.1243
27877W        W44724  10.939   3.757   1.413 -0.0816 -0.0770  0.0969
27878W        W44725   5.261   3.116  12.162  0.3634  0.1560 -0.0634
27879W        W44726   6.543  15.976   4.678  0.2516  0.1749 -0.0941
27880W        W44727  16.234   4.998  12.167 -0.2536 -0.1090  0.0103
27881W        W44728   9.961   2.697  13.689  0.0664  0.2556  0.0189
27882W        W44729   4.543   3.965   3.931  0.0599 -0.2346  0.2422
27883W        W44730   7.075   2.639   2.515 -0.2157 -0.0418 -0.1280
27884W        W44731   4.842  12.512  14.624 -0.0884 -0.4017 -0.2248
27885W        W44732  14.796  16.881   1.763 -0.2802 -0.0382  0.2170
27886W        W44733  17.255  13.358  13.074 -0.3008 -0.0372 -0.1662
27887W        W44734  12.151   6.149  11.719  0.1834  0.2558  0.1840
27888W        W44735  14.450  15.557  15.129 -0.2744  0.1389  0.2306
27889W        W44736   2.845  12.972   4.981 -0.0506 -0.2921  0.2382
27890W        W44737  16.604   9.709   4.961  0.3738  0.1989  0.2856
27891W        W44738   6.041  18.105   2.838  0.0666 -0.0588 -0.3757
27892W        W44739  10.419  16.708  10.500  0.4034  0.1468  0.1438
27893W        W44740  18.276  17.634  15.672  0.0440  0.3739 -0.0269
27894W        W44741  15.651   1.677   4.921 -0.1258  0.1531  0.0600
27895W        W44742  14.298   1.863  15.492  0.0923  0.2741 -0.1582
27896W        W44743   9.246   4.447   4.780 -0.2512  0.3494 -0.1956
27897W        W44744  11.774   6.486   0.631  0.3852 -0.3129  0.0129
27898W        W44745  10.217   5.546  14.777 -0.0255 -0.0882  0.1105
27899W        W44746  15.052   3.377  13.507  0.0125  0.1651  0.2225
27900W        W44747   4.540   4.488   2.039  0.4880 -0.3404 -0.2569
27901W        W44748   2.326   1.642   4.824 -0.0020 -0.0132 -0.2129
27902W        W44749  15.437   2.363  12.704  0.0025  0.1256 -0.1171
27903W        W44750  16.407  10.106  11.931 -0.1229 -0.0569  0.1045
27904W        W44751  12.334   3.474  13.070  0.0170 -0.3136 -0.0622
27905W        W44752   2.599  10.375   2.458  0.3029  0.4106  0.2141
27906W        W44753  10.373   1.789   5.045  0.2488 -0.0037  0.2492
27907W        W44754   5.402   0.677  11.507  0.1509  0.0140  0.2504
27908W        W44755   0.078  15.211   2.624 -0.1824 -0.1040 -0.0337
27909W        W44756  12.490  16.053   4.701  0.3327  0.0257  0.0701
27910W        W44757  15.057   4.348   1.376 -0.2059 -0.1042 -0.0876
27911W        W44758   8.238  16.689   5.077 -0.2232 -0.1319  0.2166
27912W        W44759   8.309   9.679   5.569  0.3284 -0.1681 -0.3791
27913W        W44760  14.742   8.048   0.227  0.1253  0.1795  0.2535
27914W        W44761  13.602  10.847  12.107  0.0266 -0.0922 -0.0041
27915W        W44762   8.742   0.897   1.354  0.2162 -0.2637 -0.1752
27916W        W44763   1.892  15.839   4.816  0.1003 -0.1339 -0.1295
27917W        W44764  13.538  18.090   1.515 -0.1910 -0.1409 -0.2598
27918W        W44765  12.059  13.200  15.030 -0.0370 -0.2078 -0.2945
27919W        W44766  15.467   2.992  13.969  0.2141 -0.1636  0.0812
27920W        W44767  14.331  11.059   4.740  0.2230  0.1116  0.2779
27921W        W44768  13.348   7.030  13.132 -0.0763 -0.1995  0.1031
27922W        W44769   6.758   3.524  11.872 -0.2269 -0.2065  0.4155
27923W        W44770   1.371  11.925   1.783 -0.0463  0.2030 -0.1773
27924W        W44771  17.013  14.262   5.298 -0.0051 -0.2423 -0.0578
27925W        W44772   8.505   5.771   1.225  0.1844 -0.1290 -0.0630
27926W        W44773   0.839  11.171  14.035  0.1992 -0.0226  0.3006
27927W        W44774  12.032  15.114  13.137  0.1075 -0.0194 -0.1141
27928W        W44775   0.399  18.153   2.518 -0.0183 -0.2295 -0.0267
27929W        W44776   3.223   5.280   1.095 -0.1063  0.2540  0.0002
27930W        W44777  14.657   1.588  11.391 -0.0217 -0.1182 -0.1095
27931W        W44778  10.207  11.677   1.185  0.0652 -0.2152  0.1471
27932W        W44779  16.022  15.967  14.236  0.2294  0.0193 -0.5453
27933W        W44780   0.568   2.454   1.293  0.0153  0.0426 -0.0528
27934W        W44781   0.559   4.638  14.883  0.0452 -0.0949  0.1269
27935W        W44782   0.171  12.271   5.470  0.0819  0.0075  0.0956
27936W        W44783  11.675  10.976  13.487  0.0817  0.3379 -0.2139
27937W        W44784  17.171  10.096   4.100  0.1124  0.0629 -0.1550
27938W        W44785  10.423   3.192  12.326 -0.1083  0.0541 -0.1137
27939W        W44786   4.333  10.471  15.250 -0.0711 -0.1515  0.1124
27940W        W44787   1.588  14.193  14.058 -0.1834 -0.1264 -0.2817
27941W        W44788  14.244  11.463  13.910 -0.0274  0.0426 -0.1125
27942W        W44789   7.817   4.620  13.141 -0.2771  0.0913 -0.0680
27943W        W44790   5.563  16.196  11.689  0.1147 -0.3426  0.0954
27944W        W44791  10.165  14.826   3.627  0.1942 -0.2216 -0.0537
27945W        W44792   8.069   2.457   2.112 -0.2335 -0.0282  0.2015
27946W        W44793   1.183  10.365   4.417  0.1291 -0.0367  0.0690
27947W        W44794   5.455   3.981   4.152  0.0327 -0.1742  0.0031
27948W        W44795   2.742   1.875   3.723  0.2071 -0.0206  0.1104
27949W        W44796  11.400   6.465  12.191 -0.0004 -0.1993  0.1331
27950W        W44797   2.138  16.680  13.456  0.0969  0.2724  0.1934
27951W        W44798  15.445  11.833   3.552 -0.5400 -0.0430  0.2633
27952W        W44799  10.446  10.426   0.526 -0.1415 -0.0918 -0.0841
27953W        W44800   4.961  13.655   0.132  0.0294  0.0135 -0.1345
27954W        W44801  17.518  11.054   4.832 -0.3740  0.2515 -0.2707
27955W        W44802   6.294  12.086  11.869 -0.0664  0.0295  0.0881
27956W        W44803  15.434   3.861   0.041  0.0586 -0.2118 -0.1334
27957W        W44804  13.405   4.658   1.577  0.0365  0.1637  0.2036
27958W        W44805  12.369   1.476   1.191  0.1884  0.1729  0.0738
27959W        W44806   2.146   7.131   0.290  0.2602 -0.0872  0.0561
27960W        W44807   5.581   5.442   5.439  0.0695 -0.1307  0.1131
27961W        W44808  13.171  10.447   2.821 -0.2620  0.1079 -0.1830
27962W        W44809   1.541  13.368   2.427 -0.0527 -0.1485 -0.1768
27963W        W44810  17.632   8.964   4.728 -0.1154 -0.1725 -0.2346
27964W        W44811   7.380  14.362  13.752 -0.0627 -0.0279 -0.0237
27965W        W44812  10.498   7.073  14.697  0.2032 -0.1059 -0.4228
27966W        W44813  12.788  15.590   1.489  0.0215 -0.0354  0.0958
27967W        W44814   6.908  11.932   2.688 -0.0338  0.1309  0.1947
27968W        W44815  12.894  15.072  12.898  0.1191  0.3607  0.3743
27969W        W44816  17.400  10.851   2.228 -0.2145  0.0956 -0.3125
27970W        W44817  17.235   5.584   0.222  0.0999  0.3386  0.2853
27971W        W44818   3.082   2.491  12.565  0.0936  0.4097 -0.0229
27972W        W44819   1.776   6.991   2.673  0.1411 -0.2132 -0.1157
27973W        W44820   6.967   2.887  13.891 -0.0186  0.0133  0.2510
27974W        W44821   5.153   9.601  14.582  0.0439 -0.0724 -0.0602
27975W        W44822   0.072   3.570  15.362 -0.2079 -0.0067  0.0647
27976W        W44823  14.387  13.530   6.022  0.0436 -0.0321 -0.1287
27977W        W44824  10.768  13.488  14.188 -0.5249  0.3052 -0.1686
27978W        W44825   3.380   5.671   1.969  0.0590 -0.2430  0.1176
27979W        W44826   0.730  18.233  13.011  0.1923  0.1397 -0.2484
27980W        W44827  13.737  12.466   2.591 -0.1900 -0.0610  0.0673
27981W        W44828   4.180   7.472   4.418 -0.1099 -0.0549  0.1116
27982W        W44829  10.921  17.688   2.331  0.2444 -0.0889 -0.1140
27983W        W44830  11.356  17.841  15.250  0.1854 -0.0181 -0.1691
27984W        W44831  11.758   5.210  14.148  0.2193 -0.0905  0.4378
27985W        W44832   6.030   2.418   5.470  0.0456 -0.0662 -0.3312
27986W        W44833  11.887   9.456   3.513  0.0173  0.2558 -0.1245
27987W        W44834   5.709   6.051   2.261  0.1137 -0.1484  0.0266
27988W        W44835  13.664  14.647  13.623 -0.0131  0.1794 -0.0931
27989W        W44836  14.778  11.570  13.037 -0.0772  0.0675  0.0048
27990W        W44837   5.619  17.798  11.524 -0.3287  0.1087 -0.0221
27991W        W44838  11.577   0.162  15.551 -0.1437  0.0204 -0.0644
27992W        W44839   9.637  14.108   3.206 -0.0158  0.0718  0.1983
27993W        W44840   0.050   5.473  15.543 -0.0731 -0.4130  0.1916
27994W        W44841   9.602   1.347   2.401  0.0536  0.0641  0.2315
27995W        W44842   5.233   5.593   3.800  0.0348 -0.2598 -0.1689
27996W        W44843  14.375   5.936  10.780 -0.0137 -0.1668  0.0451
27997W        W44844   2.718   9.409   0.634 -0.1198  0.1760 -0.2121
27998W        W44845   0.010   8.110  11.959 -0.3922  0.0640  0.2330
27999W        W44846   7.593  10.531   4.501  0.0692 -0.2172  0.0075
28000W        W44847  17.068  11.743   5.307  0.3167  0.0841  0.1914
28001W        W44848   7.699   0.645   3.184  0.1521  0.0469 -0.0340
28002W        W44849   8.636   5.648  13.697  0.1526  0.1395  0.1343
28003W        W44850  15.830   8.477   1.476 -0.3214  0.1842 -0.0222
28004W        W44851   7.918  14.553  13.579  0.1525  0.3499 -0.0392
28005W        W44852   1.215  18.009   0.425 -0.0222  0.2383  0.4201
28006W        W44853  15.160   5.625  14.721 -0.0070 -0.0175  0.3249
28007W        W44854   7.098  11.278   0.917 -0.3175 -0.1458 -0.1081
28008W        W44855   2.835   2.624   0.060  0.0641 -0.2926  0.1049
28009W        W44856   1.678  14.666   0.822  0.2322 -0.1026 -0.2052
28010W        W44857   1.449   1.961   3.208  0.2480 -0.0325 -0.1071
28011W        W44858   8.077  15.861  15.629  0.2576 -0.1808  0.0471
28012W        W44859  17.904   1.338   4.543  0.0073 -0.0465 -0.0872
28013W        W44860   9.734   5.872  13.028 -0.0955  0.0122 -0.1117
28014W        W44861  17.452   0.678   1.525 -0.0811 -0.1355 -0.1373
28015W        W44862   2.134   3.441  13.619 -0.0701  0.0692  0.1062
28016W        W44863   0.661   1.069   5.124 -0.1555  0.0807 -0.3968
28017W        W44864  15.692   3.279   3.850 -0.0127  0.1714  0.1283
28018W        W44865   9.255   8.911  13.699  0.2035  0.2571 -0.2905
28019W        W44866  16.603   0.292  14.925 -0.0773 -0.2547  0.0425
28020W        W44867  10.537   4.652   0.791 -0.1913  0.1983  0.1854
28021W        W44868   3.728   8.573  12.216  0.3235  0.0686 -0.0689
28022W        W44869  15.990   0.715   1.367 -0.0179 -0.0842  0.1325
28023W        W44870  11.683   8.134  14.028 -0.1155 -0.1295  0.4425
28024W        W44871  15.155   7.603  14.868  0.2135 -0.0999  0.0195
28025W        W44872  11.497   0.608   0.642  0.0661 -0.0278  0.0964
28026W        W44873  18.405   2.065  14.163 -0.1484  0.4574 -0.0533
28027W        W44874   3.709  16.607   5.045  0.0307  0.1795 -0.1655
28028W        W44875   9.511  13.323  12.280 -0.0498  0.3946 -0.2574
28029W        W44876   4.955   7.571  14.667  0.1333 -0.0627  0.2325
28030W        W44877   3.909   4.732  13.987  0.3467 -0.3209  0.1213
28031W        W44878   2.473  10.717   0.470  0.0887  0.0992 -0.1498
28032W        W44879  18.058   0.371  14.493  0.1415  0.1573  0.1522
28033W        W44880  15.795  15.717  13.848  0.2112 -0.0422 -0.1448
28034W        W44881   1.486  11.002   1.283  0.3626  0.0693  0.0442
28035W        W44882   4.613  16.481  12.348 -0.1693  0.1259 -0.1293
28036W        W44883   7.536   3.090  10.814  0.0919  0.0508 -0.1615
28037W        W44884  13.507  12.737   3.289 -0.1428 -0.0166 -0.1771
28038W        W44885   4.435  16.157   2.297  0.0905 -0.0112 -0.2184
28039W        W44886   2.560  14.980  12.121  0.1517 -0.1460  0.0967
28040W        W44887  13.048   5.862   4.047  0.2745 -0.1379  0.0829
28041W        W44888   4.732  17.885  11.401 -0.1133  0.0137 -0.2069
28042W        W44889   0.362   1.897   5.713  0.2915  0.2224  0.1779
28043W        W44890   1.542   6.857   4.464 -0.1256  0.2241 -0.0960
28044W        W44891  10.834  17.571   4.714  0.2220  0.0327  0.1920
28045W        W44892  12.206  16.951  11.788 -0.0428 -0.0408 -0.0140
28046W        W44893  17.502   9.480   3.342 -0.0072 -0.0628  0.0422
28047W        W44894  16.153   2.019   1.970 -0.1071  0.1372  0.0404
28048W        W44895  18.003   9.695  12.194  0.0155 -0.1444 -0.1836
28049W        W44896  14.752  13.683  12.135 -0.2054 -0.1405  0.0382
28050W        W44897  14.987  16.223  15.476 -0.0550 -0.0002  0.0353
28051W        W44898   9.717  14.299   2.616 -0.0629 -0.0126  0.0482
28052W        W44899  13.860   3.414   2.588 -0.1154 -0.1299 -0.0333
28053W        W44900   9.045   7.613   4.510  0.3777 -0.2430  0.1647
28054W        W44901   0.585   9.284   1.795  0.1535 -0.3381 -0.1076
28055W        W44902   1.681   8.774   5.585 -0.3353  0.1835 -0.3046
28056W        W44903   4.018   4.461  15.145  0.1104 -0.0601 -0.1201
28057W        W44904  14.150  15.895  11.462 -0.0843  0.1535  0.0280
28058W        W44905  17.714   3.091  11.194 -0.2667  0.1950 -0.0887
28059W        W44906  12.981   4.359   4.494  0.0703 -0.0610 -0.1432
28060W        W44907   1.145  10.728  12.654  0.4676  0.1861  0.1171
28061W        W44908  14.834  12.215   5.122 -0.0054 -0.4199 -0.1414
28062W        W44909  13.772  11.252  14.263  0.2940  0.0443 -0.1865
28063W        W44910   4.533  14.889   3.040  0.3076 -0.1061  0.1126
28064W        W44911   4.663   2.615   0.190 -0.1674  0.0755 -0.3011
28065W        W44912   7.940   5.620   1.129  0.0599 -0.1675  0.1740
28066W        W44913   1.504  14.511  15.831 -0.2046 -0.1963  0.1258
28067W        W44914   7.244   9.222  15.203 -0.1137  0.1089  0.0387
28068W        W44915   1.384   9.347  14.942 -0.0833  0.0176  0.2659
28069W        W44916  12.045   1.179   3.285  0.3066 -0.4113  0.0726
28070W        W44917  12.661   9.632   2.510  0.0373  0.0299  0.0385
28071W        W44918   1.779   0.699  11.206  0.2678  0.1758 -0.3673
28072W        W44919  13.718   1.067   0.128 -0.0901 -0.2106  0.0135
28073W        W44920   0.675  15.949   2.194 -0.0311 -0.2585 -0.2557
28074W        W44921   2.447   0.554  10.604  0.1293 -0.0777  0.0671
28075W        W44922  18.522  12.331   2.230 -0.0476  0.0273 -0.1285
28076W        W44923   0.365   1.010  15.401  0.2938  0.2342 -0.3408
28077W        W44924   7.446  17.604   4.466  0.0894 -0.0598  0.0013
28078W        W44925   4.796   1.333  11.936 -0.0543  0.2900 -0.1271
28079W        W44926   0.548  12.700   5.526 -0.4311 -0.0587 -0.2103
28080W        W44927   7.534   0.940  15.751 -0.0276 -0.2309  0.3267
28081W        W44928   3.119   6.940  13.683  0.1644  0.1260  0.2384
28082W        W44929  17.240   7.518   0.450 -0.1747 -0.1347 -0.0560
28083W        W44930  10.320   3.554   0.885  0.3096  0.2616  0.0200
28084W        W44931  15.795   7.796  11.066  0.0608  0.0227  0.4086
28085W        W44932   5.602   5.769   4.675 -0.1789 -0.0618 -0.1177
28086W        W44933   9.455   1.730  11.795  0.1949  0.0741  0.0129
28087W        W44934   9.298   6.978  11.550 -0.0274 -0.1236 -0.3253
28088W        W44935   8.889   8.776   1.352 -0.0715  0.1354 -0.3405
28089W        W44936   9.573   7.009   5.611 -0.0794  0.1231 -0.1687
28090W        W44937   1.676  18.210   1.574  0.1910 -0.0513  0.0805
28091W        W44938  15.726  14.918   3.710 -0.4166  0.2404  0.2481
28092W        W44939  16.097  10.347   1.072  0.2929 -0.2003  0.1259
28093W        W44940   2.790   0.196  15.560 -0.0399  0.2008 -0.3505
28094W        W44941   5.051   7.114  11.475 -0.0400  0.0744  0.1119
28095W        W44942   2.355   1.315   0.565  0.2314  0.0796 -0.0101
28096W        W44943  13.608   9.656   2.023  0.2196  0.0795  0.2862
28097W        W44944  11.362  15.741   2.340 -0.0288  0.3961 -0.0356
28098W        W44945  10.771   7.522  13.915 -0.0440  0.1695  0.0044
28099W        W44946   1.425  15.696   1.135  0.1402  0.0178 -0.0882
28100W        W44947   5.867   5.501  15.148 -0.5399 -0.2569  0.3398
28101W        W44948  16.495  13.127   0.802  0.0040 -0.1527 -0.1758
28102W        W44949   8.556   0.906   3.871  0.0796 -0.0624  0.1630
28103W        W44950  17.655   7.462  11.960  0.2039  0.0388 -0.3106
28104W        W44951  10.800  12.931   2.438 -0.1279  0.0269  0.1652
28105W        W44952   5.410  12.096   2.624  0.0902  0.0287  0.1041
28106W        W44953  12.122   7.897  15.794  0.0747  0.0127  0.2436
28107W        W44954  17.437   4.671  13.885  0.0784  0.1342 -0.0714
28108W        W44955   9.527   6.112  10.862 -0.1128 -0.0584  0.0562
28109W        W44956  18.292  11.901   2.392  0.2502  0.1201 -0.0269
28110W        W44957  16.065   5.876  11.696  0.0111  0.2903  0.1884
28111W        W44958   0.401  10.043   2.981 -0.0990  0.1614 -0.0667
28112W        W44959  12.871   2.216  13.682  0.3038  0.0934  0.2617
28113W        W44960   3.295  13.655  12.019  0.0725 -0.2785 -0.2636
28114W        W44961  13.128  14.350  13.407 -0.1991  0.1401  0.3354
28115W        W44962  11.644  16.988   2.276  0.2311  0.0634  0.0202
28116W        W44963   4.140   8.766  11.761 -0.2527  0.2719  0.0785
28117W        W44964   9.365  15.753  15.303 -0.1327 -0.0344  0.1130
28118W        W44965  13.894   6.451   3.786 -0.0487 -0.1615 -0.3723
28119W        W44966  13.266   8.301   2.462  0.0614  0.0550 -0.0370
28120W        W44967  11.492   3.162   3.423 -0.0298  0.1650 -0.1226
28121W        W44968   8.483  11.383  14.371 -0.2177 -0.1888 -0.0094
28122W        W44969   1.829   7.495  11.972 -0.0283 -0.0646  0.2677
28123W        W44970  16.319   0.226  15.573  0.0619  0.1806 -0.3159
28124W        W44971   6.344  13.255   3.467  0.6303 -0.3364 -0.1879
28125W        W44972  10.133  13.820  10.225  0.2459 -0.0328  0.2479
28126W        W44973   2.589   9.998  11.908 -0.0225 -0.0394  0.3019
28127W        W44974  16.727  11.416   2.036 -0.1910 -0.0669 -0.1209
28128W        W44975   9.024   9.815  15.195 -0.0443 -0.2601 -0.3455
28129W        W44976   2.167   8.800  14.126 -0.3650  0.1046  0.2526
28130W        W44977   8.613   4.393   2.888 -0.0388 -0.0752  0.1450
28131W        W44978   1.642   7.918  11.817 -0.1943 -0.3637 -0.0455
28132W        W44979   6.076   2.314   1.267 -0.5016  0.0577 -0.2988
28133W        W44980   6.659   8.529  14.172  0.1616  0.3271 -0.0646
28134W        W44981   1.043   6.547   4.298  0.1993  0.0496 -0.0043
28135W        W44982   1.774  12.853   1.147 -0.0541  0.5023 -0.0035
28136W        W44983   9.665  15.578   4.754 -0.2765  0.1072 -0.0605
28137W        W44984   8.230  14.511   1.931 -0.2438 -0.0887 -0.2538
28138W        W44985   4.152   1.453  12.454 -0.1974 -0.0354 -0.0339
28139W        W44986   6.336   0.088  13.044  0.0025  0.2998 -0.1321
28140W        W44987  15.893  11.764   4.313  0.0735 -0.0570  0.3506
28141W        W44988  14.014   5.054  14.261 -0.0535  0.0103  0.2102
28142W        W44989   9.996   5.806  12.624 -0.4341 -0.2386 -0.0403
28143W        W44990  14.217  10.174   5.202 -0.0421  0.0430  0.0800
28144W        W44991   2.856   8.051  14.216  0.0615  0.1193 -0.3545
28145W        W44992   6.996  16.441  11.271 -0.0821  0.2662 -0.4075
28146W        W44993   6.162   2.619  10.862 -0.2793 -0.1909  0.0241
28147W        W44994   8.259   6.774   4.319  0.3712 -0.2524 -0.0663
28148W        W44995   1.356   3.563  15.508  0.3932  0.2909  0.2391
28149W        W44996  16.756  10.396   4.178  0.5059  0.0335  0.1721
28150W        W44997   1.232  16.413   3.338  0.1840  0.1788 -0.0539
28151W        W44998  11.631  11.141   2.512 -0.1793 -0.3292  0.3152
28152W        W44999  14.144  10.012   4.599  0.0078 -0.2529 -0.1690
28153W        W45000  14.567  15.901  15.642  0.1944 -0.1790 -0.4161
28154W        W45001   0.303  15.603  13.474  0.2179  0.5547 -0.0729
28155W        W45002   9.534  13.565   3.937  0.0369  0.2183  0.3293
28156W        W45003  17.925  10.673   0.159 -0.1278  0.0651  0.2983
28157W        W45004   0.552   6.239   1.853  0.1944 -0.0294  0.1687
28158W        W45005   9.890   3.566   3.492  0.5269 -0.1814 -0.2109
28159W        W45006  10.481   5.956  11.340  0.1949  0.1551 -0.0868
28160W        W45007   7.742  15.625   2.765 -0.1517 -0.2438  0.0713
28161W        W45008   4.778  10.987  14.660  0.0675 -0.0488  0.0155
28162W        W45009   8.137   9.191  11.350 -0.0051 -0.1712 -0.0313
28163W        W45010   0.730   1.939   3.971 -0.0244  0.0864  0.1885
28164W        W45011  16.261   2.210  11.816 -0.2526 -0.2674  0.1157
28165W        W45012   4.790  14.539   2.763 -0.0781 -0.3113  0.1553
28166W        W45013   8.478  11.392   2.138  0.3266 -0.0946 -0.1042
28167W        W45014  10.062  16.714  12.225 -0.5618 -0.1198 -0.3442
28168W        W45015   5.135   8.494   5.217  0.0729  0.0170 -0.1459
28169W        W45016  16.246   6.717   0.249 -0.2531 -0.2214  0.2847
28170W        W45017   9.392  15.967   3.697 -0.0619  0.0762 -0.1793
28171W        W45018  16.368  17.997   1.991  0.2318  0.1455  0.0133
28172W        W45019  14.575   8.105   1.996  0.0989 -0.2806  0.0621
28173W        W45020   7.222   9.235   1.547  0.0775 -0.1599  0.1174
28174W        W45021   0.837   8.990   5.145  0.2460  0.0716 -0.3005
28175W        W45022   8.012   4.999   1.060  0.0792 -0.2827 -0.0411
28176W        W45023   6.848   6.850   4.002  0.0050 -0.3143 -0.0337
28177W        W45024  15.718   2.390   4.658  0.2431  0.0890  0.0058
28178W        W45025  14.538   1.573   0.436  0.3802 -0.0379 -0.0839
28179W        W45026  13.149  12.583  10.697 -0.2191  0.0923  0.1930
28180W        W45027   7.206   8.337   1.783 -0.0940 -0.2978 -0.1121
28181W        W45028   8.379  13.768   5.523  0.3933 -0.2880 -0.0498
28182W        W45029   4.358   1.211  12.841  0.1833 -0.0325 -0.1954
28183W        W45030   0.649   7.156   3.053 -0.1912 -0.1225  0.1181
28184W        W45031   7.857  16.867  15.315  0.0216  0.0496  0.0196
28185W        W45032   4.465  13.631   3.743  0.0724 -0.0388  0.1224
28186W        W45033   3.330   4.421   1.077 -0.2166  0.0241 -0.1512
28187W        W45034  13.725   2.177   5.528 -0.0601 -0.2171  0.2768
28188W        W45035  14.724  10.758   1.077  0.2733 -0.0782 -0.0311
28189W        W45036  11.881  17.499   4.759 -0.2373  0.2127  0.3265
28190W        W45037  12.499  18.149  14.600  0.1152  0.2317 -0.0180
28191W        W45038   2.911  14.951  13.635 -0.0937  0.1323  0.2363
28192W        W45039   2.494  12.897   0.448  0.4266 -0.0711 -0.0807
28193W        W45040  11.785   4.175   0.961  0.1622 -0.1678 -0.0443
28194W        W45041   3.030  12.031   3.476  0.0677  0.1147 -0.1795
28195W        W45042   4.533  11.054   4.250 -0.1121  0.0043  0.2634
28196W        W45043  10.600  15.821   5.053  0.0658  0.0427 -0.0568
28197W        W45044  15.993  13.589   6.301  0.1528  0.0673 -0.1366
28198W        W45045  13.881   5.380  13.885  0.1796  0.1165  0.1832
28199W        W45046  18.346  12.987   2.920 -0.0976 -0.2594 -0.1159
28200W        W45047  16.822   6.375  13.905 -0.2100 -0.1245 -0.0179
28201W        W45048  11.937   4.725   1.541 -0.1810  0.1515 -0.1546
28202W        W45049  13.367  14.408   4.429  0.0532 -0.0852 -0.0007
28203W        W45050  11.963   0.507   2.069  0.0587 -0.0276 -0.2558
28204W        W45051  11.806  12.663  13.719 -0.1765  0.0562 -0.0997
28205W        W45052   9.487   7.247   1.485  0.1576 -0.0388 -0.1849
28206W        W45053   4.110   1.174   2.132 -0.1650  0.1148  0.0372
28207W        W45054  16.686   5.588  15.006  0.0924 -0.3974  0.1353
28208W        W45055  13.075  15.209  12.002  0.0891  0.1270 -0.0094
28209W        W45056  13.741   0.672   5.158 -0.0588 -0.0835  0.0381
28210W        W45057   0.191  10.586  14.447 -0.2786 -0.0362 -0.2278
28211W        W45058  11.603  10.252   3.378  0.0873 -0.1128  0.0481
28212W        W45059  11.905   1.384  11.294  0.1136  0.3076  0.2182
28213W        W45060   9.040  14.672   5.518 -0.0559  0.0733 -0.2285
28214W        W45061  17.603   6.185   3.636 -0.2602 -0.0745  0.0173
28215W        W45062   3.430  17.340  14.941  0.1872  0.0761  0.0485
28216W        W45063  15.937  12.551  14.154 -0.3872 -0.3884 -0.0256
28217W        W45064  16.728  15.343   1.619  0.2879 -0.2342  0.2195
28218W        W45065   6.347  10.622   0.711  0.1155  0.0272  0.1054
28219W        W45066  11.513  17.455   0.999  0.0618  0.3895  0.0069
28220W        W45067   0.297   0.699  15.812  0.1523 -0.1549  0.0899
28221W        W45068   2.244   9.043   4.386 -0.1974  0.3103 -0.6672
28222W        W45069   2.371  11.818   5.552  0.3123 -0.2110 -0.0906
28223W        W45070   4.795  13.653   2.545  0.1566 -0.0382 -0.1085
28224W        W45071  13.983   9.521   4.510 -0.0485  0.0127  0.0458
28225W        W45072   5.391  10.493   4.916 -0.1470  0.3333 -0.2092
28226W        W45073   0.601  15.011  12.847 -0.1077  0.2289 -0.3447
28227W        W45074   9.331  13.630  15.194 -0.1697  0.1914 -0.0770
28228W        W45075   9.063   6.777  14.460  0.1351 -0.0179  0.3455
28229W        W45076   2.632   6.544   0.288  0.0390 -0.0236 -0.0529
28230W        W45077  11.515   1.111  11.032  0.1359 -0.2025 -0.1204
28231W        W45078   0.838  17.223   2.532  0.2061  0.1795 -0.2188
28232W        W45079  18.000  12.791   1.601 -0.2572  0.0230  0.1529
28233W        W45080  11.706  13.827   5.110 -0.2163  0.0124  0.5432
28234W        W45081  18.010  16.402   2.882 -0.0588 -0.1479  0.0329
28235W        W45082  12.272  16.281   2.434  0.0383 -0.2534  0.2835
28236W        W45083  11.222  13.867  15.556  0.1323 -0.0140  0.0194
28237W        W45084   8.708  17.672   5.007 -0.2724  0.0492  0.2778
28238W        W45085   4.621  16.777  14.775  0.2117 -0.0255  0.1044
28239W        W45086   5.351   9.311  14.933 -0.0528 -0.0366 -0.2434
28240W        W45087   5.138   8.100  12.349  0.1982  0.2585 -0.2372
28241W        W45088  15.796  18.455   2.774  0.2719 -0.1969  0.0807
28242W        W45089   7.926  12.272   1.991 -0.1724  0.1088 -0.0979
28243W        W45090   3.440   0.939  10.543  0.0535  0.0580  0.0115
28244W        W45091   6.842   0.032   3.388  0.0744 -0.0379  0.1206
28245W        W45092  12.692  13.531  13.298  0.0311  0.3112  0.1392
28246W        W45093  17.734  14.788   3.375  0.0664  0.1966  0.1242
28247W        W45094  17.341   7.721   1.843  0.0846 -0.1125 -0.1852
28248W        W45095  11.738  16.508  13.770  0.3057  0.0627  0.1710
28249W        W45096  10.023  15.465   5.102 -0.1707 -0.0664 -0.4363
28250W        W45097   0.265  15.080  11.450 -0.1252  0.4068  0.1530
28251W        W45098   7.690   5.555   1.669  0.2032 -0.0300  0.0187
28252W        W45099  11.483   5.109  12.277 -0.2886  0.0229 -0.1676
28253W        W45100  17.795   3.558  15.387 -0.0832 -0.0297 -0.0276
28254W        W45101  16.278   8.715  15.271 -0.3718  0.2414 -0.1192
28255W        W45102   3.414   2.499   3.869  0.0394  0.0255  0.2605
28256W        W45103  17.515   3.296  13.031  0.2646  0.0012 -0.1539
28257W        W45104   0.799  15.604   3.035 -0.0151  0.1468 -0.1844
28258W        W45105  15.485  16.574   5.908  0.1457 -0.0352  0.0725
28259W        W45106   2.876  11.194  14.084 -0.0282 -0.0542 -0.3492
28260W        W45107   5.713  13.982  13.946 -0.5914 -0.0775 -0.0164
28261W        W45108  13.791  14.568   5.210 -0.0341 -0.0202 -0.1641
28262W        W45109   9.561   8.510  14.016  0.0253 -0.2093 -0.2833
28263W        W45110  11.915   4.152  11.308  0.1606  0.0618 -0.1369
28264W        W45111  17.726   5.347   0.326  0.1108  0.1719 -0.0567
28265W        W45112  11.881  14.213   4.893 -0.3054 -0.0407  0.0025
28266W        W45113   5.401   2.688   1.884 -0.3355  0.2309 -0.0494
28267W        W45114  12.452  15.108  12.612 -0.0375  0.2685 -0.1642
28268W        W45115  18.425  10.982   5.393  0.1054 -0.0080 -0.1048
28269W        W45116  12.687   2.817  15.116 -0.1553 -0.0033 -0.1760
28270W        W45117  16.869   9.721  14.456 -0.0328 -0.0930 -0.1115
28271W        W45118  12.113   4.942  10.377 -0.2012 -0.1091  0.1106
28272W        W45119   5.850  17.025  11.771 -0.2905 -0.0417  0.0516
28273W        W45120  16.342   7.047  11.387 -0.1072  0.0688  0.4376
28274W        W45121   3.499   9.154   2.388  0.1027  0.2821  0.1791
28275W        W45122  14.837   4.360   1.998  0.0500 -0.5363 -0.1304
28276W        W45123  15.489   5.941   4.101 -0.2007 -0.1633  0.0681
28277W        W45124   7.930   1.579   4.946 -0.1587 -0.1724  0.1273
28278W        W45125  17.945  15.658   6.114  0.0027 -0.2984 -0.1725
28279W        W45126   0.134  11.314  15.077 -0.1002  0.2246  0.0353
28280W        W45127  12.083  12.878  14.580 -0.1668  0.3454  0.0705
28281W        W45128   5.772   9.181  14.042  0.1857  0.1537 -0.1744
28282W        W45129   6.940   4.242   3.352  0.0673 -0.0416 -0.1315
28283W        W45130   3.138  15.522  13.747 -0.3435  0.3213  0.1672
28284W        W45131   3.177   1.842  12.020  0.0639  0.0681 -0.1424
28285W        W45132   7.541  17.648  10.517 -0.0821 -0.0328 -0.2084
28286W        W45133   5.771  11.579   3.590 -0.1227 -0.3107  0.2486
28287W        W45134  18.319   7.042  11.445  0.3148 -0.2955  0.1708
28288W        W45135   9.686   9.282  13.835 -0.1247 -0.0849 -0.0545
28289W        W45136   3.318  15.804  15.403  0.1739 -0.0629  0.1493
28290W        W45137  15.561   3.991   5.041 -0.0820 -0.1191 -0.2063
28291W        W45138   5.100   1.359   5.212 -0.1638  0.0168 -0.0966
28292W        W45139   1.134  13.776  13.457  0.0699 -0.1580  0.0601
28293W        W45140   1.859   3.609   2.561 -0.0465 -0.0088 -0.0721
28294W        W45141   0.881  12.838   1.938  0.0455 -0.0566 -0.3665
28295W        W45142  18.460   6.132  11.637 -0.0524 -0.2780  0.3009
28296W        W45143  13.581  10.453   4.023  0.1866 -0.1290 -0.2081
28297W        W45144   0.026   4.456  14.974 -0.0191  0.0212  0.1556
28298W        W45145   4.110  15.469   1.219  0.1392  0.0575 -0.1354
28299W        W45146  13.130   9.856   3.701  0.0692 -0.2899  0.0472
28300W        W45147  13.530  10.883  13.432  0.2250  0.0117  0.1858
28301W        W45148  16.621  11.993   3.159 -0.1699  0.1821  0.2322
28302W        W45149   7.332  16.371   4.167  0.1070 -0.0401  0.1005
28303W        W45150   4.999  10.010   0.599 -0.2488 -0.1092 -0.1944
28304W        W45151   7.808  10.662   4.089  0.2047 -0.1116 -0.1150
28305W        W45152   5.924  12.277  12.256  0.0572  0.1476 -0.0551
28306W        W45153   1.730   3.935  13.545 -0.1326  0.1543  0.0012
28307W        W45154  15.788   3.416   0.884 -0.0120  0.0791 -0.2476
28308W        W45155  10.550   2.997   0.371 -0.1027  0.4520 -0.1627
28309W        W45156  17.796   9.297  14.696 -0.1122 -0.2369  0.0925
28310W        W45157   7.523  15.168   2.460 -0.3203  0.0378 -0.0032
28311W        W45158  13.544   1.184   4.630 -0.1035 -0.0376 -0.0415
28312W        W45159   5.530   6.834  14.802 -0.2279 -0.0927  0.2625
28313W        W45160  10.463   5.723  12.385 -0.0920  0.0473  0.1350
28314W        W45161   7.716   0.296  10.951  0.0547 -0.1320  0.0104
28315W        W45162   5.479  12.084  11.423  0.1244 -0.1315  0.0947
28316W        W45163  18.310  12.052   1.911  0.0602 -0.3035  0.1128
28317W        W45164  12.605   2.275  15.242  0.1650 -0.1750 -0.2664
28318W        W45165   1.595   0.731   1.900 -0.1149 -0.4424  0.1667
28319W        W45166   2.360   5.165  14.806  0.2804  0.0911  0.1371
28320W        W45167   1.073   4.781   1.352  0.1768  0.1720  0.1446
28321W        W45168   6.753  12.875  11.381 -0.0345 -0.0952 -0.3483
28322W        W45169   1.260  12.626   4.680  0.1937  0.0356 -0.0618
28323W        W45170   4.106  15.903   1.840  0.0160  0.2295 -0.1075
28324W        W45171  14.257  14.984  11.156 -0.1771  0.1306 -0.1575
28325W        W45172  13.684  13.378  15.878  0.1091 -0.6134  0.0665
28326W        W45173   3.130  12.285   0.742  0.0661 -0.0442  0.1078
28327W        W45174   4.879  10.829  10.509  0.1021  0.0402 -0.1371
28328W        W45175  18.425   3.355   2.235  0.0642 -0.0103 -0.2602
28329W        W45176   3.201  11.164   3.890  0.0087 -0.2913 -0.1384
28330W        W45177   6.822  11.206  15.017  0.1122  0.0562  0.0917
28331W        W45178   6.318   5.630   0.406  0.1876  0.0082  0.1224
28332W        W45179   7.814   2.298  12.295  0.1390  0.0565 -0.1868
28333W        W45180  11.092  14.717   2.835 -0.1952 -0.0511 -0.0837
28334W        W45181   8.178   3.414  11.469  0.0454 -0.0224  0.3020
28335W        W45182   4.748  17.680   9.838  0.2438  0.1478 -0.0152
28336W        W45183   6.330  13.988   0.642  0.3328  0.0761  0.3139
28337W        W45184  16.155  13.615  11.291 -0.1019 -0.1936  0.1947
28338W        W45185  12.685   1.167  13.339 -0.0519  0.2259  0.0178
28339W        W45186   2.349   6.002   3.134 -0.3517 -0.0598 -0.0349
28340W        W45187  17.270   8.116   3.119 -0.0066 -0.0343  0.0221
28341W        W45188   1.741   1.226  11.146 -0.0060 -0.0556  0.0746
28342W        W45189  12.242   5.679  10.420 -0.1107 -0.1339  0.1875
28343W        W45190  13.025   0.377  13.265 -0.0061  0.1739 -0.1262
28344W        W45191   6.930   8.328   0.119  0.3831  0.1620  0.2355
28345W        W45192   7.355  11.632  11.768 -0.4224  0.1066  0.2919
28346W        W45193   6.596  12.732   0.237  0.1175  0.1548 -0.1171
28347W        W45194  18.355   4.441   4.073 -0.3616  0.1821 -0.0525
28348W        W45195  18.302  12.222   0.249  0.2812  0.0839 -0.2451
28349W        W45196   3.536   3.102   2.242 -0.0783 -0.1948 -0.0672
28350W        W45197   1.711   0.142   0.741 -0.1758  0.0496 -0.2449
28351W        W45198  10.341   7.940  15.934  0.0034 -0.1369 -0.1960
28352W        W45199   4.775   8.801   0.405 -0.1391 -0.1486 -0.3319
28353W        W45200   1.878   5.867  12.656  0.0945 -0.0582 -0.2563
28354W        W45201  11.084  11.108  11.496 -0.0291  0.1398  0.3354
28355W        W45202  13.220   6.520   5.739 -0.1887 -0.0072 -0.3338
28356W        W45203   9.264   9.991  11.128 -0.2645  0.0900  0.0220
28357W        W45204  15.225   7.102  15.445  0.1556  0.0457  0.0412
28358W        W45205   8.688   9.581  14.934  0.0351  0.0027  0.0512
28359W        W45206   3.224  15.473  14.305 -0.2547 -0.0597  0.1288
28360W        W45207   8.221  10.796   1.811 -0.2660 -0.1003  0.2941
28361W        W45208   2.739   5.055  15.652  0.2120 -0.1513 -0.0932
28362W        W45209  12.707  16.544   4.623  0.2159  0.1221 -0.1689
28363W        W45210   8.271  12.395  14.337  0.2867  0.0388  0.1303
28364W        W45211   2.922  10.050   2.064  0.3296 -0.3184  0.0724
28365W        W45212   0.951  17.110   0.350 -0.1775 -0.1352  0.0544
28366W        W45213   3.810   7.648  14.943  0.1365 -0.0550  0.0833
28367W        W45214  18.226   1.718   4.356 -0.4660 -0.0999 -0.0638
28368W        W45215   6.412  16.653   0.400  0.1605 -0.0238 -0.1231
28369W        W45216  17.711   6.005   2.702 -0.0469 -0.3219 -0.0580
28370W        W45217   7.234   3.096   1.105 -0.1772  0.2750  0.0303
28371W        W45218  17.504   0.379   5.776  0.0549  0.3219 -0.1349
28372W        W45219   3.615  13.281  14.991  0.1039 -0.1303 -0.0379
28373W        W45220   3.565   4.585  15.755 -0.0565 -0.2797  0.1490
28374W        W45221   7.655   7.926   0.516  0.0402  0.1558 -0.1030
28375W        W45222   2.935   2.647   2.928  0.0237 -0.1489 -0.1043
28376W        W45223   7.037  13.369   5.254 -0.0318  0.0410 -0.3421
28377W        W45224  16.135  10.145   1.806  0.1484 -0.1527 -0.1795
28378W        W45225  10.987   8.795  12.972  0.0256 -0.1969 -0.3298
28379W        W45226   7.629  14.532   5.162 -0.2400 -0.2195 -0.1624
28380W        W45227   5.569  17.731   0.028 -0.0692 -0.0549  0.0634
28381W        W45228  16.103   1.911  15.723  0.0593  0.0586  0.1331
28382W        W45229   0.129   2.025  15.008 -0.0045  0.0255 -0.2150
28383W        W45230  11.244   4.691  12.643 -0.0046 -0.0066  0.0841
28384W        W45231   5.263  13.806   5.900  0.3164 -0.1399  0.1550
28385W        W45232   7.482  18.020  14.239 -0.1800 -0.1823 -0.1588
28386W        W45233  10.249   9.354   3.737  0.0626  0.1110 -0.1659
28387W        W45234   0.764   1.595  13.454  0.0771  0.3357 -0.3303
28388W        W45235  14.400  15.563   1.888 -0.3047  0.3976 -0.2481
28389W        W45236   1.776   5.672  15.546  0.0968  0.2447  0.6211
28390W        W45237   8.144  17.487   5.217 -0.1811  0.0892  0.3224
28391W        W45238   5.206  16.042   5.166 -0.0789  0.0324 -0.3501
28392W        W45239   0.102   0.374   4.055  0.3101  0.4131  0.0907
28393W        W45240  15.369  10.010   0.316  0.0460 -0.2244  0.2114
28394W        W45241   6.450  12.985   3.903  0.1252  0.0982  0.2744
28395W        W45242   7.696  12.971   2.465 -0.1884 -0.1087  0.1657
28396W        W45243   4.527  13.947   4.448 -0.0863 -0.2204  0.3554
28397W        W45244   4.560  11.051  12.194  0.0856  0.1360  0.1162
28398W        W45245   5.909   7.431  10.068 -0.0020 -0.0659  0.0410
28399W        W45246   4.946   4.326   2.426 -0.2103  0.0167 -0.1306
28400W        W45247   7.300  10.274   5.361 -0.1689  0.1661  0.0561
28401W        W45248  11.284  10.918  13.116  0.1273 -0.0500 -0.2072
28402W        W45249  12.581   8.803   1.484 -0.0877  0.0669  0.0617
28403W        W45250  15.230   1.761  15.370 -0.0714 -0.2581  0.1168
28404W        W45251  12.477   2.729   2.453 -0.4172 -0.0663  0.1378
28405W        W45252   5.400  16.712   2.630 -0.2385 -0.1418 -0.2148
28406W        W45253   0.212   4.915  12.161 -0.0567  0.1202 -0.0936
28407W        W45254  15.549   9.528  15.663  0.1543  0.0567 -0.3115
28408W        W45255   3.694  15.746  13.574  0.1303  0.0045  0.2027
28409W        W45256  16.547  10.613   1.060 -0.0539 -0.0472  0.0175
28410W        W45257   1.600   2.463  12.213  0.1356  0.1273 -0.2292
28411W        W45258  10.917   8.142  11.582 -0.2098  0.0830  0.0400
28412W        W45259   6.070   6.544   3.512 -0.2388  0.0489  0.1654
28413W        W45260   1.989   2.580   5.152  0.0503  0.2837  0.1863
28414W        W45261  12.819   0.856   0.569  0.3024 -0.0005 -0.2644
28415W        W45262  16.966  14.485  14.091  0.0085 -0.0744 -0.1486
28416W        W45263  11.748   3.095   1.164 -0.0421  0.5683  0.0012
28417W        W45264   5.608  14.859  12.622  0.1551 -0.0465  0.0864
28418W        W45265  11.284   4.614  11.770  0.0373 -0.1251  0.3327
28419W        W45266  13.635   0.001  11.969  0.0487 -0.0742  0.1330
28420W        W45267   9.446  17.758   2.807  0.0961  0.2653 -0.0912
28421W        W45268  13.847   4.340   2.912  0.0155 -0.1063  0.1341
28422W        W45269   1.476   7.153  13.063 -0.1736  0.1096  0.0111
28423W        W45270  17.559  11.867   2.037  0.2111 -0.2015 -0.0521
28424W        W45271  15.865   4.034  14.244  0.2289 -0.3064 -0.2606
28425W        W45272   0.163  11.030  12.753  0.2478  0.1442 -0.2772
28426W        W45273   8.178   1.265  12.245 -0.1847  0.1808 -0.0878
28427W        W45274  16.202   6.669   3.610 -0.0970 -0.0444 -0.3630
28428W        W45275   6.174  15.717   3.748  0.0436  0.1579 -0.3270
28429W        W45276  13.456   0.913  11.091 -0.1752  0.3325 -0.2057
28430W        W45277   1.065   6.089   3.981 -0.0360 -0.1400 -0.0794
28431W        W45278   0.588   5.742  12.868 -0.0327 -0.1281 -0.0359
28432W        W45279   6.612  18.002   4.036 -0.1534  0.3364  0.2921
28433W        W45280  17.339   4.149   2.314  0.1313  0.0129 -0.0181
28434W        W45281   9.251   7.450  15.001 -0.1154 -0.3985 -0.1271
28435W        W45282   6.060   8.832   0.963 -0.1420  0.0517 -0.4552
28436W        W45283  10.699   9.752   3.577 -0.2074  0.1930  0.0133
28437W        W45284  17.242  12.042   1.110 -0.0135 -0.0661  0.1828
28438W        W45285   9.523   6.115   5.920 -0.0291 -0.1256 -0.2395
28439W        W45286   2.625  12.102   1.830 -0.0992  0.1070 -0.1131
28440W        W45287   5.602   7.774   6.070 -0.1420 -0.1324  0.0641
28441W        W45288  12.174   4.893  10.870  0.1470 -0.2070  0.0915
28442W        W45289   7.975  14.882   4.972  0.1871 -0.0449 -0.1973
28443W        W45290   8.651  17.067   2.135 -0.2675 -0.0217 -0.0256
28444W        W45291  14.297   3.988  11.860  0.1635  0.0464 -0.2051
28445W        W45292  11.151  13.522   0.928  0.1159  0.0713 -0.0431
28446W        W45293   8.052  10.497  14.869  0.0794 -0.0597  0.2215
28447W        W45294  11.888  13.617  14.837 -0.3838  0.1076 -0.0640
28448W        W45295  12.689   0.261   4.410  0.0549 -0.1693  0.3096
28449W        W45296   8.774   1.584  12.137 -0.0523  0.0213  0.0942
28450W        W45297   0.197   5.961   4.692  0.0216 -0.1302  0.3390
28451W        W45298  11.967   7.072  14.909 -0.1890 -0.0016 -0.0684
28452W        W45299   8.704   1.215   0.018 -0.1372 -0.2723  0.0907
28453W        W45300   4.189  13.564   1.214 -0.0807 -0.1829 -0.1306
28454W        W45301  13.988  12.761   3.344 -0.1325 -0.0314  0.1321
28455W        W45302  11.619   3.706  11.765 -0.0226 -0.2637 -0.0499
28456W        W45303   0.602  10.222   3.480  0.2300 -0.1053  0.3009
28457W        W45304  15.572  10.221  11.638 -0.0620  0.0972 -0.0486
28458W        W45305   8.376  13.753  15.441 -0.1148 -0.0674 -0.2458
28459W        W45306   3.160   7.690  10.684 -0.3999  0.0247  0.2734
28460W        W45307  10.289  14.903   1.093  0.0025 -0.0558  0.2167
28461W        W45308  12.215  13.912   2.645 -0.2994  0.0366 -0.3620
28462W        W45309   6.593  12.784  15.313  0.0114  0.0777  0.0006
28463W        W45310  11.607  16.620   0.861  0.1537  0.1388  0.1141
28464W        W45311  12.812   7.589   0.586 -0.0190 -0.0048 -0.1013
28465W        W45312   7.353  14.663  15.926  0.0648  0.0018 -0.1904
28466W        W45313   2.343  15.316   0.232  0.3018 -0.0444  0.1071
28467W        W45314   7.135   9.719  15.615 -0.1300  0.0892  0.2093
28468W        W45315  16.041  16.637  13.076  0.0373 -0.1033 -0.1231
28469W        W45316  17.096   8.153   4.255 -0.2133 -0.0131 -0.1948
28470W        W45317   4.456   1.382   3.706 -0.0746 -0.0193 -0.0868
28471W        W45318   3.027   5.021   5.210  0.0748 -0.3609 -0.1565
28472W        W45319   7.044  18.148  13.001  0.1632 -0.1314 -0.0719
28473W        W45320   2.309   7.036  13.772 -0.0894  0.3435 -0.3255
28474W        W45321  14.537   9.184  14.845 -0.3239  0.0040  0.1092
28475W        W45322  10.806   8.152  12.090  0.0904  0.1973  0.0817
28476W        W45323   3.536   4.006  13.231 -0.3640 -0.0710 -0.1775
28477W        W45324   8.193  17.917   2.035  0.0681  0.2039  0.1759
28478W        W45325   3.294   6.613   0.968  0.0128 -0.2593 -0.2535
28479W        W45326  10.815   9.248   3.397 -0.0841 -0.0968  0.2065
28480W        W45327   7.470   4.575  11.617  0.0291 -0.2653  0.1240
28481W        W45328   5.868  17.608   3.603  0.1659 -0.2467  0.1674
28482W        W45329  16.357  16.760   5.734 -0.2608  0.0551  0.0152
28483W        W45330  16.968  11.206   1.582  0.0430 -0.1077  0.2011
28484W        W45331  11.908   4.708   0.338  0.1231  0.0950 -0.1017
28485W        W45332   9.513  14.969  13.809  0.0003 -0.1584 -0.0356
28486W        W45333  16.709  16.238   3.143 -0.0167 -0.0710  0.4990
28487W        W45334   5.675   1.155  11.594 -0.1482 -0.0407 -0.0320
28488W        W45335  10.567   5.074  13.879  0.5245 -0.2004  0.1934
28489W        W45336   4.673   9.968   5.849  0.0740  0.3015  0.1546
28490W        W45337   5.743  15.660   1.015  0.1605 -0.3375 -0.2082
28491W        W45338   9.409  17.353  13.354 -0.1202  0.0798 -0.1194
28492W        W45339   1.391  14.412   3.218  0.2138  0.2211  0.0116
28493W        W45340   1.617   0.046  13.952 -0.2773 -0.1013  0.1735
28494W        W45341   9.712   3.092   3.547  0.1944  0.0029 -0.4492
28495W        W45342  15.804   0.563   0.955  0.3149  0.0331  0.0355
28496W        W45343   6.600   8.059   1.081 -0.1212 -0.0009  0.2722
28497W        W45344  10.276   9.742  14.774  0.0274  0.2151  0.0644
28498W        W45345   6.163  12.639  14.393 -0.0144  0.0094 -0.0453
28499W        W45346  15.771   9.647  13.805  0.2331  0.2443  0.2446
28500W        W45347   6.153   6.955  11.447 -0.1988 -0.0553 -0.0685
28501W        W45348  18.024  12.587   0.060 -0.3268  0.1002  0.2201
28502W        W45349  16.347   9.019   3.778  0.0839  0.1475  0.2598
28503W        W45350  14.362   3.276   4.816  0.1210 -0.0187  0.0880
28504W        W45351   8.322  12.554   2.155 -0.0809 -0.2220  0.0553
28505W        W45352   6.789  15.796  14.163 -0.2057  0.3180 -0.1633
28506W        W45353  14.306  15.346  11.544  0.2390 -0.0225 -0.0455
28507W        W45354   3.842   0.665   1.363  0.0653  0.1499  0.0475
28508W        W45355   3.814  14.983  15.180 -0.2425 -0.2348 -0.2649
28509W        W45356   9.949   1.522  13.603  0.2519 -0.1135  0.0893
28510W        W45357   2.532   5.795   4.702  0.0688 -0.2479  0.1209
28511W        W45358  17.753   4.953   1.957  0.1634  0.1383 -0.3153
28512W        W45359  17.058   9.227   3.310 -0.1278  0.2233  0.0703
28513W        W45360  16.767  13.530   2.503 -0.0369  0.3569 -0.2746
28514W        W45361  12.994   5.943  14.143 -0.1124 -0.0153  0.2393
28515W        W45362  15.459   3.158  15.138  0.0366  0.1508  0.1975
28516W        W45363   9.838   0.156   1.118 -0.0618 -0.1607 -0.2612
28517W        W45364  11.960  17.943  14.449  0.0768  0.2642 -0.1080
28518W        W45365   6.933  12.124   1.362 -0.1080 -0.1187 -0.0922
28519W        W45366   2.665   7.856  11.451  0.2192  0.2314  0.1369
28520W        W45367   7.486  18.506   2.440  0.1231 -0.0502  0.0556
28521W        W45368  12.542   7.579   2.310  0.0833 -0.0083  0.1372
28522W        W45369  10.338   3.312  15.911  0.2323 -0.0562  0.1731
28523W        W45370   1.214  12.847  11.667 -0.2665  0.1299  0.0513
28524W        W45371   6.874   2.020   4.121 -0.4742  0.1045  0.1436
28525W        W45372   9.310   8.305   1.086 -0.0014  0.0302 -0.0903
28526W        W45373  16.932   6.196   4.310 -0.3152  0.0798  0.0869
28527W        W45374   7.412   0.055  12.238 -0.0716 -0.2991  0.0855
28528W        W45375   8.769   1.834   4.039 -0.0614  0.1782 -0.1060
28529W        W45376  15.066   9.023   3.736  0.2109 -0.0397  0.3407
28530W        W45377  10.778  18.014   4.912  0.0381  0.0808  0.2703
28531W        W45378   8.447   9.089  13.935 -0.2185 -0.3034  0.3616
28532W        W45379  14.078  18.114  13.314  0.2101 -0.1549  0.0041
28533W        W45380   1.288   3.913   5.971  0.0174  0.2256  0.0802
28534W        W45381   2.846   7.118  12.017  0.1860  0.0098  0.1705
28535W        W45382  14.893   8.025  13.476  0.0211 -0.0157 -0.0446
28536W        W45383   3.870  14.865  14.708  0.3045 -0.0484  0.0801
28537W        W45384   4.172   5.052  13.727 -0.2521 -0.0473 -0.0560
28538W        W45385   6.447  11.410   0.491  0.0451  0.0294 -0.0928
28539W        W45386   7.622   2.678   3.597  0.0020  0.1826 -0.1901
28540W        W45387  12.184  18.212  14.132 -0.0128  0.2263 -0.1052
28541W        W45388   4.321  11.205   3.299  0.1827 -0.1729  0.2173
28542W        W45389   0.650  15.380   3.542 -0.0184 -0.2334  0.1199
28543W        W45390  18.011  18.127  14.772  0.1512 -0.2640 -0.0608
28544W        W45391   3.151   5.792   1.133 -0.2567  0.0784 -0.0636
28545W        W45392   5.567  10.259   3.655  0.2091  0.0272  0.2194
28546W        W45393   2.471  15.097   3.800  0.0444 -0.1124 -0.0359
28547W        W45394   1.405   3.274  11.975 -0.1987 -0.0065 -0.4519
28548W        W45395   6.340   2.693   3.878  0.1482  0.1851  0.2395
28549W        W45396  12.335   5.314   1.990 -0.2420  0.1743 -0.1687
28550W        W45397   8.915   8.860  15.064  0.0360 -0.2329 -0.0602
28551W        W45398   3.340   1.475  15.706  0.0323 -0.5197 -0.0492
28552W        W45399   2.759  17.963   3.964  0.0466 -0.1431 -0.0154
28553W        W45400   6.811   4.955  13.427  0.1731 -0.0144  0.1989
28554W        W45401  10.046   5.717  11.396  0.0488  0.2718 -0.0247
28555W        W45402  12.008  17.491  12.608  0.1379  0.0524 -0.0045
28556W        W45403   5.427   8.989   2.401 -0.1012 -0.0898  0.0642
28557W        W45404  16.838  14.380   4.442  0.1927  0.0120  0.0309
28558W        W45405  11.503  15.925   1.328  0.3361  0.2302  0.0560
28559W        W45406   4.916  13.706   0.924 -0.2095  0.0357  0.1960
28560W        W45407  14.875  13.170   2.184 -0.0800 -0.2758 -0.1948
28561W        W45408   2.932   9.306  15.138  0.0044  0.1590 -0.4540
28562W        W45409  15.169   4.987   3.360 -0.0171 -0.0701  0.0180
28563W        W45410  17.319  13.313   0.594  0.1031 -0.0395 -0.1972
28564W        W45411  15.402   0.129  14.680 -0.0739  0.2452  0.2169
28565W        W45412   6.645   4.784   0.192 -0.0708 -0.0153  0.0559
28566W        W45413   4.588  15.430   0.996 -0.2918  0.1780  0.1940
28567W        W45414   5.890  16.216  10.479 -0.1776 -0.0710  0.0279
28568W        W45415   6.891  17.031  15.166  0.0997 -0.3080  0.0214
28569W        W45416  13.833   6.675  10.294  0.0081 -0.2100  0.0774
28570W        W45417  12.893   8.436  11.591  0.1400  0.2704  0.2189
28571W        W45418  15.987   9.362   3.822 -0.1384 -0.0673  0.1651
28572W        W45419   7.639   6.780  15.921  0.1648  0.1417  0.0126
28573W        W45420   3.619  14.622   1.130 -0.0285 -0.1196 -0.1699
28574W        W45421   9.346   1.348  13.771  0.0826 -0.0092  0.0049
28575W        W45422   5.198   4.646   1.455  0.0121 -0.0506  0.0970
28576W        W45423  15.419  15.883  15.643  0.0408  0.2593 -0.1207
28577W        W45424   3.227  16.515  12.573  0.1509  0.0975 -0.2670
28578W        W45425  18.350  12.045  14.617  0.3198  0.0164 -0.3755
28579W        W45426   3.468  15.938   0.686  0.1876  0.0035  0.0614
28580W        W45427   7.796  10.680   1.304  0.0901 -0.1060 -0.2575
28581W        W45428  12.484  15.272   3.677 -0.0709 -0.3139  0.1374
28582W        W45429   7.224  11.524   4.692 -0.0029 -0.0019 -0.0187
28583W        W45430   9.661   0.563  13.618  0.1695  0.1129 -0.0500
28584W        W45431   9.359   7.223  15.487 -0.1478 -0.0332  0.1151
28585W        W45432   6.993  17.720   0.024  0.0052 -0.1117 -0.1236
28586W        W45433   6.014  12.782   2.525 -0.1395 -0.1673 -0.3164
28587W        W45434  15.151  10.758   2.701 -0.0182 -0.0215 -0.0013
28588W        W45435  17.019   2.546   5.396 -0.1680  0.0242  0.4346
28589W        W45436   5.949   8.910  15.393  0.2525 -0.0291 -0.1935
28590W        W45437  14.374  14.031  12.263 -0.0176  0.4015  0.1180
28591W        W45438   1.675   5.085   0.728 -0.0204  0.0258 -0.0140
28592W        W45439  12.698   6.948  11.752 -0.1901 -0.0187  0.0171
28593W        W45440   4.634  16.202  15.875  0.2440  0.0122 -0.2876
28594W        W45441   5.513   8.292  13.646 -0.5258 -0.3534  0.0648
28595W        W45442  11.750   9.745  11.729  0.1345 -0.1046 -0.1362
28596W        W45443   9.323   6.748  12.890 -0.1229  0.1303 -0.2425
28597W        W45444  10.906   6.510  13.527 -0.1458 -0.0774  0.0089
28598W        W45445   5.630   1.372  13.002  0.0660  0.0306 -0.5920
28599W        W45446   1.312   9.620  12.569 -0.1267 -0.0154 -0.3929
28600W        W45447  15.215  11.442   3.800  0.1137 -0.0679  0.0499
28601W        W45448  10.819   3.954  14.315 -0.3130 -0.1463  0.1350
28602W        W45449  15.102   7.273   4.749 -0.1217 -0.0612 -0.0642
28603W        W45450  15.550  16.677   3.643  0.1079  0.2916  0.3042
28604W        W45451   1.156   4.589   2.217  0.0455 -0.0159 -0.2439
28605W        W45452  15.889   0.368   5.500  0.0820 -0.1467  0.0969
28606W        W45453  11.427  15.946  14.724 -0.1199  0.0274 -0.0568
28607W        W45454  14.147   6.851   3.973 -0.0627  0.2652  0.1224
28608W        W45455  17.746   6.393  11.159 -0.2009 -0.2528  0.1861
28609W        W45456   6.544  17.511  15.807  0.3946  0.1133 -0.0641
28610W        W45457   9.554   1.313   4.152  0.1905 -0.0402  0.1024
28611W        W45458   8.671  12.403  15.098 -0.1317  0.1310 -0.3675
28612W        W45459   8.750  14.337   3.271 -0.0210 -0.1274 -0.1211
28613W        W45460  17.181  11.536  14.191 -0.0597  0.1974  0.2256
28614W        W45461   3.465  17.308   3.729 -0.0392 -0.1573  0.0184
28615W        W45462  16.770  14.895   2.682 -0.3242  0.1197  0.1633
28616W        W45463  13.491   0.762   4.069  0.1030 -0.3650  0.0023
28617W        W45464  14.136  11.534  11.727  0.5353 -0.2730 -0.3967
28618W        W45465   2.129   3.012   5.389  0.3101 -0.1945  0.1256
28619W        W45466  17.665   8.614   1.741 -0.0370 -0.1307 -0.0955
28620W        W45467   4.097   6.424   1.339 -0.1520  0.0321 -0.1003
28621W        W45468   7.756   9.136   4.022  0.5059 -0.2518  0.2888
28622W        W45469  13.499  14.474   2.882  0.2338 -0.0671  0.1319
28623W        W45470  15.627   8.534  11.789  0.2123 -0.1920  0.1088
28624W        W45471   3.793  17.555   2.309  0.4030  0.2118 -0.0475
28625W        W45472   2.500  17.605   0.075  0.0251 -0.1588  0.1685
28626W        W45473  17.019   2.267   2.480 -0.4348 -0.2050  0.2567
28627W        W45474   0.256   2.973  13.073  0.1325 -0.1684  0.0654
28628W        W45475  18.186  17.095   5.136  0.1716  0.1494  0.1038
28629W        W45476  15.327   2.356   1.078  0.0197 -0.1058  0.0785
28630W        W45477  18.399   0.647   3.405 -0.2178 -0.0788 -0.2916
28631W        W45478   3.289  15.825  13.217  0.0900 -0.0708 -0.0919
28632W        W45479  17.018   5.728   3.746 -0.1131 -0.2170 -0.0594
28633W        W45480  12.930   6.500   3.406 -0.0015 -0.1235 -0.0554
28634W        W45481   2.526   7.643  13.113  0.1476  0.0439  0.3647
28635W        W45482   4.503   5.625  14.607  0.3053 -0.2069  0.0188
28636W        W45483   6.658   7.131   2.303  0.0783 -0.2944 -0.0594
28637W        W45484   7.932   2.733   5.612  0.4807 -0.0008 -0.2598
28638W        W45485  15.349   7.817  12.201  0.4386  0.0960  0.0652
28639W        W45486   8.710   2.303   2.951  0.1895  0.0077 -0.3400
28640W        W45487  16.743  10.084   2.310 -0.2998 -0.0486  0.0765
28641W        W45488  10.211   3.900  10.176  0.1621  0.2725  0.0975
28642W        W45489  13.035   1.880   2.233 -0.1621  0.0281 -0.0951
28643W        W45490  14.501  17.965  12.439 -0.3146 -0.3817  0.0032
28644W        W45491   2.154   1.199   3.726  0.2217  0.1064  0.0370
28645W        W45492   9.765  15.652  15.675 -0.0754  0.0392  0.2551
28646W        W45493  13.318  16.113  14.704  0.1142  0.0229  0.1915
28647W        W45494  11.127  13.651   5.709 -0.0424  0.1835  0.2409
28648W        W45495   7.563   8.693   4.170  0.2876  0.1006  0.0025
28649W        W45496  15.107   0.809   4.112 -0.1958 -0.1375  0.0642
28650W        W45497   0.277  10.675   5.314  0.1161 -0.0014  0.0029
28651W        W45498  17.631  10.415  15.286 -0.0839  0.0501 -0.1412
28652W        W45499   9.377   1.168   3.745  0.1665  0.0640  0.2103
28653W        W45500  18.331  13.435   3.909  0.2663 -0.4550  0.0798
28654W        W45501   6.049   4.564  10.828 -0.4391 -0.2194 -0.2124
28655W        W45502   1.456  13.014  12.086 -0.1196 -0.0214 -0.1344
28656W        W45503   5.333   4.098  11.951 -0.0074 -0.3153 -0.0087
28657W        W45504  15.289   6.919   3.077  0.2206 -0.1971  0.3148
28658W        W45505  16.434   3.069  14.924 -0.0749 -0.0095  0.4258
28659W        W45506   8.941   3.119  11.712 -0.2055  0.1663 -0.0302
28660W        W45507  15.729   5.510   1.901 -0.0119 -0.3499  0.0814
28661W        W45508   1.365   1.475   4.432 -0.2787  0.0069  0.1272
28662W        W45509   9.562  13.790   2.806  0.0966 -0.0795 -0.2150
28663W        W45510   5.523   2.953   1.160  0.0193  0.0491  0.1297
28664W        W45511   1.032   6.023  13.042  0.0068  0.0219 -0.1557
28665W        W45512   3.377   6.072  12.129 -0.0396 -0.1995  0.2492
28666W        W45513   4.101  10.088  12.172  0.2057  0.0181 -0.1395
28667W        W45514  13.852  13.037  15.587  0.0785 -0.1680  0.3932
28668W        W45515   1.702  10.804   2.365 -0.1810 -0.2837  0.0462
28669W        W45516   7.923  10.023   5.330 -0.1671 -0.1687 -0.1882
28670W        W45517  10.988  10.486   1.369 -0.0800  0.2631 -0.1559
28671W        W45518   7.774   4.054   3.886 -0.1780  0.1482  0.0524
28672W        W45519   9.047  16.286  15.922  0.2111 -0.4598 -0.0154
28673W        W45520   6.194   9.307  15.282 -0.2284 -0.0737 -0.1805
28674W        W45521   2.710  14.552   2.280 -0.0250  0.1060  0.2783
28675W        W45522   3.515  18.047   5.143  0.0576 -0.0997 -0.2772
28676W        W45523  12.795  12.238  14.124  0.1795 -0.0496 -0.1057
28677W        W45524   9.479   4.428  13.614 -0.0077 -0.2650  0.1674
28678W        W45525   3.073  15.870   5.031 -0.4369  0.3457  0.1655
28679W        W45526  14.791   4.897   1.966  0.0538 -0.0800 -0.0660
28680W        W45527  16.334  17.721   4.084 -0.0443  0.0367 -0.0315
28681W        W45528  14.497  11.703  13.461 -0.0977 -0.1172 -0.0895
28682W        W45529   9.904  18.267  13.992 -0.0516 -0.0050  0.0450
28683W        W45530  14.687   0.441   4.185  0.1845 -0.1581  0.1636
28684W        W45531   4.682   7.667  15.602  0.1855  0.2775  0.1351
28685W        W45532  13.477   3.023   1.352  0.2856  0.0120  0.2963
28686W        W45533   4.348  10.276  13.705  0.1137 -0.0217  0.1308
28687W        W45534  11.076  12.497   2.471 -0.1762  0.2014 -0.1856
28688W        W45535   7.182   6.858   4.681  0.1183 -0.0319  0.0201
28689W        W45536  11.620  18.465   1.279 -0.3783 -0.2430 -0.0043
28690W        W45537   2.739   5.361  13.938 -0.0757 -0.0827 -0.1050
28691W        W45538   3.389  17.543   0.577 -0.0928  0.1223 -0.2618
28692W        W45539   0.619  17.787   3.378 -0.3779 -0.0415 -0.0759
28693W        W45540  12.911  16.272   3.692  0.1036 -0.0411 -0.1279
28694W        W45541  17.500  14.180  13.446 -0.1305 -0.2084  0.0114
28695W        W45542   5.544   4.562   5.816  0.0367 -0.3073  0.2285
28696W        W45543  10.904   1.892   2.900 -0.0248 -0.2291  0.0079
28697W        W45544   2.159  11.944   4.444  0.4370  0.1998 -0.0843
28698W        W45545  10.642  15.453   2.808  0.1197 -0.1273  0.1584
28699W        W45546   9.396   7.087  12.321 -0.2804 -0.1030 -0.1844
28700W        W45547   9.827   4.822  10.576  0.2517  0.1422 -0.0324
28701W        W45548  15.449   4.324   4.620 -0.0766 -0.0250  0.1278
28702W        W45549   6.042  16.424  13.352 -0.1216 -0.1841 -0.3054
28703W        W45550  17.021   5.601   4.209 -0.0022 -0.1231  0.1472
28704W        W45551  18.144   2.317   4.790 -0.1638 -0.0320 -0.1372
28705W        W45552   7.742  16.805   1.559  0.1900 -0.1026  0.0328
28706W        W45553  17.017   6.713   3.878 -0.2728  0.0176 -0.1230
28707W        W45554   7.969  16.387  12.669 -0.0104 -0.0062  0.2622
28708W        W45555   0.175  16.135  14.749  0.1669  0.0491  0.0983
28709W        W45556  17.314  16.941   3.289 -0.4647  0.0032 -0.2417
28710W        W45557  16.944  18.481   0.737 -0.1799 -0.1729 -0.1082
28711W        W45558  12.088  10.439   2.200  0.0989 -0.2373 -0.1062
28712W        W45559   4.597   8.343   0.513 -0.0822 -0.1015 -0.0320
28713W        W45560   0.549   2.005  15.272  0.2424 -0.0378 -0.1683
28714W        W45561  10.510  16.008  14.031 -0.0113  0.0399 -0.2086
28715W        W45562   7.646   7.492  14.124 -0.0794 -0.4401  0.1988
28716W        W45563  18.346   4.239   5.397  0.0848  0.0361  0.2709
28717W        W45564  13.029  16.305   2.554 -0.1971  0.0650 -0.0548
28718W        W45565   8.697   0.606   2.995  0.0406 -0.1825  0.0755
28719W        W45566  12.607  11.908   2.020  0.1203 -0.0657 -0.0102
28720W        W45567  14.737   0.246  15.401 -0.0185  0.0662 -0.0193
28721W        W45568  16.661   3.778   1.862  0.1516 -0.5975 -0.1727
28722W        W45569   5.007   4.726   3.581  0.0638 -0.0546 -0.0069
28723W        W45570  16.909   7.548   2.629 -0.2197 -0.0754 -0.1890
28724W        W45571  12.325   4.659  11.766 -0.0161  0.0964 -0.2024
28725W        W45572  13.426   5.612  13.836 -0.0725 -0.0628 -0.3530
28726W        W45573   5.144   4.043  15.399  0.2289  0.0718 -0.0777
28727W        W45574   5.389   1.028   0.546 -0.0963 -0.1730 -0.0280
28728W        W45575   2.228   8.348  14.359  0.1993 -0.1611  0.1077
28729W        W45576   0.919  13.888  11.385  0.1131  0.0138  0.2122
28730W        W45577  10.417  11.973   3.894  0.2067  0.3389 -0.0260
28731W        W45578  10.543  18.222   4.010  0.5474  0.0679 -0.1572
28732W        W45579  16.341   3.844   3.394  0.0971  0.0194  0.2093
28733W        W45580   6.397   2.053   3.965 -0.1099  0.1344 -0.3445
28734W        W45581   4.147  11.357   3.810  0.2115  0.0011 -0.5157
28735W        W45582   6.834   8.663  11.818  0.1045  0.1505 -0.1505
28736W        W45583   2.620  15.775  11.373  0.1996  0.0337  0.1390
28737W        W45584   1.494  12.355  10.961  0.1923  0.4294  0.1976
28738W        W45585   4.696   1.883   3.674  0.3153  0.1179  0.1680
28739W        W45586   7.617   2.732  12.345  0.0293  0.2454 -0.3663
28740W        W45587   9.955   6.420   0.879  0.0801  0.1013  0.0785
28741W        W45588   0.279   6.660  14.236 -0.0525 -0.5568 -0.1696
28742W        W45589   0.481   7.229  12.228  0.0059  0.2158 -0.0957
28743W        W45590   2.195   2.981   3.950 -0.1514  0.2828  0.1450
28744W        W45591   3.403  17.999  15.453 -0.0429 -0.3792 -0.0381
28745W        W45592   8.537   9.387   3.711 -0.4891  0.3644 -0.1835
28746W        W45593   0.294   4.369   1.381 -0.1742  0.1884 -0.1058
28747W        W45594   3.055   4.096   4.045  0.0826  0.1039  0.1213
28748W        W45595   7.142   6.620   2.981 -0.2406 -0.0119 -0.1427
28749W        W45596   7.212  13.201  11.502  0.0495  0.0279 -0.2971
28750W        W45597  10.089   5.846  14.427  0.0708 -0.0008  0.1916
28751W        W45598   8.899   7.753  11.029 -0.2766  0.0109  0.0671
28752W        W45599  10.630  15.502  13.947  0.1377  0.0215 -0.0978
28753W        W45600   0.470   5.106   1.826 -0.1493 -0.1852  0.0842
28754W        W45601  18.071   8.995   3.894 -0.0253  0.1456 -0.5270
28755W        W45602   2.450  16.784   1.381 -0.1524  0.1426  0.3449
28756W        W45603   3.345  14.595  12.982  0.1021  0.0854  0.0681
28757W        W45604   8.269   0.692   3.199  0.0592 -0.2463  0.1182
28758W        W45605   2.464   9.778   0.284 -0.3145 -0.0641  0.0325
28759W        W45606  16.042  13.951   4.358  0.2342  0.0731 -0.1183
28760W        W45607   8.476   4.502  15.630 -0.0586  0.2698 -0.0814
28761W        W45608  16.139  17.666  12.471  0.1181 -0.3477 -0.0616
28762W        W45609  15.319   9.530   5.042 -0.1388 -0.1693 -0.1035
28763W        W45610  13.800  12.795  13.648  0.1076  0.1037  0.4597
28764W        W45611  12.799  16.284  15.722  0.1369 -0.1753  0.0173
28765W        W45612   2.349  16.314  13.803  0.1129  0.1278 -0.0522
28766W        W45613   4.277   9.403   4.555 -0.0446 -0.1068  0.1724
28767W        W45614   3.445  11.862   0.779 -0.0639 -0.1987  0.0277
28768W        W45615  11.166   5.801  11.711 -0.2445  0.2674  0.0326
28769W        W45616  15.698   6.596  11.973 -0.3951 -0.0344  0.0326
28770W        W45617   3.886  15.553   2.971 -0.0318  0.0147  0.0278
28771W        W45618  11.501  10.574  15.616 -0.3715  0.1065 -0.0375
28772W        W45619  16.538   6.877   3.902 -0.0320  0.0169  0.1579
28773W        W45620   7.424  14.846   3.831  0.0151 -0.1341  0.2554
28774W        W45621   8.646  17.848   4.557 -0.2063 -0.1397  0.1836
28775W        W45622   0.473   1.753   5.193  0.1430  0.0107 -0.0878
28776W        W45623   8.342   2.244  11.556  0.0654  0.1765 -0.0694
28777W        W45624   0.550   8.030   5.545 -0.1350  0.1948  0.2790
28778W        W45625  10.222   9.934  11.493 -0.2141 -0.1898  0.2236
28779W        W45626   0.815  14.024   5.915 -0.0220 -0.2493 -0.0239
28780W        W45627   0.837   8.551   3.620 -0.5751  0.4728  0.1610
28781W        W45628   1.154  10.558   5.646 -0.2980 -0.0596 -0.0670
28782W        W45629   7.025  17.828   5.231  0.2979  0.2715 -0.0232
28783W        W45630  14.258  11.593   4.755 -0.0749 -0.1679  0.0083
28784W        W45631   2.452   5.352  15.938  0.0904 -0.3554 -0.0420
28785W        W45632   9.635   6.407   1.287  0.0121 -0.2097  0.4052
28786W        W45633  10.430   1.277  10.510 -0.1338 -0.0869  0.1675
28787W        W45634  12.163  14.754   0.808 -0.2118  0.0541 -0.0973
28788W        W45635   3.780   4.772  12.895 -0.0645  0.2098 -0.1724
28789W        W45636   5.777   9.144  12.560  0.1798  0.0308  0.0170
28790W        W45637   9.055  17.292  15.404 -0.2574  0.2335 -0.2635
28791W        W45638   5.532  17.713  14.365 -0.0189  0.0185 -0.2426
28792W        W45639  17.864   7.290   3.108 -0.1084 -0.2580 -0.0672
28793W        W45640   3.921   1.891   1.344 -0.1748  0.0921 -0.1165
28794W        W45641   8.890   6.522   0.611 -0.4395 -0.1842  0.1960
28795W        W45642  15.600  10.454   1.072 -0.1453  0.2636  0.0912
28796W        W45643  15.284   3.533   1.641  0.1314 -0.0017 -0.0610
28797W        W45644   5.803   7.423   2.102 -0.0167  0.1320  0.0726
28798W        W45645  11.795   4.500   4.502 -0.3096  0.0964 -0.0393
28799W        W45646   0.068  15.166  12.044 -0.0333 -0.0617 -0.1148
28800W        W45647   6.481  18.109  12.309 -0.0791 -0.0501 -0.3670
28801W        W45648   8.983  16.860   2.422  0.0462  0.2061  0.1908
28802W        W45649   3.681  18.208   1.002 -0.2500 -0.1789 -0.3405
28803W        W45650  10.880   6.495   2.555 -0.2495 -0.1094 -0.0849
28804W        W45651   4.971   2.079  13.627 -0.0104 -0.0676  0.1916
28805W        W45652  10.215  17.750   0.827 -0.0114 -0.2668  0.1485
28806W        W45653  15.734   5.214   4.460 -0.0285 -0.1400  0.0740
28807W        W45654   0.605   6.787   5.207  0.1637 -0.0133  0.1380
28808W        W45655  10.740   0.372   1.535 -0.0289  0.0059 -0.1732
28809W        W45656   6.353   4.081  13.479 -0.2244  0.0060 -0.4098
28810W        W45657  11.362   8.652   4.516 -0.2032  0.1215  0.0147
28811W        W45658   0.901   2.955   1.247  0.1277  0.0942 -0.0965
28812W        W45659   2.818   0.036  12.718 -0.0607 -0.1412 -0.1420
28813W        W45660  17.196  13.477  12.336  0.0905  0.0513 -0.1990
28814W        W45661  10.495  10.789   1.192  0.1637 -0.1433  0.0251
28815W        W45662   5.538  14.293  15.594  0.1717 -0.2608 -0.0661
28816W        W45663   5.780   6.264   4.003  0.1201  0.0670  0.1842
28817W        W45664   2.119  17.953  14.336 -0.1208 -0.0873 -0.3284
28818W        W45665   0.622   1.338  13.969 -0.1603  0.2638  0.1128
28819W        W45666   4.953  16.354  14.995  0.1190  0.1709 -0.2059
28820W        W45667   4.183   7.564   2.879 -0.1824 -0.2992  0.1384
28821W        W45668   6.380  18.423   4.049  0.2042  0.2060  0.2159
28822W        W45669   7.000   7.365   0.093 -0.0204 -0.1225 -0.0785
28823W        W45670   3.139  11.718  13.985 -0.0479 -0.0374  0.2200
28824W        W45671   4.893  13.845   4.070 -0.0177 -0.0623  0.1077
28825W        W45672  12.032  10.591  11.456  0.0600  0.0216 -0.2839
28826W        W45673  10.257   5.332   1.245  0.0452  0.0625 -0.1230
28827W        W45674   0.794   8.906   0.987 -0.0091  0.1148  0.4057
28828W        W45675   9.173   7.573  12.490 -0.0582  0.1034 -0.3312
28829W        W45676   1.085  18.344  14.918  0.3478 -0.1427  0.1752
28830W        W45677   6.984   1.430   3.397 -0.1070 -0.1936 -0.3244
28831W        W45678  17.521   6.101   0.860 -0.0110 -0.1776 -0.1923
28832W        W45679   0.808  14.438  14.161 -0.1479 -0.0147 -0.1777
28833W        W45680  16.024   1.934   4.145  0.1564 -0.2728  0.1689
28834W        W45681   0.850  10.254   1.194 -0.2367 -0.0110 -0.1662
28835W        W45682   6.781  15.716   4.245  0.1721  0.2335 -0.1074
28836W        W45683  18.458   6.290   0.479 -0.1156 -0.1538 -0.4179
28837W        W45684   1.643   5.150   3.383  0.0868 -0.3149  0.1365
28838W        W45685   3.633   6.965  13.760 -0.0186 -0.0060  0.3453
28839W        W45686  17.957   5.810   0.704 -0.1446 -0.1264 -0.0610
28840W        W45687  16.637  14.778   4.582 -0.0259  0.2054 -0.1563
28841W        W45688   5.001  13.107   4.475 -0.1961 -0.0902  0.0310
28842W        W45689   3.012  10.220   5.650  0.1066  0.1077  0.3600
28843W        W45690   0.971   1.386   3.323 -0.0989 -0.1214  0.0031
28844W        W45691   5.888  11.498  13.567 -0.0872  0.0129  0.3340
28845W        W45692  17.344   3.371  10.993  0.1081  0.1198  0.1404
28846W        W45693  17.223   2.208  14.285  0.0859  0.0856 -0.1720
28847W        W45694  16.469  10.060  14.246  0.3614  0.1334  0.3504
28848W        W45695   5.180   5.717  10.972 -0.1282 -0.2011 -0.3164
28849W        W45696   4.349  18.396   3.674 -0.1238 -0.1563 -0.0564
28850W        W45697  16.556  11.303  12.191 -0.2126  0.1796 -0.1961
28851W        W45698   9.844   4.920   1.408  0.0583 -0.2801  0.2684
28852W        W45699  18.455  12.809   1.928 -0.1281  0.2497 -0.1219
28853W        W45700  14.373   9.711   2.449  0.2640  0.3376  0.0556
28854W        W45701  11.186   0.156   0.479  0.2494  0.1779  0.2403
28855W        W45702   5.432  10.380  14.670  0.1813 -0.1149 -0.3393
28856W        W45703   9.619  15.518  12.202 -0.2259 -0.3364 -0.2635
28857W        W45704  10.719   2.994   2.530 -0.2227 -0.0091  0.1110
28858W        W45705  14.245   2.608   6.179 -0.3500 -0.1353  0.0706
28859W        W45706  10.699   1.745  14.099  0.1225 -0.2448  0.0202
28860W        W45707  17.835  13.543   1.591 -0.1193 -0.0512 -0.0210
28861W        W45708   3.023   8.277   1.121 -0.1183  0.1422  0.1918
28862W        W45709   9.579   6.699   2.189 -0.1573  0.1248  0.1783
28863W        W45710  12.387  17.455   2.797 -0.0711 -0.2217  0.0675
28864W        W45711  11.220  15.427  13.173  0.1495 -0.0509 -0.0820
28865W        W45712  12.487   7.421  11.601 -0.3911 -0.0021 -0.1108
28866W        W45713   2.087  15.552   5.818 -0.3898 -0.0792  0.0134
28867W        W45714  12.441   4.923   0.549 -0.0361 -0.1413 -0.5552
28868W        W45715  11.013  16.218   3.056 -0.0999 -0.2610 -0.0649
28869W        W45716   0.083  10.233  15.259  0.2453 -0.4590 -0.1543
28870W        W45717  16.445  11.752  12.344 -0.0935 -0.1971 -0.1289
28871W        W45718   1.154  10.986   0.905 -0.0561  0.3536 -0.0149
28872W        W45719  13.877   8.177  11.255  0.0189 -0.0983  0.1309
28873W        W45720   4.052   0.331   5.048  0.4678 -0.0708  0.2083
28874W        W45721  16.268  17.405   1.503  0.1652  0.0961 -0.1916
28875W        W45722   9.925   7.318   1.757  0.2930 -0.0724  0.2245
28876W        W45723   6.491   3.926  15.763 -0.2160 -0.1719 -0.1271
28877W        W45724   5.820  12.189   5.636  0.0501 -0.1771 -0.1585
28878W        W45725   5.930   3.194   1.196 -0.0263 -0.0546  0.3369
28879W        W45726  13.247   6.704   0.565 -0.2038 -0.0000 -0.0480
28880W        W45727   0.045   1.792   4.791  0.1115  0.0368 -0.0911
28881W        W45728   9.042  15.871   0.517  0.1028  0.1519 -0.0066
28882W        W45729   0.876  12.827   4.166 -0.0745 -0.0673 -0.1037
28883W        W45730  11.796  13.666   3.438 -0.2364  0.1846 -0.0896
28884W        W45731  13.918   7.676   5.585  0.0825 -0.1225 -0.0291
28885W        W45732   8.621  18.528  15.081 -0.2488 -0.1044 -0.0796
28886W        W45733   2.636   6.955   2.808  0.0559 -0.0498  0.1869
28887W        W45734   7.595  14.326  14.913 -0.2271 -0.3940  0.2554
28888W        W45735   5.779   6.032  12.780  0.2846  0.0263 -0.0912
28889W        W45736  10.573  15.664   3.309  0.0028  0.1545 -0.1419
28890W        W45737   5.185  16.967  10.377  0.0213  0.0790 -0.2445
28891W        W45738  12.599   5.870  14.487 -0.1036 -0.1308  0.0204
28892W        W45739   3.504  14.051   2.307 -0.2737  0.1249 -0.0579
28893W        W45740   5.713   1.014   2.549  0.1879 -0.3385  0.0076
28894W        W45741  10.744  18.508  14.420 -0.0442 -0.0392  0.2219
28895W        W45742   0.381  10.047   1.386 -0.2352 -0.0489  0.2062
28896W        W45743   6.156  16.776  13.671  0.2426  0.0281  0.2431
28897W        W45744  18.130   5.756  13.799  0.0382  0.0262  0.2287
28898W        W45745   8.914  14.830  13.904  0.0928 -0.1151  0.0917
28899W        W45746  13.658   4.711  11.942 -0.1407 -0.0137  0.0171
28900W        W45747  17.315  16.699  12.484 -0.3774  0.0720 -0.0663
28901W        W45748  10.737   4.317   3.781 -0.0913  0.1098  0.0500
28902W        W45749   2.100  12.171  15.921  0.2672 -0.1685  0.1969
28903W        W45750   6.685  13.775  11.944  0.2035  0.1073 -0.1718
28904W        W45751   6.427  17.169   1.078 -0.0785 -0.1718  0.0671
28905W        W45752  13.970  12.691   0.737  0.2791  0.2034  0.1702
28906W        W45753   9.922  10.571  11.223  0.1459 -0.1368 -0.3143
28907W        W45754  14.379  16.910   1.984  0.3302 -0.0484  0.2717
28908W        W45755   7.774   0.863   1.661  0.0574  0.2406 -0.0426
28909W        W45756  13.159   6.043   2.636  0.2104 -0.0417  0.2337
28910W        W45757  13.460  10.977   1.936 -0.0837  0.0605 -0.2244
28911W        W45758  17.180   4.461  15.945 -0.1193 -0.0081 -0.1035
28912W        W45759  12.879  13.898  13.986 -0.0134  0.0044 -0.3263
28913W        W45760   5.308   6.086  12.509 -0.1321 -0.0893 -0.2214
28914W        W45761   6.940  14.189   2.349  0.0341 -0.1603  0.2671
28915W        W45762   2.353   4.271   5.133 -0.2060 -0.0504  0.1621
28916W        W45763  16.040   7.638  14.006 -0.1727  0.1849 -0.2174
28917W        W45764  15.356  16.469   1.222  0.1958 -0.1794  0.1120
28918W        W45765  12.785   1.515   3.361  0.0464 -0.1867  0.3628
28919W        W45766  13.518   7.418   1.701 -0.0398  0.0369  0.2289
28920W        W45767   0.367  12.993  14.590  0.1143  0.1973 -0.1650
28921W        W45768   0.723  16.796  15.313  0.3662 -0.1439 -0.0775
28922W        W45769   8.009   5.201   3.305  0.0254 -0.2153  0.0500
28923W        W45770   1.012  13.260  10.329  0.0202 -0.1033  0.1855
28924W        W45771   3.011  13.665   2.651 -0.1581 -0.1367 -0.0105
28925W        W45772   2.960  14.054  14.182 -0.0887 -0.0323  0.0178
28926W        W45773  12.330   2.894  13.350 -0.1894 -0.2033  0.4112
28927W        W45774   7.151  11.603  14.996  0.1698 -0.1782  0.1243
28928W        W45775  17.317   4.338  15.419  0.1066 -0.1744 -0.0690
28929W        W45776  12.826   5.499  11.809  0.1369  0.0770 -0.0583
28930W        W45777   8.415   4.772   2.678  0.2903 -0.1388  0.0876
28931W        W45778  11.109  14.745  14.914 -0.0529  0.0756 -0.0222
28932W        W45779   0.201  16.825   0.528  0.0924  0.0518  0.2626
28933W        W45780   7.498   3.827   2.965 -0.1951  0.1302  0.2879
28934W        W45781  18.390   8.124  15.288  0.0857 -0.0595 -0.1294
28935W        W45782  14.803  14.955   4.677  0.0676 -0.0865 -0.0268
28936W        W45783  11.295   1.118   1.818 -0.3255 -0.0971 -0.1490
28937W        W45784   7.976   9.717  11.406 -0.1156 -0.1411  0.2360
28938W        W45785  10.720   8.190   1.470  0.4428  0.3213 -0.1502
28939W        W45786  14.243  17.943   5.013  0.0798  0.1401  0.0408
28940W        W45787  10.194  12.998   2.406 -0.1875 -0.1567  0.0206
28941W        W45788   1.825   3.795   0.870 -0.1390  0.1551 -0.1684
28942W        W45789   6.273   9.897   3.024  0.0267  0.1540  0.1079
28943W        W45790   7.569  12.288   0.218  0.0820  0.0691  0.3550
28944W        W45791   1.598  15.497  12.973  0.0235 -0.3151 -0.2855
28945W        W45792  14.604   0.978   2.207 -0.1872 -0.4980  0.1590
28946W        W45793   1.522  16.317  14.849  0.1477 -0.1832 -0.2929
28947W        W45794  16.261  12.609  11.563  0.3010 -0.1834  0.0701
28948W        W45795   9.883   8.135  12.929 -0.0273  0.0733  0.1175
28949W        W45796  15.804   6.514  13.115 -0.0173 -0.0654  0.1081
28950W        W45797   1.959   9.933   0.041 -0.0214 -0.0283  0.0771
28951W        W45798  18.058   8.062  14.820 -0.1501  0.2226  0.1224
28952W        W45799  10.354  12.835  13.121  0.1729  0.0733 -0.1431
28953W        W45800   6.243  12.277   5.302 -0.0640 -0.3985 -0.0459
28954W        W45801  15.306  10.860   0.847  0.1634 -0.1766 -0.0786
28955W        W45802  11.847  16.939   3.941  0.2697 -0.2036 -0.0612
28956W        W45803   5.093  17.628  14.742 -0.2094  0.3176 -0.1715
28957W        W45804   0.633   9.046  12.225 -0.3847 -0.0586  0.1429
28958W        W45805  11.912   8.057  14.950 -0.1394  0.1016 -0.0788
28959W        W45806  17.811  14.002  10.467  0.0667  0.2465  0.0612
28960W        W45807  13.619   5.654  14.287 -0.0494 -0.4096  0.1378
28961W        W45808  13.242  17.176   4.174  0.2579  0.1388 -0.1576
28962W        W45809   4.139   2.778  13.115  0.1992  0.4353  0.3432
28963W        W45810  13.483   4.577   4.702  0.2533 -0.3013  0.1840
28964W        W45811  12.850  16.758   1.783 -0.0755 -0.0291 -0.1547
28965W        W45812   1.640  10.535  12.609 -0.0390  0.0193 -0.3454
28966W        W45813   6.152  16.700   3.247  0.0449 -0.1212  0.0860
28967W        W45814   1.343   2.233  14.502 -0.2341 -0.1393  0.3094
28968W        W45815  13.779  10.727  13.827 -0.1275 -0.1141  0.0568
28969W        W45816   6.448   6.806   3.705  0.1285 -0.0003  0.0304
28970W        W45817  10.199  16.574  12.681 -0.3541 -0.0540 -0.0098
28971W        W45818  10.724  10.160  12.520  0.0204 -0.0331  0.0106
28972W        W45819   1.609   0.607  14.718  0.0546 -0.0369  0.1479
28973W        W45820   3.309   1.744   0.845 -0.2463 -0.3659 -0.0825
28974W        W45821  16.562   7.607  11.089 -0.3148  0.2068  0.1533
28975W        W45822   7.375  11.053   0.413  0.0316 -0.2012 -0.2811
28976W        W45823   6.241   4.501  15.598  0.2216  0.0713  0.0452
28977W        W45824   9.165  11.556   0.115 -0.0529 -0.0808  0.1547
28978W        W45825  10.952  15.063  13.461  0.1838  0.2345 -0.1235
28979W        W45826   1.675  11.196   5.058  0.0256  0.0987  0.1931
28980W        W45827   4.649   5.430   1.873 -0.1030  0.0007 -0.1697
28981W        W45828  14.961   2.326  15.828 -0.2443 -0.0741  0.0087
28982W        W45829  13.922  13.163   5.052 -0.3505 -0.0571 -0.1556
28983W        W45830   3.720   2.353   4.673 -0.1791  0.2240 -0.2476
28984W        W45831   5.243  17.277   1.561 -0.0924 -0.0755  0.3647
28985W        W45832   8.126  18.252   3.445  0.1620 -0.2618 -0.1526
28986W        W45833  17.155  15.159  14.910 -0.0781 -0.3859  0.2394
28987W        W45834   0.186   8.681  12.032 -0.1212 -0.1588  0.0107
28988W        W45835   1.576  16.026  12.164  0.0845 -0.1006 -0.1441
28989W        W45836   9.352   8.564  15.747 -0.1287 -0.0401 -0.1475
28990W        W45837   8.048  13.233  15.552  0.1631 -0.2648 -0.1177
28991W        W45838  15.709   7.420   4.973  0.2261  0.0218 -0.2549
28992W        W45839   0.011   3.324   5.399  0.1230  0.1419 -0.0725
28993W        W45840   7.224   5.799  13.955  0.1488 -0.0075  0.1177
28994W        W45841   0.993  13.832   6.413  0.0505 -0.0860 -0.1103
28995W        W45842   5.352  11.637   1.805 -0.0992 -0.1864  0.3776
28996W        W45843   6.925   4.257  13.842 -0.0363  0.0200 -0.3338
28997W        W45844   9.283   7.655  14.074 -0.0646  0.0179  0.1542
28998W        W45845  12.893   7.094  11.299 -0.0981 -0.1699 -0.0564
28999W        W45846   1.318  14.611  14.471  0.0460 -0.0236  0.2748
29000W        W45847   7.903   8.402  11.811  0.1863  0.2296  0.3047
29001W        W45848  14.967  12.913   5.745 -0.1643  0.1680  0.1307
29002W        W45849  16.010   6.634  13.847  0.2428 -0.1560  0.1535
29003W        W45850  18.092   0.991   4.868  0.2346  0.1609 -0.0039
29004W        W45851   3.008  17.480   4.610  0.0754  0.2275  0.2269
29005W        W45852  11.945   7.602  13.037 -0.0516 -0.0815  0.0695
29006W        W45853   4.429  18.432   0.879 -0.1681 -0.1952 -0.2258
29007W        W45854  11.218  16.621   5.310 -0.2893 -0.1918  0.1289
29008W        W45855   2.113  15.023  11.565  0.1104  0.2337 -0.3007
29009W        W45856  18.303   0.332   5.073  0.4184 -0.5882  0.0493
29010W        W45857   3.151   9.643   5.598  0.1841  0.4194  0.4878
29011W        W45858   0.910  14.146   5.433 -0.2251 -0.0707 -0.1554
29012W        W45859   6.526   0.613  12.943 -0.0093  0.0125 -0.2581
29013W        W45860  16.191   3.246  13.682  0.1142  0.0015 -0.0066
29014W        W45861  12.108   7.174   4.063 -0.0520  0.1428 -0.0987
29015W        W45862   0.591  16.805   1.100  0.1604 -0.0004  0.2069
29016W        W45863  18.007   9.899   0.579 -0.0383  0.3244  0.0040
29017W        W45864   1.462  13.222   2.904  0.1293  0.0445 -0.0137
29018W        W45865  13.397  13.967   3.108  0.0605  0.1854 -0.2797
29019W        W45866  17.423   5.379  13.391  0.1915 -0.1895 -0.1174
29020W        W45867  18.350   0.777   5.377  0.1198  0.1308 -0.2326
29021W        W45868   1.085   4.075   2.134  0.1024 -0.2138 -0.1571
29022W        W45869  11.956   0.850   4.634  0.0190  0.0909 -0.0913
29023W        W45870   5.356  13.639   3.378 -0.1943 -0.1856  0.0509
29024W        W45871   1.077   0.245   4.336 -0.2115 -0.2297  0.0551
29025W        W45872  15.779   1.462   1.714  0.2336  0.1611 -0.1203
29026W        W45873  16.218   7.324  11.805  0.1342  0.2890  0.1725
29027W        W45874   2.185  10.119  14.479 -0.1438 -0.0664 -0.3266
29028W        W45875   6.466   4.154  13.017 -0.2062 -0.0856  0.1293
29029W        W45876   0.922   6.091  15.575 -0.0656  0.1986 -0.1063
29030W        W45877  12.659  18.454  13.960  0.0561  0.0307  0.3819
29031W        W45878   7.616  10.190   4.946 -0.2330 -0.1498  0.1924
29032W        W45879  14.308  13.399  15.816  0.2805 -0.0746  0.0701
29033W        W45880  15.676   4.212   2.756  0.0340  0.0127 -0.0101
29034W        W45881  10.806  13.773  10.428  0.2076  0.0217 -0.0014
29035W        W45882   2.867  14.848   3.548 -0.1599 -0.0454  0.1631
29036W        W45883   7.796   4.902  12.162  0.1197 -0.0936 -0.0306
29037W        W45884   6.278  18.472   1.142  0.0411  0.0848 -0.0112
29038W        W45885  12.111   3.415  12.575  0.1608 -0.2588 -0.1649
29039W        W45886  12.081  12.217  11.614  0.1273 -0.1494 -0.0582
29040W        W45887   6.347   1.717   2.283 -0.0681 -0.1065 -0.0608
29041W        W45888   6.898   5.872  15.044 -0.0639 -0.1302 -0.1047
29042W        W45889   8.104  10.653  13.396 -0.0609  0.0653 -0.0896
29043W        W45890   0.135  13.835   0.846  0.4497  0.2485  0.2782
29044W        W45891   3.057   1.091   3.736 -0.0362  0.3034 -0.3975
29045W        W45892  17.498   6.957  15.580  0.1717  0.0638  0.0555
29046W        W45893   3.908  14.120   2.769  0.0241 -0.0978 -0.0265
29047W        W45894  16.848  17.159  12.758 -0.0166 -0.0424  0.0410
29048W        W45895  11.512   3.744  12.886 -0.1495  0.1328 -0.1523
29049W        W45896  17.843   1.353   3.709  0.1013 -0.0738  0.0407
29050W        W45897   8.182   5.935  14.798  0.1089  0.3475  0.2827
29051W        W45898  12.161  10.185   4.225 -0.0716  0.1383  0.1052
29052W        W45899   3.059  11.675  15.681 -0.1040 -0.0919 -0.0606
29053W        W45900   9.873  10.442  13.882 -0.1804 -0.1390 -0.4518
29054W        W45901  12.366  16.768  13.186 -0.3165 -0.1697 -0.0437
29055W        W45902  11.915   9.140   2.748  0.3563  0.2764 -0.0380
29056W        W45903  17.810  17.762   0.006 -0.4835  0.3657 -0.1161
29057W        W45904  17.330   4.395  14.889  0.2363 -0.1274 -0.0310
29058W        W45905  15.861   1.787  11.734  0.2942 -0.0497 -0.2278
29059W        W45906  18.059  16.896  11.507  0.1607  0.0168 -0.0433
29060W        W45907  11.664  10.492  11.113 -0.0311  0.3333  0.1243
29061W        W45908  14.991   7.270   0.811 -0.0669  0.0156 -0.0820
29062W        W45909   8.551  16.167  15.696 -0.0118 -0.3039  0.1050
29063W        W45910   5.166   7.236  12.228 -0.0778  0.2923  0.1717
29064W        W45911   4.881   3.032   5.229 -0.0840 -0.2448 -0.5220
29065W        W45912  13.728  12.093   1.864  0.1739  0.1932  0.0279
29066W        W45913   5.274  17.849  15.162  0.0265 -0.0241  0.2868
29067W        W45914  15.755   3.480  15.771 -0.2150  0.0191  0.0725
29068W        W45915  12.038   7.500   2.381 -0.0066  0.0049 -0.1658
29069W        W45916  15.460   6.487  13.504 -0.0157  0.0133 -0.1092
29070W        W45917   3.339  17.162  15.927 -0.0911 -0.2435  0.0260
29071W        W45918  13.668   6.195  15.771  0.0187  0.4960 -0.0875
29072W        W45919  14.117   7.376  11.782  0.0989  0.2070  0.0845
29073W        W45920   3.533   2.300  14.491 -0.0317 -0.0489 -0.2369
29074W        W45921   3.706   0.251   1.681  0.0470  0.3552 -0.2982
29075W        W45922  11.182  14.800   5.431  0.2757 -0.1584  0.0431
29076W        W45923   6.695  15.047  11.774 -0.2435 -0.0684  0.0508
29077W        W45924  15.301  15.669   4.315  0.1638  0.0075  0.0470
29078W        W45925   4.329  16.035   4.883 -0.0654  0.0911 -0.1453
29079W        W45926   9.175   3.640   1.619 -0.0544  0.1211  0.3511
29080W        W45927   0.009   3.484  10.251 -0.0971 -0.2619  0.0179
29081W        W45928  11.824  16.596   2.580 -0.1730  0.2617 -0.0861
29082W        W45929   0.409  12.296  12.187  0.0526  0.1996  0.1655
29083W        W45930  13.597   2.731  13.478 -0.2392  0.0568 -0.2247
29084W        W45931  11.610   0.468   1.385 -0.0818  0.0243 -0.0442
29085W        W45932   0.287  10.127  12.059  0.1048 -0.0886 -0.3757
29086W        W45933  15.685  11.763   5.046 -0.2155 -0.0761  0.2306
29087W        W45934  15.796  17.206   1.650 -0.0762  0.0485 -0.0305
29088W        W45935  11.234   7.397  10.808  0.1823  0.1625 -0.0104
29089W        W45936   5.047   7.850   0.334 -0.0761 -0.0587  0.0749
29090W        W45937  14.129  10.165  13.549  0.1791 -0.0684 -0.3035
29091W        W45938   1.772   6.564   2.327 -0.0750  0.2110 -0.0960
29092W        W45939   9.277  11.862   4.091  0.1506  0.0114  0.0145
29093W        W45940   1.851  10.413  15.783 -0.0465 -0.2676  0.0107
29094W        W45941   3.091  15.150  11.863 -0.1006 -0.2845  0.0042
29095W        W45942   4.410   2.321   1.418  0.3782 -0.0856 -0.3466
29096W        W45943   7.224  12.095  14.920  0.1083  0.3377  0.0837
29097W        W45944  12.913   1.355  14.355 -0.2139 -0.0110 -0.1883
29098W        W45945   9.102  15.098   2.580  0.1653 -0.2502  0.2570
29099W        W45946   6.443   1.139  12.685  0.0767 -0.0203 -0.3292
29100W        W45947  17.628  12.997  13.938  0.1185 -0.0896  0.0753
29101W        W45948  10.281  12.620   3.324  0.2822  0.1019 -0.1184
29102W        W45949  13.841  16.479  13.820 -0.1482 -0.3090 -0.1017
29103W        W45950   5.841  11.524  14.967  0.0374 -0.1275  0.3768
29104W        W45951   0.407  17.988  13.458  0.0138  0.0372  0.1146
29105W        W45952   6.735   5.236   1.640 -0.1396 -0.1242 -0.3979
29106W        W45953   8.802   0.492  11.698  0.0123  0.1924  0.0511
29107W        W45954   1.101   8.802   2.354  0.2814  0.1487 -0.2454
29108W        W45955   2.261   2.051   4.032 -0.2328 -0.2487 -0.0627
29109W        W45956  13.934  17.049   0.147  0.3385  0.0244  0.2125
29110W        W45957   6.663  12.591   3.066 -0.1346 -0.0301 -0.0065
29111W        W45958   5.097   6.048   0.441  0.2481 -0.3170 -0.0114
29112W        W45959  16.149  14.685  11.355 -0.1430  0.2438 -0.1016
29113W        W45960  11.820   3.028  14.868 -0.1533  0.0727  0.0991
29114W        W45961   3.852  13.690  13.741  0.0075  0.3146  0.1791
29115W        W45962  12.994   6.949  12.695 -0.1846  0.2344  0.0696
29116W        W45963  18.185  18.162  11.310 -0.1419  0.0534 -0.2403
29117W        W45964   7.894   5.953  15.137  0.0491  0.0542 -0.2081
29118W        W45965  16.676   7.416  15.512 -0.1334 -0.0385  0.1432
29119W        W45966  14.952   2.133  13.459 -0.3240  0.1270 -0.0157
29120W        W45967  14.513   1.700   1.485  0.1106  0.0566  0.1309
29121W        W45968   7.407  11.188  12.092 -0.0666 -0.1345  0.0823
29122W        W45969   0.814  10.404   0.183 -0.0026  0.0477 -0.2243
29123W        W45970   6.477   3.825   3.507  0.0775 -0.0924 -0.4002
29124W        W45971  15.997  16.339   3.510  0.2964 -0.3188  0.0260
29125W        W45972   9.355  14.574  11.140 -0.2159  0.0227 -0.2308
29126W        W45973  18.499  13.321   5.274 -0.1201  0.0695  0.1886
29127W        W45974  17.601  14.932  11.901  0.0196 -0.1764 -0.1294
29128W        W45975  18.101  14.081   4.667  0.2151  0.0007 -0.0763
29129W        W45976   9.653  11.713   3.699  0.0169  0.2177  0.1211
29130W        W45977  12.753  18.026  10.097  0.0223  0.0009 -0.5172
29131W        W45978  17.099   3.915  13.792  0.3526 -0.2280  0.2555
29132W        W45979  18.535  15.403  14.248  0.2316  0.2136  0.1912
29133W        W45980   2.228  10.348   4.148  0.0411 -0.0120 -0.4162
29134W        W45981   7.343   3.038   0.273 -0.1458 -0.0557  0.0601
29135W        W45982   1.022   0.669   5.768  0.3799  0.4306  0.0943
29136W        W45983  10.648   2.005   1.319 -0.0084  0.0973 -0.0858
29137W        W45984  10.124   7.732   3.748  0.1213  0.2513 -0.4112
29138W        W45985   6.888   2.493  13.545 -0.0967 -0.0086  0.1429
29139W        W45986  13.095  16.819   2.209 -0.3121 -0.0017 -0.1126
29140W        W45987   7.236   0.561   0.089  0.2027 -0.0202  0.2560
29141W        W45988  12.269  15.674  13.059 -0.0574  0.2347 -0.1254
29142W        W45989   2.099  14.984  12.383  0.1917 -0.2915  0.2215
29143W        W45990  15.847   5.634   4.972 -0.1966  0.2198  0.2542
29144W        W45991   9.755   4.051  12.994 -0.2504 -0.0268  0.1499
29145W        W45992  14.191   5.048   5.979 -0.1219  0.1497 -0.0277
29146W        W45993   0.198   9.656  11.666  0.0019 -0.1913  0.0938
29147W        W45994  18.115  16.791  13.740  0.0688  0.1170  0.2510
29148W        W45995   8.571  13.583  13.527 -0.1546  0.0359 -0.2374
29149W        W45996   9.433   0.413   0.932 -0.2301  0.0683  0.0156
29150W        W45997  10.272   6.362  15.421  0.1681 -0.2236  0.4395
29151W        W45998   8.914  15.455  11.559 -0.1834 -0.0475 -0.2761
29152W        W45999  13.016   4.994  14.024  0.1512  0.1926  0.2800
29153W        W46000  15.150   1.950   3.877  0.1068 -0.1940 -0.3854
29154W        W46001  15.006   6.502   5.230 -0.1631 -0.1059  0.0536
29155W        W46002  10.567  11.510  10.351 -0.5762  0.1236  0.0514
29156W        W46003   1.115   7.043  11.886 -0.0968  0.2310  0.0159
29157W        W46004  12.582   9.113  15.208 -0.1407 -0.0652 -0.0040
29158W        W46005  13.563   0.388   3.015  0.0304  0.1516 -0.1989
29159W        W46006   4.553  14.530  15.262  0.0578 -0.0787 -0.2141
29160W        W46007  15.328   1.100   0.491  0.2037  0.1564 -0.0944
29161W        W46008  16.688   5.894   1.884  0.1658 -0.1629  0.3695
29162W        W46009  18.291  18.438   4.739  0.0158 -0.0145  0.0645
29163W        W46010   8.684  11.245  13.937  0.1038  0.2957 -0.0629
29164W        W46011  14.090  12.554  12.904 -0.1062 -0.0546  0.0914
29165W        W46012  14.315   4.423   3.668 -0.0466 -0.1258 -0.0602
29166W        W46013   9.006   1.336   4.079 -0.4009  0.0502 -0.1002
29167W        W46014   5.732   2.780   3.841 -0.3015 -0.1515  0.0982
29168W        W46015  15.538  18.195   3.540 -0.0949  0.3651 -0.0694
29169W        W46016  16.201   7.563   4.638 -0.2308 -0.0864  0.0597
29170W        W46017   7.703   8.507   3.695  0.1153  0.0147 -0.1449
29171W        W46018   3.958   2.398   1.605 -0.0121  0.1346  0.0924
29172W        W46019  12.545   0.625   3.970 -0.1514 -0.0844  0.0569
29173W        W46020  17.455   0.842   5.571 -0.1189 -0.3585 -0.1317
29174W        W46021  11.006  14.839   0.242 -0.1853 -0.0451  0.1351
29175W        W46022  12.424  18.333  13.193 -0.2219  0.0293 -0.1350
29176W        W46023   9.794   4.297  15.889  0.4312 -0.0922  0.0452
29177W        W46024   8.283  11.549  11.554  0.3214 -0.0349 -0.0510
29178W        W46025   1.888   8.753   6.027 -0.0604  0.0820  0.1320
29179W        W46026  12.556  12.688   2.054  0.2043 -0.0061 -0.1018
29180W        W46027  10.724  13.442   2.694  0.0040  0.1206 -0.0051
29181W        W46028  13.402   7.446   3.630 -0.0570 -0.1067  0.3278
29182W        W46029  13.667   7.382   2.771  0.1716 -0.2022  0.2316
29183W        W46030  17.476  11.549   0.213 -0.2654  0.3650 -0.2616
29184W        W46031  15.554   1.493   3.242 -0.3316  0.0194  0.1976
29185W        W46032  10.955   0.040   2.500 -0.0067 -0.3865 -0.5293
29186W        W46033   7.863   6.493   0.326  0.1813  0.0923  0.0379
29187W        W46034  14.243  16.094  15.273 -0.0938  0.1854  0.1000
29188W        W46035   2.035   5.759   1.368  0.1679 -0.0271 -0.0739
29189W        W46036   2.813  16.882   2.213 -0.0317 -0.0146 -0.1103
29190W        W46037  15.191  14.385  13.434 -0.1208 -0.1497  0.0119
29191W        W46038   3.137   7.522  12.060 -0.1757 -0.0228 -0.0727
29192W        W46039  12.691   4.651   1.238  0.0683 -0.1421  0.0891
29193W        W46040  11.331  12.720  13.860 -0.3020 -0.3249  0.1624
29194W        W46041   0.357  14.496  13.935  0.0930 -0.0814 -0.0125
29195W        W46042   0.084  17.582  12.717  0.0392 -0.1731  0.2412
29196W        W46043   6.597   7.091  13.904 -0.1119  0.0426  0.2123
29197W        W46044  10.389  12.442   4.212  0.0938 -0.1450  0.1609
29198W        W46045   5.737  18.311   4.098 -0.2173  0.1458  0.1492
29199W        W46046   2.757  16.835  14.974 -0.3810  0.0751 -0.1500
29200W        W46047   2.586   1.772  12.476 -0.2235 -0.0256  0.0046
29201W        W46048  10.388   0.571   3.716  0.3249 -0.1345  0.2865
29202W        W46049   3.741   6.806   1.386  0.0070  0.1354 -0.0356
29203W        W46050   6.714  13.652  14.356 -0.1084  0.0922 -0.1405
29204W        W46051   0.092  11.116  14.598 -0.0014 -0.0736  0.0353
29205W        W46052  10.645  11.781  15.147 -0.2140 -0.0406  0.0233
29206W        W46053  10.012   9.873  13.132 -0.5174 -0.1332 -0.1584
29207W        W46054  12.943   9.246  10.936 -0.1003  0.2771  0.0250
29208W        W46055   8.471   2.301   0.469 -0.1326 -0.0966 -0.2001
29209W        W46056   8.299  16.954  12.086 -0.5101 -0.1914  0.1271
29210W        W46057  17.088  17.525   0.523  0.0376 -0.0234  0.0967
29211W        W46058  12.460   8.317  11.965  0.2312 -0.0473  0.2223
29212W        W46059  10.387   1.747  13.629 -0.2541  0.0748  0.2049
29213W        W46060   0.588   2.020  11.319 -0.1797 -0.2713 -0.2253
29214W        W46061  15.795  11.723   2.755 -0.1373 -0.0051  0.2025
29215W        W46062   1.166  10.216  14.240 -0.0008  0.0547 -0.1205
29216W        W46063   7.275  10.156  15.883  0.2521  0.4068  0.4118
29217W        W46064   2.910   4.365   3.411 -0.2023 -0.0541 -0.4746
29218W        W46065   3.133   4.675  10.823  0.0413  0.1710  0.0567
29219W        W46066   7.091  15.862  10.427  0.0571  0.1600 -0.4794
29220W        W46067  12.843  13.513  11.518  0.1372 -0.0849  0.0602
29221W        W46068   1.296   8.173   1.525 -0.1296 -0.1380 -0.0575
29222W        W46069  14.305   9.747   4.085 -0.2315 -0.2494  0.0374
29223W        W46070   8.910   8.640  13.189 -0.0409  0.0414  0.2188
29224W        W46071   1.206  14.495  13.927 -0.0431 -0.1636 -0.0904
29225W        W46072   7.055  18.208  14.252  0.0283  0.0671  0.3183
29226W        W46073   2.124   6.749  14.732 -0.2071 -0.0006  0.1677
29227W        W46074   2.637  15.040   5.080 -0.0824  0.0819 -0.1361
29228W        W46075   7.045  15.006  13.791  0.1811 -0.2414  0.1589
29229W        W46076  14.643   7.971  15.191 -0.3035  0.1477 -0.0806
29230W        W46077  14.443   8.278  13.294 -0.1624  0.1218 -0.0906
29231W        W46078   2.110   3.922   4.798 -0.1195 -0.3737  0.0310
29232W        W46079  18.010   2.599  12.490  0.0474 -0.3301 -0.1251
29233W        W46080   9.470  16.910   2.322 -0.1036  0.3521 -0.0433
29234W        W46081  12.314   7.692   5.163  0.0465 -0.0499  0.0908
29235W        W46082  13.263  13.167   3.095  0.0564  0.1371 -0.0050
29236W        W46083   3.316  12.752  13.158  0.1154 -0.2098  0.2863
29237W        W46084  12.163  14.157  13.517 -0.1202  0.0512 -0.1919
29238W        W46085  17.194  15.641  14.725  0.1130  0.3345 -0.1254
29239W        W46086   8.192   7.559   1.112 -0.1800 -0.0924  0.0721
29240W        W46087   1.986   3.591   9.875 -0.1453  0.0661 -0.1506
29241W        W46088  12.469   6.752   1.838  0.3305 -0.0130 -0.1347
29242W        W46089   6.727   5.898  13.699 -0.0317 -0.1673  0.1006
29243W        W46090   5.478  11.904   0.210  0.0278  0.0559  0.0599
29244W        W46091  13.172   1.393  11.811 -0.2531  0.0811 -0.0616
29245W        W46092  14.583   7.724  13.297 -0.2074 -0.2603 -0.1165
29246W        W46093   8.597   9.992   2.563 -0.3071  0.0659  0.1798
29247W        W46094  13.158  15.328   4.754  0.3705 -0.1512 -0.1622
29248W        W46095  15.085  12.369   4.253  0.2780 -0.1149  0.0712
29249W        W46096   2.534  17.497   2.784 -0.3077 -0.2470  0.1086
29250W        W46097  12.635  16.667  13.667 -0.3032 -0.2715 -0.0094
29251W        W46098   0.288   6.673   3.984 -0.3319  0.0108  0.0360
29252W        W46099  11.479  16.688   0.345 -0.5147 -0.1659 -0.0918
29253W        W46100  11.115   9.848  13.857  0.0293  0.1601 -0.0904
29254W        W46101   9.424   8.244  15.349  0.0374  0.3659 -0.1010
29255W        W46102   0.269  13.381   3.146  0.0717 -0.1256 -0.0216
29256W        W46103   1.948  12.805   3.479 -0.0829  0.0481 -0.1221
29257W        W46104   4.905  16.532  12.754  0.2581 -0.0950 -0.3088
29258W        W46105  16.516  10.139   2.804 -0.1126 -0.1293  0.1292
29259W        W46106  18.430  17.489   1.285  0.3063 -0.0039 -0.1616
29260W        W46107   7.696  10.965   0.012 -0.0504  0.0151 -0.2919
29261W        W46108   2.145  16.727   0.690 -0.5796  0.1308  0.0280
29262W        W46109   6.001  12.449   3.098  0.0426  0.0027  0.0087
29263W        W46110   6.902   2.788   0.369  0.0360 -0.0101  0.3139
29264W        W46111  18.264   0.089  14.921 -0.0513  0.1223 -0.1444
29265W        W46112   0.488   9.428   5.221  0.0459  0.2152  0.0106
29266W        W46113   8.233   2.889  14.956 -0.0772  0.0726 -0.1511
29267W        W46114  10.033   0.114   2.578  0.0228  0.0497 -0.0979
29268W        W46115   9.295   0.045   4.560 -0.2336  0.1223  0.1944
29269W        W46116   2.364  11.392  14.250 -0.0938 -0.1345 -0.0530
29270W        W46117   7.188  10.633  11.426  0.0245 -0.1915  0.2505
29271W        W46118   1.636   1.867  13.870  0.5283  0.3444  0.0556
29272W        W46119  12.479  10.186  13.655  0.1266 -0.3477  0.0051
29273W        W46120   0.286   4.907  13.260  0.2629  0.1111  0.1589
29274W        W46121   5.954   1.140   5.296 -0.0462  0.1789  0.1415
29275W        W46122  13.810  14.730  12.105  0.1139  0.0405  0.1733
29276W        W46123  18.263   8.036  14.127  0.2972 -0.1011  0.1323
29277W        W46124   8.457  17.517   2.157  0.3926  0.0216 -0.1022
29278W        W46125  14.995   2.111   2.688 -0.2523  0.0696 -0.3244
29279W        W46126  17.936   6.512   3.354  0.2334  0.0778  0.1610
29280W        W46127   0.078   2.500   1.523 -0.0229  0.1964  0.0686
29281W        W46128   7.926   2.315   2.604 -0.0073  0.0521  0.0492
29282W        W46129   4.038   5.378  11.152  0.1246 -0.2971 -0.3459
29283W        W46130  17.492   5.696   3.555  0.0982 -0.3284 -0.0423
29284W        W46131  16.788  16.802   0.468 -0.1077  0.0463 -0.1926
29285W        W46132   3.718   9.599   2.238 -0.0822  0.1876  0.0009
29286W        W46133   0.721   3.802   1.940  0.0759  0.2585  0.0940
29287W        W46134   7.361  16.620  11.499  0.3853  0.0353  0.3125
29288W        W46135   1.098   0.734   1.590 -0.2210  0.2303 -0.0249
29289W        W46136  18.108   4.014  13.622  0.2443 -0.2450  0.0456
29290W        W46137  13.942  13.338  14.176 -0.2757 -0.2714 -0.0582
29291W        W46138   1.545  13.736  13.744  0.0346  0.2276 -0.1163
29292W        W46139   1.016   4.321  13.219  0.2675 -0.0151 -0.0979
29293W        W46140  11.094  11.639   4.835 -0.2879 -0.1469  0.0972
29294W        W46141   2.486   5.852  15.121  0.0671 -0.1892 -0.0283
29295W        W46142  12.373   0.777   1.362  0.0040  0.0718  0.0653
29296W        W46143  10.657  12.067  13.505  0.2737 -0.1707  0.0433
29297W        W46144  17.837   0.389   0.731  0.2236  0.1543 -0.1732
29298W        W46145  14.975  18.151  11.838 -0.1965 -0.2437 -0.4362
29299W        W46146   6.199   1.128  12.194 -0.1385  0.0919  0.0923
29300W        W46147   7.952   1.412   1.052  0.2432  0.3695  0.2192
29301W        W46148   9.901  14.715   0.027 -0.3704  0.1297 -0.0704
29302W        W46149   2.540  10.635   4.993 -0.2761 -0.1166 -0.1128
29303W        W46150   2.560   4.077   4.421 -0.0614 -0.1506 -0.0519
29304W        W46151  17.975   3.893   2.722 -0.3186  0.0536  0.1755
29305W        W46152  12.892  13.232   4.297  0.1104  0.2426  0.0725
29306W        W46153   5.809   0.579   2.806 -0.0317 -0.0812  0.2118
29307W        W46154   2.376  12.350   4.772 -0.1228  0.0096 -0.0953
29308W        W46155  18.445  11.685   3.351 -0.1700 -0.1654  0.2388
29309W        W46156  10.318  14.224   0.388  0.1579 -0.0530  0.1251
29310W        W46157   7.685   4.367   0.155 -0.0507  0.1126 -0.0052
29311W        W46158   5.847   5.108  15.532 -0.2477 -0.0411 -0.0558
29312W        W46159   9.314  17.002  15.788  0.2413 -0.1084 -0.0800
29313W        W46160   8.177   7.659  14.830 -0.0213  0.2332 -0.1399
29314W        W46161   6.618  15.859  11.537 -0.0394 -0.0765 -0.0964
29315W        W46162   7.084   9.674   0.699  0.2026  0.0434 -0.3214
29316W        W46163  14.029  10.983  13.447  0.1033  0.1724  0.2495
29317W        W46164   1.530   9.765  15.244  0.0886  0.0043  0.1671
29318W        W46165  13.825  17.755  15.714 -0.0174  0.3514  0.0269
29319W        W46166  14.957  18.151   5.253  0.2482  0.5160  0.3105
29320W        W46167  13.743   1.837  14.011 -0.1602  0.2557 -0.2643
29321W        W46168   3.402   5.869   4.239  0.0818  0.0516 -0.1789
29322W        W46169  11.510   1.399   3.513  0.2854  0.2501  0.0582
29323W        W46170   5.087  13.549  13.194  0.4455 -0.1021  0.3569
29324W        W46171   7.594   6.023   1.051 -0.0384 -0.1076 -0.4544
29325W        W46172   0.422   1.343   0.577  0.2082 -0.2348 -0.0730
29326W        W46173   2.296   7.492  12.182 -0.2442 -0.1699 -0.0803
29327W        W46174   7.449   8.552   5.024 -0.1188 -0.1071  0.0780
29328W        W46175  18.379   1.375   1.273 -0.0395 -0.0970  0.1394
29329W        W46176  16.233   5.090   2.024 -0.0851  0.3904  0.3501
29330W        W46177   9.113  13.857   4.712  0.0805  0.2357 -0.1680
29331W        W46178   9.710   7.405  11.320  0.1329  0.0738  0.0218
29332W        W46179   4.267  12.037   1.251  0.0311  0.1262 -0.1664
29333W        W46180   7.439   9.470  12.170  0.0004  0.1397  0.2002
29334W        W46181   9.243  14.673  12.616  0.1823 -0.3099  0.2831
29335W        W46182  16.949   4.988   3.215 -0.0048  0.1651  0.1718
29336W        W46183  17.829   7.537  14.808  0.1875 -0.1634  0.1082
29337W        W46184  10.245   7.326   5.097 -0.2046 -0.0735  0.3164
29338W        W46185  15.897  16.161  11.615  0.1790 -0.1361 -0.0038
29339W        W46186   2.962   0.920   0.835 -0.2052 -0.0701  0.0474
29340W        W46187   2.267   7.206   1.387  0.0394 -0.3287  0.5366
29341W        W46188  14.023  16.016   5.131  0.2094 -0.1732  0.1962
29342W        W46189  18.345   0.857  15.929  0.1886  0.1881  0.1576
29343W        W46190   1.376  18.100   3.567 -0.0075  0.1439 -0.1211
29344W        W46191   6.831  17.925  13.378  0.1122  0.0522  0.3001
29345W        W46192  11.519   3.913   0.271  0.0989 -0.1468  0.0622
29346W        W46193  14.631  12.992  11.650  0.2239  0.3816  0.2476
29347W        W46194  16.569   5.319   3.007  0.1208 -0.2302  0.1361
29348W        W46195  10.214   4.877   3.206 -0.2064 -0.0753  0.4136
29349W        W46196  12.843   3.153  11.344  0.1575 -0.2003  0.3601
29350W        W46197  13.065   1.325   5.425  0.0101  0.1138  0.0945
29351W        W46198  14.872  14.653   2.732 -0.2013 -0.1653  0.2366
29352W        W46199   7.617  11.268  15.182  0.1259 -0.2666  0.0386
29353W        W46200  14.099  16.146  12.404  0.1514 -0.3383  0.1561
29354W        W46201   4.164  11.539  11.923  0.1752  0.0693  0.0414
29355W        W46202   5.261  10.526  14.049  0.1439  0.2065  0.0349
29356W        W46203   8.567  15.677  15.824  0.0152  0.0925  0.2864
29357W        W46204  17.285   8.644   4.423  0.3688  0.0307 -0.1146
29358W        W46205  12.103   9.115  15.057 -0.0315  0.3076  0.0115
29359W        W46206   9.599   3.087   4.317 -0.2989  0.0799  0.0726
29360W        W46207   8.486  16.031   3.466 -0.2557  0.1282 -0.0530
29361W        W46208  18.286   5.112  15.469 -0.0356  0.0956 -0.1422
29362W        W46209   4.204  14.090   1.326  0.1445 -0.2058 -0.1688
29363W        W46210   0.767  10.879   2.009 -0.2263 -0.1616  0.0240
29364W        W46211   8.838   9.756   3.652  0.3945  0.0080  0.4007
29365W        W46212  17.225   6.625   4.539 -0.0709 -0.0675 -0.2113
29366W        W46213   8.889   8.542  11.455  0.0219  0.1719 -0.1025
29367W        W46214   4.274   3.311   0.275 -0.1096 -0.0048  0.0712
29368W        W46215   6.419   4.501   4.119  0.2299 -0.0947  0.1854
29369W        W46216  10.085   1.260  15.928  0.0688 -0.1652  0.1944
29370W        W46217   5.786  17.490   4.942  0.0030 -0.2521  0.1023
29371W        W46218  18.354   6.767  13.306 -0.0600  0.2422 -0.2757
29372W        W46219  14.880  16.444   2.780  0.0204  0.2749 -0.1773
29373W        W46220  13.289  16.354  13.642 -0.0803  0.0513 -0.0259
29374W        W46221   5.229  17.107   4.855 -0.0383  0.0001 -0.0612
29375W        W46222   8.866   1.299   1.045 -0.0399  0.1006  0.2058
29376W        W46223   6.994  10.743   1.533 -0.1141  0.1111  0.2043
29377W        W46224   0.854   7.986   1.410 -0.0567  0.2448 -0.3018
29378W        W46225   6.276  11.092   0.853  0.0629  0.0114 -0.1703
29379W        W46226  13.115  17.613   4.354  0.2607  0.2961  0.2169
29380W        W46227   1.677  17.851  15.521  0.2195 -0.0415  0.3894
29381W        W46228  12.861   8.406   1.233  0.1517 -0.1563 -0.1160
29382W        W46229   0.543   5.234  14.796 -0.0583 -0.0004 -0.0255
29383W        W46230   4.783  17.594  12.420  0.3357 -0.1608  0.2233
29384W        W46231   0.856  18.306   0.596  0.0334 -0.1908 -0.2933
29385W        W46232   4.910  14.400   1.386  0.0901  0.2640 -0.4286
29386W        W46233   8.142   7.308  13.255 -0.0439 -0.0680  0.0974
29387W        W46234   5.076   7.008   3.997 -0.0728  0.2844 -0.2273
29388W        W46235   2.315  16.173   1.852 -0.0215 -0.1176  0.1733
29389W        W46236   0.821   1.035   1.954 -0.1554 -0.0032  0.0828
29390W        W46237  17.424   4.008   0.328 -0.3827 -0.2132  0.1725
29391W        W46238   2.493   4.353   0.618  0.3976  0.1316  0.2194
29392W        W46239   8.228   6.742  12.782 -0.0310  0.0135 -0.2097
29393W        W46240   2.649   2.634   3.384 -0.0500  0.3026  0.1750
29394W        W46241   0.451   5.359  15.286  0.2228 -0.2123 -0.0588
29395W        W46242   3.946   7.429  11.283  0.2952 -0.1241  0.1701
29396W        W46243   7.535   0.704   4.459  0.1360 -0.2542 -0.0636
29397W        W46244   6.400  13.754   1.072  0.1607  0.1388 -0.0987
29398W        W46245   3.912  15.715  11.627 -0.0529  0.0420 -0.0163
29399W        W46246  13.965  12.078   2.341  0.0684 -0.2590  0.1573
29400W        W46247  12.228   9.301  12.873  0.1178  0.0643 -0.3956
29401W        W46248  16.417   0.056  14.083  0.0220  0.0625 -0.0086
29402W        W46249  15.444  15.060   2.615 -0.0919 -0.1641  0.1374
29403W        W46250  15.685   7.466   1.317 -0.2304  0.0661 -0.0165
29404W        W46251   9.689   3.949  11.060  0.0437 -0.0107  0.1893
29405W        W46252  10.087   5.203  15.473 -0.0673 -0.0976 -0.2694
29406W        W46253   2.314  16.013   1.275  0.0207  0.1297  0.0403
29407W        W46254  15.898   8.593   3.745 -0.0429  0.3613  0.0110
29408W        W46255   4.612   4.958  14.968  0.1249  0.1358  0.4179
29409W        W46256  13.883  17.582  10.937  0.1992 -0.0321  0.2219
29410W        W46257  15.102   5.023  14.025  0.4921  0.0671 -0.0060
29411W        W46258   1.358   3.317   2.962 -0.0943  0.0680 -0.0641
29412W        W46259   8.818   2.476  13.176  0.1676  0.2765 -0.1538
29413W        W46260  14.460   6.112  12.604 -0.2599 -0.3433 -0.3221
29414W        W46261   1.646  14.974   0.001 -0.0996 -0.0629  0.1094
29415W        W46262   7.747  11.393   0.279 -0.0912  0.0970 -0.1953
29416W        W46263  13.685  10.773   0.195 -0.1989 -0.0606 -0.1555
29417W        W46264   3.234   6.493   0.445 -0.0629  0.2093 -0.1482
29418W        W46265  15.222   3.085  11.788 -0.0164 -0.1023 -0.3554
29419W        W46266   6.143   9.900  12.062  0.1170  0.1002 -0.1107
29420W        W46267   6.654   1.518  15.906  0.3404  0.1199 -0.4072
29421W        W46268   2.027   6.258  13.506  0.0014  0.2981 -0.1903
29422W        W46269   2.670  17.179   1.722  0.1383 -0.0798  0.0440
29423W        W46270   1.795  18.402  14.397 -0.0880 -0.0166  0.0192
29424W        W46271   8.214   2.037  13.549  0.0674 -0.0645 -0.1339
29425W        W46272   7.460   3.360  14.366 -0.1141 -0.0736 -0.1780
29426W        W46273   5.698  10.875   2.206  0.1657  0.0545  0.0376
29427W        W46274   3.757   0.785  14.667  0.0399  0.2868 -0.1383
29428W        W46275   7.973   1.767  12.167 -0.0719  0.1498  0.2468
29429W        W46276  15.976  16.183  13.303 -0.0346  0.0339 -0.1002
29430W        W46277  12.296   3.951  15.261 -0.1438 -0.1247  0.2285
29431W        W46278   3.970  17.251  14.160  0.1134 -0.2026  0.1845
29432W        W46279  13.427  15.023  14.022 -0.0258 -0.2189  0.2717
29433W        W46280   7.144   2.801  12.576  0.1534 -0.3255  0.0815
29434W        W46281   8.793  17.181   0.830  0.0931  0.3064 -0.2288
29435W        W46282   3.478   8.132  12.339 -0.1403  0.4352  0.0122
29436W        W46283  13.111  12.174  13.694  0.1512  0.1536  0.5864
29437W        W46284   6.258  10.322   4.348  0.1405 -0.2502 -0.1159
29438W        W46285   6.518  15.397  15.398  0.1749  0.2409 -0.0060
29439W        W46286  15.669   0.778   3.937 -0.1411 -0.0988  0.1016
29440W        W46287  14.872   5.699  13.417 -0.1759  0.1270 -0.0435
29441W        W46288   3.390   3.871  15.268 -0.2812 -0.1899 -0.2740
29442W        W46289  14.091  10.748  12.805 -0.2660  0.0448  0.0492
29443W        W46290  11.976   8.528  11.923  0.1274  0.2057  0.1282
29444W        W46291  13.426  15.972  15.142  0.3699 -0.3312  0.4202
29445W        W46292   2.889  17.357  15.100  0.0626  0.0842  0.0473
29446W        W46293  13.507  10.270   2.382  0.4554  0.2081 -0.0140
29447W        W46294   3.357   9.381  12.438 -0.1378 -0.0187 -0.2766
29448W        W46295   0.703   5.734   0.306 -0.0314 -0.1578 -0.0460
29449W        W46296   8.711   8.759  15.873 -0.0031 -0.0143  0.2653
29450W        W46297  17.808   6.437   1.106  0.3799 -0.0675 -0.4023
29451W        W46298   0.657   5.079  13.564  0.0414 -0.0117  0.2332
29452W        W46299   4.795   1.204   0.758 -0.1982 -0.0751  0.1874
29453W        W46300  18.220   6.302   2.446 -0.1953  0.0013 -0.1261
29454W        W46301   3.831  15.683   0.392  0.1857  0.0970 -0.2379
29455W        W46302  13.919  14.141   3.085 -0.0932  0.0589  0.0874
29456W        W46303   4.196   8.253  11.598  0.0508  0.1240  0.0052
29457W        W46304  11.148   6.286   1.310  0.0407 -0.1558 -0.0790
29458W        W46305   2.017   0.226   4.279  0.2420  0.0512 -0.0767
29459W        W46306   6.123   9.752  13.983 -0.0735  0.2951 -0.1471
29460W        W46307  11.492  11.582   0.298  0.0295 -0.0560 -0.3112
29461W        W46308  17.535  17.322  12.497 -0.3723 -0.2646 -0.1020
29462W        W46309   8.733  15.241   2.274 -0.0968  0.0128  0.3092
29463W        W46310  17.888   6.443   2.832 -0.2704 -0.3779 -0.0254
29464W        W46311  15.406  13.174   0.775  0.0660 -0.0026  0.2261
29465W        W46312  17.383   3.489   5.207 -0.1114 -0.2024 -0.2618
29466W        W46313   8.600  15.074   0.610  0.0512  0.3187  0.1544
29467W        W46314   2.417  13.286   3.227 -0.0458  0.2747  0.0538
29468W        W46315   9.580   8.466  12.618 -0.0736  0.1132 -0.2442
29469W        W46316   2.208  15.594  15.800  0.1173 -0.0053 -0.1447
29470W        W46317   0.611   7.585  12.597  0.1639  0.1210  0.0904
29471W        W46318   3.495   7.464   1.245 -0.0811  0.1367  0.0451
29472W        W46319  12.156   8.517  10.911 -0.1983 -0.0717 -0.2205
29473W        W46320  16.834  12.707  11.344 -0.0690  0.3801  0.3069
29474W        W46321  10.715  11.604   5.632 -0.1681 -0.2494 -0.3176
29475W        W46322  17.293  16.774  14.720 -0.1415  0.2225 -0.1852
29476W        W46323  10.495   3.882   1.190 -0.0020  0.0641  0.0103
29477W        W46324   5.820  11.969  13.770  0.2899  0.2253  0.0241
29478W        W46325   9.468  18.186  12.746 -0.1018  0.3450  0.3343
29479W        W46326   5.910  13.424  13.259  0.1062 -0.0173 -0.2611
29480W        W46327   7.426   3.687   3.497  0.1830 -0.0133 -0.4820
29481W        W46328  17.855   9.212   1.221 -0.0649 -0.0942  0.1130
29482W        W46329  11.258   0.941   2.778  0.2448 -0.2772  0.0247
29483W        W46330   6.944  13.743  12.343  0.3683  0.0531  0.0610
29484W        W46331  13.738  13.939   0.299 -0.0493 -0.1413 -0.1524
29485W        W46332  11.243  17.455  12.471  0.0999 -0.2044 -0.1166
29486W        W46333   5.187   2.989   1.489  0.1689  0.1409  0.1039
29487W        W46334  16.250  12.231   0.279  0.0752 -0.1235  0.0422
29488W        W46335   6.039   1.638   3.803  0.1156 -0.2561 -0.0956
29489W        W46336  10.195  11.082   0.375  0.2528  0.2943 -0.0736
29490W        W46337   4.877  13.606   1.963  0.3005 -0.1560 -0.0287
29491W        W46338  14.720  11.339  12.631  0.0824 -0.2033 -0.0167
29492W        W46339  16.039   8.629   5.065 -0.0006 -0.0818  0.3750
29493W        W46340  12.691  14.587  12.005  0.0919 -0.0230 -0.0384
29494W        W46341   5.515  10.995   1.172  0.0499 -0.3433 -0.0908
29495W        W46342   9.848   2.030   0.879  0.0985  0.0701  0.0764
29496W        W46343   4.252  11.399  15.161 -0.2194 -0.2022  0.0797
29497W        W46344  13.525   9.086  12.763  0.0312 -0.1096 -0.0254
29498W        W46345  15.293  12.994   0.286  0.2406  0.0571  0.3365
29499W        W46346   7.891   6.348   4.676 -0.1252  0.1297 -0.1487
29500W        W46347   4.292   8.064  13.539 -0.1469  0.0427 -0.2837
29501W        W46348   9.577  18.085  13.670 -0.1534 -0.0515  0.2736
29502W        W46349  16.913   6.609  14.363  0.1078 -0.1134 -0.1488
29503W        W46350   3.163  17.323  13.763  0.1074 -0.0823 -0.1376
29504W        W46351  10.644  18.340   3.072 -0.0191 -0.4270 -0.0008
29505W        W46352  12.244   1.198   4.337 -0.2099 -0.1704 -0.1272
29506W        W46353  11.395   5.378   4.327  0.2878 -0.0019 -0.0671
29507W        W46354  14.520   5.421  15.626  0.1940  0.2147  0.2531
29508W        W46355   7.833  13.120   1.615  0.1658  0.2047 -0.3251
29509W        W46356   7.798   5.263  12.662 -0.0793  0.0282  0.1157
29510W        W46357  12.339   5.917   0.648  0.0492 -0.3476 -0.1111
29511W        W46358  10.387  13.921   3.750  0.3095 -0.0196 -0.0475
29512W        W46359   8.007   9.058  10.889 -0.0075  0.0199  0.1995
29513W        W46360   0.110   7.140   1.965  0.0285  0.0509 -0.0340
29514W        W46361   3.870   5.959  14.070  0.0957  0.1794  0.3398
29515W        W46362   6.323   2.112   3.024  0.0891  0.1069 -0.0180
29516W        W46363   8.901  14.484   0.076  0.0752  0.1447 -0.2630
29517W        W46364   9.291  16.743   4.824  0.2287 -0.0854  0.1611
29518W        W46365   5.585   6.068   1.007 -0.1270  0.0150  0.1719
29519W        W46366   2.329  13.055   2.763 -0.1094 -0.0427 -0.2697
29520W        W46367   1.904  16.988  11.412 -0.0761  0.3116  0.1365
29521W        W46368  15.884  11.393   6.196  0.0255 -0.1522 -0.1367
29522W        W46369   1.485  14.427  11.789 -0.1058  0.0038  0.0171
29523W        W46370  12.565   6.147   3.199  0.1383  0.1571 -0.1305
29524W        W46371   1.803  10.140   2.695 -0.2166  0.1060 -0.2526
29525W        W46372   1.979   8.871   3.575 -0.0267 -0.0833 -0.1464
29526W        W46373  13.127   4.809  14.963 -0.0300 -0.3811 -0.0441
29527W        W46374   4.047  14.802   2.320  0.1096 -0.2440  0.0779
29528W        W46375   7.614   8.806  15.139 -0.1109  0.0526 -0.3313
29529W        W46376   3.455  11.391   2.261  0.0305  0.1628  0.1437
29530W        W46377   4.796  12.414   2.189  0.1704  0.0428 -0.3721
29531W        W46378   8.604   7.098   3.130 -0.1822  0.0149 -0.0836
29532W        W46379   2.368  17.311  14.205 -0.0002  0.1100  0.1560
29533W        W46380   5.710  18.050   1.883 -0.1724  0.0205  0.1754
29534W        W46381  16.778  12.672   5.321 -0.3571  0.0216 -0.2128
29535W        W46382  17.595  11.813   3.053 -0.0655  0.0105  0.1804
29536W        W46383  11.502  11.058   3.018  0.0650  0.1281 -0.2135
29537W        W46384   6.862  14.208  11.716 -0.0273 -0.1296 -0.2907
29538W        W46385   9.268   7.407  10.828 -0.1053 -0.0109  0.1467
29539W        W46386  12.592  13.188  12.521 -0.0906  0.0658  0.2059
29540W        W46387   2.058  13.555  11.475 -0.0917  0.0823  0.0324
29541W        W46388   7.212   2.937   4.106  0.0543 -0.0762  0.0165
29542W        W46389   7.062   8.192  15.277 -0.1900 -0.0158  0.0841
29543W        W46390  17.770   5.208  15.546  0.2777  0.2029 -0.1863
29544W        W46391   0.634  15.891  13.273  0.0942  0.3324  0.4481
29545W        W46392  15.205  16.801  11.900  0.0435 -0.0899  0.1010
29546W        W46393  14.785   8.529   1.372  0.0820 -0.3011  0.0139
29547W        W46394  16.110   4.040  15.084  0.1478 -0.0603  0.2249
29548W        W46395   4.417  12.035  13.658  0.1080  0.1922  0.1051
29549W        W46396  16.537  12.553   4.513 -0.1243  0.2480  0.2143
29550W        W46397   3.684  15.743  14.062 -0.0417 -0.1398  0.2201
29551W        W46398  13.904  14.244  14.884 -0.1748 -0.0616 -0.3383
29552W        W46399   7.593   8.061  14.136  0.6676 -0.0238 -0.0434
29553W        W46400   2.308  16.596  15.011  0.0450  0.3781  0.1989
29554W        W46401  16.583  13.863   5.602  0.0777  0.0904 -0.1114
29555W        W46402   7.083   1.439  11.914  0.0877 -0.0329 -0.0182
29556W        W46403   7.877  11.835   0.102 -0.0311 -0.2581 -0.0001
29557W        W46404   0.926  18.063   1.915  0.2187 -0.3918 -0.0076
29558W        W46405   9.556  15.692   0.179  0.0567 -0.0692 -0.2169
29559W        W46406  17.027  15.032  14.006 -0.1767 -0.0840  0.0452
29560W        W46407  13.881   1.904  12.532  0.2055  0.3405  0.1145
29561W        W46408  12.634   7.766   1.317  0.5229 -0.1361 -0.0041
29562W        W46409  10.107   6.491   4.721  0.1860 -0.1548 -0.1235
29563W        W46410   2.729  13.027  13.792  0.0167  0.2781 -0.4348
29564W        W46411   4.752  17.302   3.795 -0.0584  0.2611  0.3633
29565W        W46412   5.136  11.829  11.727  0.0211  0.0362  0.0496
29566W        W46413  13.496  16.326   4.397 -0.1553 -0.1613 -0.2537
29567W        W46414  14.528  12.028   2.156  0.2419  0.0234 -0.2036
29568W        W46415  13.809  18.522   0.402  0.0496 -0.1383  0.1668
29569W        W46416  16.312  13.922  10.808 -0.1986  0.0875 -0.0253
29570W        W46417   5.708  13.884  13.454  0.1591  0.4077  0.0389
29571W        W46418   0.718  12.914   5.074 -0.0451  0.0462 -0.2905
29572W        W46419   8.893   9.387   1.917 -0.3094  0.0026 -0.0004
29573W        W46420   5.256   5.616   1.195 -0.1031 -0.2816 -0.0340
29574W        W46421   0.065   6.461  14.637 -0.0602  0.1026 -0.2090
29575W        W46422   6.090  15.532   5.287  0.4468  0.3324  0.1146
29576W        W46423   0.188   4.380  11.065 -0.0248 -0.2793 -0.0083
29577W        W46424   0.632   2.532  11.690  0.1973  0.0455 -0.1040
29578W        W46425   7.358   5.980  10.471  0.2158  0.0302  0.2986
29579W        W46426  15.328   7.175  11.512 -0.3376  0.2349 -0.1750
29580W        W46427  14.762   9.528  11.362  0.1746 -0.4216  0.3720
29581W        W46428  10.537  16.079  12.669 -0.0070 -0.2099  0.0868
29582W        W46429  18.074   7.149   0.299  0.1324  0.3675  0.1038
29583W        W46430   5.207   3.459  15.384  0.0448 -0.2052  0.2880
29584W        W46431  14.975   9.325   3.286  0.1829 -0.0867  0.0704
29585W        W46432  15.036  12.914  13.229  0.0856  0.1489 -0.0073
29586W        W46433   8.489  11.981   3.593  0.0068  0.0792  0.0566
29587W        W46434   0.797   8.601   0.588  0.1453  0.1360  0.2331
29588W        W46435   3.164   0.222   4.803  0.2033  0.0424  0.2275
29589W        W46436   4.473  13.504   2.845  0.1719  0.0942 -0.0359
29590W        W46437   4.910   3.979   2.022  0.2071  0.2831 -0.0187
29591W        W46438   0.126   6.627   1.839  0.0365  0.1620 -0.1978
29592W        W46439   7.749  13.949  14.588 -0.0256 -0.0301 -0.1037
29593W        W46440  17.174  13.031  15.718  0.1885 -0.0621  0.0447
29594W        W46441  12.184  12.258   1.889  0.1901  0.0939  0.0835
29595W        W46442  15.106  11.155  10.882  0.0116  0.2691 -0.1453
29596W        W46443   0.955   2.760   1.768 -0.0533 -0.0337  0.2289
29597W        W46444   7.916  17.087   4.461 -0.0802 -0.0129  0.0262
29598W        W46445  18.240   1.644  15.269 -0.1100  0.0687 -0.0903
29599W        W46446   4.495   2.190  12.904  0.1704 -0.2865 -0.2642
29600W        W46447   2.865   1.335   0.127  0.0849 -0.2167  0.2165
29601W        W46448  12.231  16.569   4.804  0.0407 -0.2177  0.0555
29602W        W46449  11.762  15.396  11.914 -0.0929 -0.0544 -0.1092
29603W        W46450   5.008  15.021  12.749  0.1207  0.1118  0.0283
29604W        W46451   8.987  13.823   2.051 -0.2415 -0.0005  0.0701
29605W        W46452  14.393   5.282  15.131  0.1305 -0.2509  0.1708
29606W        W46453  13.349  14.398   6.123  0.0968  0.0247  0.0578
29607W        W46454  13.821  13.019  12.769  0.1504  0.1215 -0.1112
29608W        W46455   5.712   1.011   3.098  0.0898 -0.0714 -0.0943
29609W        W46456  11.222  10.960  11.985  0.1984 -0.1398 -0.0747
29610W        W46457  17.107  14.662   4.110  0.0569  0.1792 -0.1657
29611W        W46458   4.497  16.376   3.714 -0.1044 -0.1160 -0.3853
29612W        W46459   4.310  11.198  14.716  0.0857 -0.1849 -0.1093
29613W        W46460  11.862   7.799   0.276  0.0194 -0.3543 -0.0891
29614W        W46461   1.516   8.650  14.450  0.3057  0.0298  0.2437
29615W        W46462   9.801  10.255   4.594 -0.0042  0.0417  0.0119
29616W        W46463   2.498  14.484   3.797 -0.4765 -0.0386  0.1740
29617W        W46464   0.735  16.464   2.900  0.1071  0.0742 -0.0573
29618W        W46465   8.522  17.766   2.901  0.1162  0.0385  0.0216
29619W        W46466   2.514  17.626   1.734  0.0922  0.1748  0.0009
29620W        W46467  10.596   9.078   5.026  0.1115 -0.0111 -0.2071
29621W        W46468   7.147   9.363   3.780 -0.0868 -0.2275 -0.1550
29622W        W46469  17.460  14.928   1.451 -0.2872  0.0018  0.1017
29623W        W46470   6.968   3.520   1.096 -0.1422 -0.0421 -0.0475
29624W        W46471   4.301  10.079  14.171 -0.1956  0.4402 -0.0609
29625W        W46472   6.976   6.662  13.574 -0.0285 -0.1706  0.2431
29626W        W46473  12.288  14.022   0.043 -0.0244 -0.0325  0.2165
29627W        W46474   1.379  13.397   4.770  0.0510  0.1638 -0.0065
29628W        W46475   0.671  10.316  14.431 -0.1735 -0.2668 -0.0098
29629W        W46476  17.187   2.899   4.092 -0.0932 -0.1416  0.0237
29630W        W46477   3.381   4.776   3.424 -0.1220  0.0502 -0.0970
29631W        W46478  14.219   4.327   0.218 -0.0397  0.0378  0.0642
29632W        W46479  15.866  11.058   3.383 -0.1323 -0.1216  0.2028
29633W        W46480   2.579   2.326  11.650  0.0439 -0.1184  0.0232
29634W        W46481   5.828   3.507   2.047  0.0502 -0.1343 -0.0030
29635W        W46482   8.288   1.817  14.841  0.1305 -0.1362 -0.0223
29636W        W46483  17.029   3.615  11.400 -0.0511 -0.0074 -0.0165
29637W        W46484  11.797   5.190   0.161  0.1524 -0.1242 -0.2625
29638W        W46485   4.179   4.099  12.590 -0.0794 -0.0175 -0.0617
29639W        W46486   9.552   9.140   2.521 -0.2440  0.1575  0.2868
29640W        W46487   0.314  16.751  15.580  0.2785  0.2104 -0.0651
29641W        W46488   8.644   0.152   2.108  0.1081  0.0224 -0.1268
29642W        W46489  17.422  16.190   4.578  0.0482 -0.0947 -0.0643
29643W        W46490   3.527   9.348  12.991 -0.1608  0.0475  0.0631
29644W        W46491  12.197  17.234  10.597 -0.0376 -0.1167  0.0575
29645W        W46492   8.508  10.886   1.303 -0.1401 -0.0426  0.0017
29646W        W46493   3.198  11.329  14.941  0.1693 -0.0039  0.0247
29647W        W46494  16.738   8.409   4.706  0.2185  0.1696 -0.0087
29648W        W46495   7.941   8.917   3.610  0.1446 -0.0875 -0.1523
29649W        W46496   4.520   0.010  15.365  0.0066  0.0617 -0.0059
29650W        W46497   9.135   7.499   1.634  0.3064 -0.0549 -0.0257
29651W        W46498  18.120   9.777   1.081  0.0145  0.0500  0.1179
29652W        W46499   7.205  18.343  13.413 -0.1114 -0.0912 -0.2718
29653W        W46500   8.209  11.656   3.363  0.0665 -0.3323 -0.1712
29654W        W46501   9.372   9.369  13.491 -0.0350  0.4269 -0.0604
29655W        W46502   1.398   3.922  12.288 -0.2480  0.1155 -0.0688
29656W        W46503   2.065   5.478  15.155 -0.1374 -0.3220  0.1656
29657W        W46504  14.770   9.782  13.529 -0.4903 -0.0573  0.0979
29658W        W46505   4.274   4.884  15.888 -0.2069  0.2543  0.1036
29659W        W46506  17.834   5.953   3.293 -0.0320 -0.0919  0.2397
29660W        W46507   7.982   6.429  15.004  0.0322 -0.4074 -0.0809
29661W        W46508  10.303  16.587   9.743  0.1697  0.0211 -0.2231
29662W        W46509   4.907   9.170   3.974  0.3448  0.2056  0.1161
29663W        W46510   1.646  14.132   5.166  0.1131  0.0170 -0.2737
29664W        W46511  18.181  18.191   4.156 -0.3538  0.1525 -0.1184
29665W        W46512  14.138  13.465  12.909  0.1502 -0.0896 -0.1158
29666W        W46513   3.758   1.645  11.247 -0.3154  0.0296  0.0314
29667W        W46514   4.595   9.798  13.831  0.1208  0.0174  0.0163
29668W        W46515   7.014   3.853   5.425  0.2486  0.0427 -0.1019
29669W        W46516  17.855  17.765  11.485 -0.0620  0.2987 -0.1006
29670W        W46517   7.299   9.601   4.234  0.3959 -0.0350  0.1058
29671W        W46518  10.895   0.102   0.940  0.0266 -0.0222 -0.0292
29672W        W46519  12.005  17.917  13.380  0.0581 -0.0484 -0.2378
29673W        W46520   7.558   7.270   5.503  0.1292 -0.0496 -0.4428
29674W        W46521   5.691   9.465   3.296 -0.2092  0.1778 -0.0075
29675W        W46522  16.602  13.449   4.755 -0.3412  0.0753 -0.0300
29676W        W46523  10.287  18.266  11.823  0.0215 -0.1749  0.0320
29677W        W46524  13.581   3.899   2.076  0.0270  0.0394  0.0079
29678W        W46525   8.726  14.875  12.776 -0.3170 -0.1794 -0.0948
29679W        W46526  16.075   9.185  15.162 -0.0156  0.2963 -0.1030
29680W        W46527  11.580   6.337  13.569  0.1067 -0.2015 -0.0138
29681W        W46528   4.654  15.551  13.389  0.0289 -0.1231 -0.0519
29682W        W46529   4.603   8.494  11.771 -0.3224  0.0610 -0.0025
29683W        W46530  10.246   0.107  12.962  0.1134  0.0144 -0.2962
29684W        W46531   2.423  13.189   5.727 -0.0587  0.2753  0.1021
29685W        W46532  10.933   4.912  14.302 -0.0509  0.0467 -0.1118
29686W        W46533  15.487   7.111   0.384  0.0137 -0.2048  0.1071
29687W        W46534   3.325   2.128   5.564  0.0035 -0.1166 -0.1355
29688W        W46535   7.917   2.902   3.920  0.0974  0.2686  0.2051
29689W        W46536   3.381   5.112   5.622  0.1953 -0.2961  0.1631
29690W        W46537  11.475  11.580   2.819  0.4110  0.0068  0.0451
29691W        W46538  16.343  17.341  12.820  0.3725  0.1206 -0.1037
29692W        W46539   2.916  11.189   5.085 -0.0982  0.3222  0.0090
29693W        W46540   4.632  11.115   1.328  0.1803 -0.0383 -0.3677
29694W        W46541   4.135   1.376  11.115  0.3480 -0.0028 -0.0558
29695W        W46542  18.448  14.818   6.179 -0.2693 -0.0840 -0.2811
29696W        W46543   0.614  12.609  12.615  0.2657 -0.0821  0.0743
29697W        W46544  10.106   4.395   5.031 -0.2049  0.0521 -0.1879
29698W        W46545   4.275   1.686   0.710  0.0042 -0.1858 -0.1148
29699W        W46546   0.838   1.120   6.203 -0.3808 -0.0753  0.2909
29700W        W46547  13.182  11.749   0.013  0.0839 -0.1350 -0.0510
29701W        W46548   7.562   1.060  11.895  0.1971  0.2397 -0.1805
29702W        W46549  15.047   8.651  12.572  0.1058  0.0497  0.0084
29703W        W46550  17.401   7.017   2.403  0.0399 -0.1046 -0.0128
29704W        W46551   5.672  10.760  14.274 -0.1210 -0.0081  0.2945
29705W        W46552  11.730   2.222  14.349 -0.3902 -0.3042 -0.0229
29706W        W46553   6.450   3.225  13.212  0.1559  0.1249  0.2170
29707W        W46554  17.031  17.082  15.610 -0.0002  0.1464  0.2879
29708W        W46555  10.870  16.455   4.014  0.0711  0.1628 -0.0152
29709W        W46556  15.935   5.904   2.531 -0.3082  0.0964  0.0425
29710W        W46557  12.386  10.121   3.141  0.0515 -0.1489  0.1562
29711W        W46558   6.731  10.498   2.546 -0.2429 -0.0890 -0.2231
29712W        W46559  14.748   4.154   2.563  0.2117  0.2046  0.1322
29713W        W46560   0.742  12.480   3.755  0.0372 -0.0730  0.1471
29714W        W46561  14.445   6.173  14.752  0.0164 -0.1985  0.1725
29715W        W46562   6.983   3.971  15.708  0.2086  0.0676 -0.0194
29716W        W46563   0.247  16.370   5.136 -0.0634 -0.2583 -0.1211
29717W        W46564  10.768  13.520  15.102 -0.1479  0.0397  0.1283
29718W        W46565  16.190   4.322   1.469 -0.5076 -0.2675  0.1209
29719W        W46566  10.580   9.268   0.819 -0.0808  0.1935 -0.0192
29720W        W46567  11.125  13.006   1.126  0.0921 -0.1530 -0.0229
29721W        W46568  12.522   2.787   1.566 -0.2004 -0.1988  0.0594
29722W        W46569  14.416  16.815   4.790  0.1893  0.1430 -0.3946
29723W        W46570  16.207  13.218  12.218 -0.3207 -0.1297 -0.0768
29724W        W46571   7.759  17.168   2.576  0.1484 -0.4202  0.0197
29725W        W46572   1.139  11.650   2.678  0.0357  0.3224 -0.2432
29726W        W46573   7.095  11.715   1.136  0.0713  0.0354  0.1147
29727W        W46574   6.287   8.002  14.931 -0.0819 -0.0866 -0.1645
29728W        W46575   7.216  18.266   3.283 -0.1593 -0.0277 -0.0908
29729W        W46576   2.841  12.643   3.696 -0.0922 -0.0076  0.0427
29730W        W46577   0.997   4.894  14.875 -0.1358 -0.1652  0.3036
29731W        W46578  17.637  11.202   0.863  0.0474 -0.2705  0.1476
29732W        W46579  10.915   2.802   4.093 -0.1153  0.0174 -0.2041
29733W        W46580   2.023   6.360   2.769 -0.1465  0.0341 -0.1744
29734W        W46581   3.813  15.297   3.631  0.1933  0.1922  0.4692
29735W        W46582  16.041   7.840  14.450 -0.1273 -0.3184  0.0078
29736W        W46583   3.743   2.777   2.525 -0.1630 -0.4558 -0.1173
29737W        W46584   4.786  14.204   1.800 -0.1087  0.2150  0.0511
29738W        W46585  10.427   3.212  10.584 -0.0471  0.4970  0.2840
29739W        W46586   2.591   0.939  14.078  0.0357  0.1728  0.1511
29740W        W46587  14.836  10.761   0.021 -0.1994 -0.1392 -0.1860
29741W        W46588  14.087   5.639  15.527 -0.1449 -0.0110 -0.1636
29742W        W46589  14.531   6.715  11.094 -0.1863  0.2791 -0.0856
29743W        W46590  13.426  16.136   0.378 -0.1637  0.0517 -0.0081
29744W        W46591  11.730  12.072   1.845  0.1576  0.1250 -0.2067
29745W        W46592   5.928  11.161  14.572 -0.0337  0.1636  0.0752
29746W        W46593   9.413   8.671  11.426  0.1556 -0.0228  0.1649
29747W        W46594   5.136   0.687  13.572 -0.0767  0.2950 -0.2431
29748W        W46595  11.458   8.469   1.673  0.1208 -0.1789  0.3609
29749W        W46596   0.953  10.669  14.812 -0.0381  0.2220 -0.1382
29750W        W46597  12.244   2.403  10.010 -0.0209  0.1330  0.3003
29751W        W46598   9.285  16.656  11.587 -0.2495 -0.0587 -0.0042
29752W        W46599   5.147   2.976  12.663  0.0930 -0.0788 -0.0821
29753W        W46600  18.273   6.348   1.933  0.0705 -0.1112  0.1416
29754W        W46601  13.526  16.831   4.341 -0.0181 -0.3674  0.0387
29755W        W46602   8.818  12.188   2.754  0.2345  0.2151  0.1592
29756W        W46603   8.043   6.013   5.269 -0.2382  0.2453 -0.0219
29757W        W46604   6.804  12.341   2.330  0.2187  0.1333 -0.3128
29758W        W46605   8.175  11.338   4.655  0.0988  0.1501  0.0207
29759W        W46606   8.742  13.031   0.519 -0.1033  0.0167 -0.2060
29760W        W46607   6.237  16.207   3.578  0.1791  0.0479 -0.1659
29761W        W46608   2.165   8.167  14.947  0.0265 -0.2400  0.1139
29762W        W46609  17.455  12.536  14.091 -0.0858  0.1913 -0.0955
29763W        W46610  15.721   5.810  15.117  0.0655 -0.2330  0.0167
29764W        W46611   1.628   7.740  11.357 -0.0874  0.0768 -0.1035
29765W        W46612  15.632   2.138  13.882 -0.4012  0.2874  0.3405
29766W        W46613  14.992   8.059   1.408 -0.2609 -0.0567  0.1650
29767W        W46614   9.874  17.197  11.594  0.1919 -0.1714  0.1073
29768W        W46615  12.147   2.639  14.706 -0.2949  0.0328 -0.2390
29769W        W46616   5.811   5.619   0.381  0.2003  0.3271 -0.2000
29770W        W46617  13.291   0.223  12.848  0.1090 -0.1495 -0.0773
29771W        W46618   2.416  13.712   4.565 -0.0589 -0.4303 -0.0556
29772W        W46619  18.315   4.653   1.411 -0.0932 -0.0902  0.1211
29773W        W46620  15.168   5.408   1.782  0.0201 -0.1128 -0.1847
29774W        W46621   6.518  16.162   2.937  0.1510 -0.0287 -0.1556
29775W        W46622   0.373  18.098   4.291  0.0589 -0.3408 -0.1322
29776W        W46623   4.069  17.055  11.797  0.0404 -0.2276  0.0446
29777W        W46624  15.467   9.906  15.240  0.0973 -0.1467  0.1582
29778W        W46625   2.545   6.108   5.965 -0.0457 -0.0671 -0.0853
29779W        W46626  10.934   6.658  12.976 -0.1542 -0.1166  0.0400
29780W        W46627   7.917   9.444   2.581 -0.0578  0.1561  0.0255
29781W        W46628   2.782  13.831  11.958  0.0730  0.0914  0.0450
29782W        W46629  13.356   3.340  11.475 -0.0614 -0.2486 -0.0491
29783W        W46630  12.873  10.924  12.659  0.3681  0.1045  0.3163
29784W        W46631   4.936  15.234   4.961 -0.1321 -0.1808  0.2830
29785W        W46632   1.536   5.251  15.165 -0.0432 -0.2235  0.1638
29786W        W46633   7.247  16.063  10.940 -0.1054  0.0364  0.3066
29787W        W46634  18.317   1.942  11.798 -0.2510  0.2423 -0.0047
29788W        W46635  13.802   2.479   2.402 -0.1362  0.0510  0.0100
29789W        W46636   4.697   6.471  11.955  0.3945  0.4257  0.3179
29790W        W46637   3.668   8.523  11.648 -0.0244 -0.2047  0.0993
29791W        W46638  11.672  14.377  15.277  0.1327 -0.0724  0.1299
29792W        W46639  12.145  10.905   1.212 -0.0025 -0.1740 -0.0761
29793W        W46640  10.052  17.968   4.357 -0.1453  0.0645 -0.0272
29794W        W46641   6.410  15.927  14.665 -0.2453 -0.0766 -0.1449
29795W        W46642   6.808   7.776  12.845 -0.1897  0.3606  0.3763
29796W        W46643   0.099   0.813   4.922 -0.0270  0.0597 -0.2300
29797W        W46644  12.207  12.092  13.152  0.0671 -0.2822 -0.1593
29798W        W46645  11.151   2.215   1.599  0.0498  0.2251 -0.0107
29799W        W46646   0.461   8.963   0.615 -0.1964 -0.1049  0.0856
29800W        W46647   5.583   1.610  14.084  0.0465  0.0887 -0.1127
29801W        W46648  13.268  13.009   0.399 -0.1989  0.1514 -0.0803
29802W        W46649  18.428  16.359  13.150  0.1129  0.0473 -0.0060
29803W        W46650   4.394  17.148   1.447  0.0284  0.0003  0.3582
29804W        W46651  13.610   7.440   1.180 -0.1200  0.1248  0.0845
29805W        W46652  10.191   4.227   3.829  0.0880 -0.0185 -0.2484
29806W        W46653  11.651  12.685  12.899  0.3641  0.2439 -0.0041
29807W        W46654  16.804   5.292   3.918  0.0795 -0.0444  0.2724
29808W        W46655   0.454  10.785   0.219 -0.2964  0.1264 -0.0344
29809W        W46656   7.760   2.373  11.461  0.2443  0.1955  0.0813
29810W        W46657   6.221  15.019   5.489  0.0049 -0.0478 -0.0529
29811W        W46658  15.302  12.911  14.648 -0.0826  0.0212  0.1049
29812W        W46659   2.300   8.629  15.101  0.1646  0.1211 -0.0775
29813W        W46660  14.646  15.699   4.129 -0.0741 -0.0019  0.2237
29814W        W46661  15.312  10.690  13.664  0.1328  0.1623 -0.0948
29815W        W46662  16.102   6.287  12.052  0.1537 -0.2141  0.1081
29816W        W46663   7.022   0.083   2.239 -0.2485 -0.1531 -0.2808
29817W        W46664  16.024   2.680   3.181  0.0379 -0.2202  0.2292
29818W        W46665   1.171  16.530  13.766  0.1123 -0.1156  0.0554
29819W        W46666   8.541  14.502   1.405  0.1416  0.2153 -0.1712
29820W        W46667  10.821   7.504  14.831 -0.1652 -0.3415 -0.0193
29821W        W46668   3.450   7.359   3.882 -0.1585 -0.1063  0.1562
29822W        W46669   4.399   5.570   0.583  0.0660 -0.0148  0.1416
29823W        W46670  14.126  15.293   5.845 -0.0456  0.2653  0.0573
29824W        W46671   1.022   2.858   3.996  0.1385  0.0254  0.1244
29825W        W46672   7.922  13.657   4.205  0.2711  0.3140 -0.2466
29826W        W46673   8.571  14.216   0.863  0.2098 -0.0026  0.0279
29827W        W46674   3.192   8.066   3.349  0.0814  0.4108 -0.3118
29828W        W46675   2.172  15.739   5.383  0.3275  0.1218 -0.0854
29829W        W46676   6.890   5.185  10.592  0.0869  0.1710 -0.0221
29830W        W46677   1.512   0.254   2.836 -0.0133  0.4019  0.0736
29831W        W46678  12.387   0.891   0.854  0.1472 -0.1423 -0.1729
29832W        W46679   4.955   2.158  14.912  0.0068  0.2609 -0.3382
29833W        W46680   5.190  13.407   1.251 -0.0630  0.0500 -0.2529
29834W        W46681  16.934  10.915  12.889 -0.0061  0.1350  0.1040
29835W        W46682   3.219  10.690   4.301 -0.2783  0.4420  0.0198
29836W        W46683  11.298  18.355  13.173 -0.2007 -0.0822 -0.3352
29837W        W46684  13.132   5.559   2.920 -0.3258 -0.1075 -0.2511
29838W        W46685   0.309   6.149  14.903 -0.0504 -0.0216  0.0325
29839W        W46686   6.760  13.084   3.144 -0.0811 -0.1831 -0.0616
29840W        W46687   6.948  10.425   3.819  0.1885  0.0194 -0.1457
29841W        W46688  11.919   6.099   0.285  0.0301 -0.1803  0.3534
29842W        W46689  10.661   1.961   0.466 -0.2969 -0.0307 -0.0720
29843W        W46690  13.250   5.656  12.265  0.1943  0.0901 -0.0867
29844W        W46691   5.734   7.021   1.819  0.0357 -0.0256 -0.1104
29845W        W46692   1.598   4.735  13.524 -0.0212  0.2094 -0.2653
29846W        W46693   5.149   1.259  15.368 -0.1131  0.1664  0.2554
29847W        W46694  13.016  18.035  13.236 -0.1261 -0.2422 -0.0492
29848W        W46695  15.558  17.377   5.255 -0.3227  0.1953  0.2358
29849W        W46696  16.696   2.086  14.048 -0.0093 -0.1306 -0.0464
29850W        W46697   5.083  14.345   4.543 -0.2193  0.0607  0.2538
29851W        W46698  12.791  15.471  14.664  0.0771  0.2093  0.1420
29852W        W46699  16.573  10.385   1.543  0.0487 -0.2593 -0.1733
29853W        W46700   1.371   6.220  11.709 -0.0957  0.0629  0.0250
29854W        W46701  15.895   0.141   5.013 -0.1129  0.1099 -0.2632
29855W        W46702   1.847  12.604   2.194 -0.2214 -0.0707 -0.0520
29856W        W46703   0.392  16.548  13.176  0.1376 -0.0202 -0.1962
29857W        W46704   3.506  12.423   1.662  0.1785 -0.1896 -0.0330
29858W        W46705  10.425  13.886  14.162  0.0730 -0.0229 -0.2259
29859W        W46706  12.965   2.474   5.179 -0.2707  0.1495  0.3318
29860W        W46707   9.707   5.066  12.586  0.0046 -0.1159  0.2961
29861W        W46708   4.726   0.883   4.697  0.1407 -0.0659  0.2547
29862W        W46709  16.804   6.527   0.670 -0.2417  0.0849  0.0084
29863W        W46710  10.356  17.874   4.766  0.2417  0.2098  0.1701
29864W        W46711   9.264  16.781   3.316  0.0353  0.1734  0.0615
29865W        W46712   7.948   3.377   3.724  0.1446 -0.1397 -0.0889
29866W        W46713   5.935  16.468   0.101 -0.0264 -0.0736  0.1402
29867W        W46714  13.435  11.994   2.350 -0.0849  0.1809 -0.1003
29868W        W46715   7.124   5.356   2.562  0.1108 -0.2338  0.2017
29869W        W46716   5.884   9.142   4.616  0.2254  0.4312  0.0643
29870W        W46717  13.447   3.447   5.409 -0.2790  0.0354  0.1115
29871W        W46718   9.656   7.403  11.973 -0.0278  0.2422 -0.2210
29872W        W46719   3.211   1.592   3.576 -0.0076  0.1698  0.1243
29873W        W46720   4.942   1.301  12.866 -0.1377 -0.2047 -0.1236
29874W        W46721   9.569   5.151  15.166  0.3204 -0.1229  0.0183
29875W        W46722   2.483   8.556   4.282 -0.2175  0.1351  0.1336
29876W        W46723   7.490   0.470  14.459 -0.2676 -0.0678  0.1704
29877W        W46724   9.681   3.878  15.014 -0.1310  0.2715 -0.2353
29878W        W46725   6.662  16.554  13.378 -0.0434 -0.0562 -0.0709
29879W        W46726   3.501   9.145  15.404 -0.0414  0.0376 -0.1137
29880W        W46727   8.856  17.832   4.067  0.0903 -0.2919  0.1269
29881W        W46728  14.778   3.278  11.246  0.1670 -0.0764  0.0937
29882W        W46729   7.601   2.200   3.548  0.1558  0.1199 -0.0462
29883W        W46730  14.567   5.027   3.610  0.0505 -0.0542  0.1460
29884W        W46731   8.423   2.268   2.536 -0.0660  0.2640  0.2935
29885W        W46732  14.395   8.602  13.652  0.0284  0.2970  0.0099
29886W        W46733   8.605  17.117  15.506  0.0677  0.1065  0.2438
29887W        W46734   0.303   9.333  12.534  0.1094  0.2770  0.1993
29888W        W46735  16.070  15.804  12.128  0.2994 -0.1275  0.2828
29889W        W46736   0.516  11.022   2.918 -0.1705 -0.0276 -0.0052
29890W        W46737  11.168  14.973  10.231 -0.1620 -0.1318  0.0165
29891W        W46738   8.864   5.729  12.253  0.4021  0.3570  0.1646
29892W        W46739  17.241  14.672   4.603  0.1719 -0.2150 -0.0678
29893W        W46740  13.752  12.504   1.586  0.1772 -0.4504 -0.0174
29894W        W46741   3.714   0.173   3.025  0.2191  0.2367 -0.1373
29895W        W46742   8.870  18.358   1.492 -0.2897 -0.1072  0.2965
29896W        W46743   0.026  10.267   2.249 -0.4565  0.0245 -0.1283
29897W        W46744  14.043   4.012   3.285 -0.2444  0.1383 -0.0937
29898W        W46745  17.268  17.298  11.273 -0.0225 -0.2100  0.1295
29899W        W46746   7.944  15.393   5.168  0.0903  0.0323  0.0650
29900W        W46747   9.746  14.062   1.623 -0.1515  0.2079  0.1453
29901W        W46748   3.272  13.903   0.974 -0.0198  0.1964 -0.0182
29902W        W46749   9.048   1.318  15.026  0.1313 -0.1714 -0.0448
29903W        W46750   5.485   6.287   4.496 -0.1862 -0.2548 -0.1647
29904W        W46751   3.978  17.068   3.906 -0.0219  0.1854  0.1335
29905W        W46752  16.254  13.934  15.748  0.2629  0.1189 -0.0665
29906W        W46753  11.391   9.670  12.033 -0.1112  0.3960  0.0585
29907W        W46754   3.097  16.977  15.456 -0.2019 -0.1815  0.1145
29908W        W46755   9.610  16.172   2.220  0.0806  0.1452  0.2218
29909W        W46756   3.065  11.166  15.398  0.1174  0.2949 -0.1440
29910W        W46757  13.298   1.775  10.998  0.3306  0.1487  0.0245
29911W        W46758   3.800  17.276   0.666  0.0483 -0.1078 -0.1589
29912W        W46759  14.690  15.236   3.277 -0.1887 -0.0139 -0.2591
29913W        W46760   0.788  14.943  14.298 -0.1418  0.2127 -0.3083
29914W        W46761  11.457   7.556  14.183 -0.5050 -0.2283 -0.1243
29915W        W46762  14.415  16.562   3.872  0.0821  0.3129 -0.0797
29916W        W46763   5.636  11.309  15.370 -0.1420 -0.0687 -0.1612
29917W        W46764   7.986  10.951   5.540  0.0897  0.0077  0.0187
29918W        W46765  17.254   0.848  14.884  0.2473  0.0018  0.0736
29919W        W46766  11.436   8.153   2.114 -0.0813  0.2745 -0.0233
29920W        W46767  13.176  11.437  13.903  0.1264  0.1295 -0.0415
29921W        W46768  12.839   0.969   2.029 -0.4141 -0.1255  0.2505
29922W        W46769  10.676   0.252   2.804  0.0250 -0.2375 -0.1598
29923W        W46770   8.907  16.393  11.379 -0.1028  0.0878  0.0154
29924W        W46771   5.729   3.897   2.397 -0.2160 -0.4545 -0.0028
29925W        W46772   4.348   5.897   1.086 -0.1373 -0.0159 -0.0499
29926W        W46773  13.460   7.169  13.613 -0.0442 -0.1587  0.0431
29927W        W46774  15.057  11.697   1.665 -0.2099  0.1014  0.2782
29928W        W46775   4.880   1.257  11.471 -0.2600  0.1104 -0.1016
29929W        W46776  13.087  13.749   4.302  0.1014  0.1299 -0.1611
29930W        W46777   7.810  12.773  14.859 -0.1366  0.4647 -0.2743
29931W        W46778   4.185   2.264  14.298 -0.0896 -0.0046 -0.0810
29932W        W46779  18.203   1.059  13.900  0.0651  0.1253  0.3597
29933W        W46780   2.887   9.888  13.609  0.5188 -0.1400 -0.2283
29934W        W46781   8.385   3.088  10.635  0.3213 -0.1190 -0.0765
29935W        W46782  16.285   1.545   4.476 -0.0147  0.0898 -0.0172
29936W        W46783   4.690  14.294  11.602 -0.1326  0.1554  0.2094
29937W        W46784  14.917   5.704  15.785 -0.0839  0.4126  0.0223
29938W        W46785   0.586   3.068  11.433  0.4796  0.2154 -0.1930
29939W        W46786   9.564  10.158   3.615 -0.1994 -0.1974  0.1313
29940W        W46787  13.341  12.725   0.891 -0.4883 -0.2637  0.0610
29941W        W46788   5.668  16.704  14.541  0.0108 -0.1857  0.0505
29942W        W46789  17.110   9.589   2.975  0.0301  0.0582 -0.0012
29943W        W46790  12.058  13.109  15.505  0.1854  0.0776  0.0442
29944W        W46791  15.501   1.224   3.888 -0.2713 -0.1286 -0.1914
29945W        W46792   6.584   4.205  11.272 -0.2246  0.1550  0.1564
29946W        W46793  16.971  12.200   4.439  0.1919 -0.0201  0.3625
29947W        W46794  10.003  16.136  13.449 -0.0860 -0.2972  0.1669
29948W        W46795   6.961   6.106   3.176 -0.1002 -0.3409 -0.0830
29949W        W46796  16.255   0.274  11.335 -0.2280 -0.0214 -0.0263
29950W        W46797  17.522  15.852   1.025 -0.1905 -0.0391  0.0719
29951W        W46798  10.616  11.784   0.847 -0.1558 -0.1675 -0.1100
29952W        W46799   4.462  12.073   2.390 -0.2393  0.0642  0.1444
29953W        W46800   0.825   8.005  14.980  0.0742 -0.0999  0.1661
29954W        W46801  12.659   3.444   4.948 -0.2646  0.1394 -0.1299
29955W        W46802   0.727   9.409   0.719 -0.4044  0.1854 -0.2429
29956W        W46803   4.473   8.052  14.078  0.2083  0.1835 -0.0280
29957W        W46804   1.341  11.322   3.838  0.1349  0.0894 -0.0637
29958W        W46805  16.733   8.427  15.354  0.2486 -0.1209  0.3837
29959W        W46806  16.332  15.980   2.926  0.3772  0.3452  0.1965
29960W        W46807  12.606  11.469  15.244 -0.0483  0.0455  0.0451
29961W        W46808  18.154   9.794  14.499  0.0529  0.3014 -0.0089
29962W        W46809  15.846   9.772   4.092  0.0714  0.0491  0.3103
29963W        W46810  13.327  11.546   1.638  0.2674 -0.0203 -0.2604
29964W        W46811   7.662  18.006   3.198 -0.2590 -0.0545 -0.1943
29965W        W46812   2.002   0.549   2.773  0.0860  0.0691 -0.2081
29966W        W46813   2.183   1.962  14.580  0.2007  0.0758  0.2120
29967W        W46814  11.415   8.806   2.973  0.3186  0.0283 -0.2647
29968W        W46815  12.391   7.302  14.249 -0.0841  0.2914 -0.1058
29969W        W46816  12.841   8.722  10.796  0.0008 -0.4091  0.3358
29970W        W46817  11.049   3.598   3.089  0.1729 -0.1062 -0.0712
29971W        W46818  10.040  13.594  11.644  0.2860 -0.4111 -0.3294
29972W        W46819  15.943  17.047   5.392 -0.0332 -0.0170  0.1209
29973W        W46820   6.813   9.397   4.204 -0.0599  0.1816 -0.2180
29974W        W46821   4.313  17.104   0.846 -0.0634 -0.3623  0.2956
29975W        W46822   7.556  12.700   1.014 -0.0171  0.1333  0.4711
29976W        W46823   5.711  15.784  12.457 -0.3435  0.1113 -0.1869
29977W        W46824   3.222   9.596   0.242 -0.0507 -0.1346 -0.2923
29978W        W46825  17.245  17.531   2.034  0.0628  0.2592  0.1007
29979W        W46826   7.663  11.108   4.158  0.1892 -0.1351  0.0123
29980W        W46827   8.482   2.809  14.419  0.0452 -0.0577 -0.2085
29981W        W46828  18.039   1.642   1.685 -0.0523  0.2012  0.2286
29982W        W46829  11.602  15.696   0.171  0.1186 -0.1602 -0.2800
29983W        W46830   1.692  15.027  13.016 -0.2262  0.0936  0.1112
29984W        W46831   2.839   9.274  11.721 -0.3615  0.0567  0.1094
29985W        W46832  14.317   7.723  14.915 -0.1071 -0.1397  0.5101
29986W        W46833  16.399   1.426   1.058 -0.0897  0.2012  0.2346
29987W        W46834   9.153  13.490   5.132  0.1072  0.2101 -0.1031
29988W        W46835   1.197   1.039   3.627 -0.0153 -0.1682  0.0847
29989W        W46836   3.202   2.261   2.073  0.0112  0.0197  0.1863
29990W        W46837  13.319  15.598  14.775  0.3603  0.0469 -0.1217
29991W        W46838   8.666  15.124   2.814 -0.4593 -0.1499 -0.1589
29992W        W46839  10.880   6.920  11.745 -0.3286 -0.1721  0.0725
29993W        W46840  17.648   1.195   4.938 -0.1013 -0.0250  0.0431
29994W        W46841   8.423   2.986   1.976 -0.2400 -0.1035 -0.1063
29995W        W46842  17.713  13.141  11.421 -0.1556 -0.3325 -0.3306
29996W        W46843  12.897  15.613   2.902 -0.0700  0.0177  0.0804
29997W        W46844  12.590   3.064   2.021  0.0039 -0.1407  0.0623
29998W        W46845  11.243   8.176   1.326  0.2340 -0.0709  0.1305
29999W        W46846   7.535   1.508  13.292 -0.1549  0.3131  0.2194
30000W        W46847   6.410   2.419  12.646 -0.2872 -0.1658 -0.0390
30001W        W46848   0.081   8.787  13.542 -0.1602  0.1107  0.1394
30002W        W46849  18.400   5.873   3.994  0.0187 -0.2132 -0.4440
30003W        W46850  10.202  15.102   3.204  0.2945 -0.1947  0.0843
30004W        W46851   4.889  17.869   0.177 -0.5510 -0.1515  0.0715
30005W        W46852   4.729   6.555  10.859  0.2042 -0.1470  0.3724
30006W        W46853   2.026  13.570  15.574 -0.0773 -0.3722 -0.0136
30007W        W46854  12.663  11.162   3.167 -0.0846 -0.0276 -0.0755
30008W        W46855  11.880   6.080   0.876  0.2255  0.0677 -0.0980
30009W        W46856   3.692   8.665  15.368 -0.0521 -0.0426  0.0644
30010W        W46857   2.086   2.939   2.534  0.1014 -0.0153 -0.1302
30011W        W46858   8.653   2.282  14.948 -0.0263 -0.3354 -0.2239
30012W        W46859   8.943   6.180   2.847 -0.1598  0.2101  0.0253
30013W        W46860  17.473   4.793  12.642 -0.0135 -0.0721 -0.0800
30014W        W46861  13.681   2.881   3.463 -0.0938 -0.1102  0.0042
30015W        W46862  13.856  11.921  13.080  0.3117  0.2297 -0.0896
30016W        W46863   7.847  10.750  11.406 -0.3530  0.1116  0.4727
30017W        W46864  15.623   9.931  14.689 -0.1263  0.0559 -0.1126
30018W        W46865   0.852  12.063   4.758 -0.1768 -0.4462  0.2866
30019W        W46866   8.980   5.629   4.466  0.1132  0.0711  0.1664
30020W        W46867  15.933   6.687  15.569  0.1871  0.0312 -0.0774
30021W        W46868  14.539   5.078   5.569  0.1069 -0.0638 -0.1122
30022W        W46869  13.588   5.245   5.037 -0.2305 -0.0220 -0.1713
30023W        W46870   2.047  11.354  15.273 -0.0972  0.0440 -0.0267
30024W        W46871   4.441   6.563  14.758 -0.0052 -0.0722 -0.0682
30025W        W46872  15.986  14.255  12.921 -0.0124 -0.1579  0.1141
30026W        W46873  15.119  16.587   5.150  0.2385  0.1621  0.0831
30027W        W46874   5.994   3.214   5.451  0.0843 -0.0200  0.0407
30028W        W46875   4.949   9.030  15.885  0.0356  0.1554 -0.1438
30029W        W46876   3.653  17.959   0.365  0.0902  0.2399 -0.2425
30030W        W46877  12.697   3.092   2.724 -0.1892  0.2614 -0.2054
30031W        W46878   2.174  15.290  11.984 -0.0082 -0.2710  0.0626
30032W        W46879  11.747  16.329  15.569 -0.3703  0.2296  0.2344
30033W        W46880   1.402   5.219   1.382 -0.0753 -0.0951  0.1751
30034W        W46881   7.326   7.591  11.070  0.0083  0.0923 -0.0881
30035W        W46882   5.851   0.855  12.531  0.2356 -0.2057 -0.0497
30036W        W46883   7.673  17.963  13.707 -0.2530 -0.1889 -0.3592
30037W        W46884  15.131   6.224   2.317  0.4238  0.0864  0.2099
30038W        W46885   6.765   6.256   2.021 -0.0420  0.0798 -0.2443
30039W        W46886   5.228   2.170  14.508 -0.0314 -0.1518  0.0454
30040W        W46887  10.421   0.669  13.150  0.2095  0.3599  0.1407
30041W        W46888   0.654   1.375  14.468 -0.2529  0.2071 -0.0018
30042W        W46889  16.312   2.665   0.331 -0.0527 -0.1294  0.0890
30043W        W46890  15.484  18.335   5.934 -0.1721 -0.1170  0.3284
30044W        W46891   1.460   9.803   0.953  0.1207  0.0872  0.5067
30045W        W46892  11.594   5.793  14.894  0.0454 -0.0446 -0.1533
30046W        W46893  17.267  15.271  14.379  0.0110 -0.1279 -0.2464
30047W        W46894   5.030  15.247  15.814  0.1232 -0.0156  0.1230
30048W        W46895  12.368  12.939   4.218  0.0344  0.0068 -0.1454
30049W        W46896  12.804  11.743  12.262  0.0074  0.0593  0.0487
30050W        W46897  16.198   9.779   5.629  0.3078  0.2341  0.4093
30051W        W46898  10.674   2.340   1.728 -0.1237 -0.4582  0.2749
30052W        W46899  12.412  16.232   3.558 -0.0854 -0.2060 -0.2118
30053W        W46900   9.268   1.689  14.118  0.1543  0.0983  0.0058
30054W        W46901   6.991  13.936   1.375  0.0876 -0.0197 -0.2522
30055W        W46902  14.918  11.300   1.904  0.0294  0.1043  0.3381
30056W        W46903   0.638   0.040   2.608 -0.0897 -0.1167  0.1215
30057W        W46904   1.176  13.352   6.085 -0.0411 -0.0625  0.3784
30058W        W46905  11.229  10.721   2.271 -0.1080  0.1853  0.0600
30059W        W46906  17.369   4.418   4.428  0.0461  0.0203  0.0149
30060W        W46907  17.476  10.972   0.030  0.1054 -0.0852 -0.2601
30061W        W46908   1.024  11.625   0.042  0.0962  0.3551 -0.0254
30062W        W46909   8.109   5.175   5.459  0.2041  0.1825 -0.0029
30063W        W46910   3.727  10.609   4.311  0.1379 -0.0573  0.0417
30064W        W46911  13.827   4.450   4.297  0.0161  0.2352 -0.1720
30065W        W46912  18.254   4.107   4.421 -0.2364  0.0678  0.0114
30066W        W46913   1.237   1.496  13.752 -0.4801  0.3263 -0.2240
30067W        W46914  10.081  14.321  12.378  0.1237  0.3321  0.3241
30068W        W46915  16.318  17.785  12.064  0.1749 -0.0778 -0.1664
30069W        W46916  10.800  15.505  11.333 -0.1064  0.0897 -0.0730
30070W        W46917  13.817  11.979   4.905 -0.0365  0.1134  0.0816
30071W        W46918   3.638   3.331  13.817 -0.0855  0.0173 -0.0643
30072W        W46919  17.558  11.828   3.606  0.0252  0.0685  0.3099
30073W        W46920   2.946  12.226   2.965  0.0164 -0.0061 -0.0938
30074W        W46921   6.666   8.819   0.179 -0.0318  0.2083 -0.2469
30075W        W46922   0.991   2.415   0.623 -0.2123 -0.1955 -0.0291
30076W        W46923  13.120  12.117  12.397 -0.0273 -0.1335  0.0542
30077W        W46924  13.789   8.012  14.188 -0.1059  0.0918  0.1173
30078W        W46925  15.587   6.062   0.365  0.0236  0.0776 -0.1135
30079W        W46926  12.332  10.766   3.640 -0.0968  0.0566  0.0070
30080W        W46927  16.439  17.872  13.757 -0.0212  0.0640 -0.1804
30081W        W46928   4.742   2.924  12.379  0.2383  0.0857  0.1797
30082W        W46929  10.333   1.392   1.179 -0.0491  0.1374  0.0610
30083W        W46930   0.140   1.645   0.951 -0.2082 -0.0598 -0.0915
30084W        W46931   3.325   4.873   1.487 -0.2124  0.3179  0.1176
30085W        W46932   7.585   9.583   1.633 -0.1127  0.2076 -0.3005
30086W        W46933   6.738   3.901   2.217  0.1722  0.2270 -0.0490
30087W        W46934   5.332   1.651  12.709 -0.2179 -0.0630  0.1964
30088W        W46935   8.296  15.479   2.581 -0.0775 -0.1416  0.0639
30089W        W46936   1.484  12.950  13.028  0.1765  0.0207 -0.3422
30090W        W46937   5.449   1.035   5.076  0.1648 -0.3511 -0.2943
30091W        W46938   3.306  15.463  12.353  0.1232  0.1436  0.1697
30092W        W46939  12.349  15.827   0.710 -0.1002  0.1725 -0.1840
30093W        W46940   1.765   9.759   4.725 -0.0937 -0.1733 -0.0054
30094W        W46941  13.190   8.860  14.122  0.1934  0.3319  0.0272
30095W        W46942   5.005   3.912   4.275 -0.1001  0.0119  0.1478
30096W        W46943   4.174   9.773   0.273  0.0407 -0.0148  0.4415
30097W        W46944   6.130  15.697  11.185  0.1264  0.2384 -0.0904
30098W        W46945   2.735   2.173  12.845 -0.1753  0.0445  0.2919
30099W        W46946   9.249   6.002   4.533  0.0532  0.2498 -0.0792
30100W        W46947   5.398   2.419   4.841  0.1306  0.1285  0.0602
30101W        W46948   4.789   2.964   2.702 -0.0070  0.0012  0.1195
30102W        W46949  10.794   4.479  11.754 -0.1830  0.0334 -0.0093
30103W        W46950  15.748   8.646  11.323  0.0381  0.2349 -0.0684
30104W        W46951   5.987   5.650   1.964  0.2836  0.3182 -0.0923
30105W        W46952  12.017   0.937   2.310 -0.1585 -0.1472 -0.2490
30106W        W46953  16.060   2.993   0.104  0.1652 -0.1462 -0.2205
30107W        W46954  17.858   9.443   3.745  0.0977  0.1828  0.2837
30108W        W46955   8.743   5.948   0.467 -0.0712  0.1702  0.0953
30109W        W46956   1.477  18.022   5.396 -0.0669  0.1029 -0.1449
30110W        W46957   2.237   0.592   3.912  0.0181 -0.2021 -0.0017
30111W        W46958  17.284  16.357   3.296 -0.0096 -0.0137 -0.2227
30112W        W46959  16.629  15.519   3.675  0.0776  0.1165 -0.0546
30113W        W46960   6.270  15.654   4.229 -0.1899 -0.3346  0.0297
30114W        W46961   7.600   9.318   3.516  0.3781  0.0468  0.0538
30115W        W46962  10.551   8.091   0.559 -0.1091  0.0752 -0.2869
30116W        W46963   2.978   6.276  14.432  0.1732  0.2750 -0.2968
30117W        W46964   9.787   8.915  15.015  0.1127 -0.0008 -0.0320
30118W        W46965   2.657  10.829   2.879  0.0470 -0.3284  0.0004
30119W        W46966   6.449  10.741  15.793 -0.0297  0.1406 -0.1615
30120W        W46967  17.117  14.874  11.615  0.0656 -0.1788  0.1015
30121W        W46968  16.163   1.862  12.165  0.0830  0.0252  0.1342
30122W        W46969   3.372  10.919   2.062 -0.1304  0.0372 -0.1231
30123W        W46970   4.155  12.597  13.292 -0.1350 -0.1475 -0.0245
30124W        W46971   9.180  15.126  12.800  0.0058 -0.4183  0.2586
30125W        W46972   8.636  11.726  12.196  0.0459  0.2373  0.0369
30126W        W46973   8.336  18.478   0.129  0.3832 -0.0722  0.0687
30127W        W46974   6.966  15.396   3.453  0.0803  0.0326 -0.1112
30128W        W46975   5.612  18.140  12.397 -0.0463 -0.2683 -0.0231
30129W        W46976  12.032  13.596  15.855  0.0118  0.1376 -0.4087
30130W        W46977  15.514   2.013   2.899  0.0789  0.1636 -0.1323
30131W        W46978   8.005  15.457   0.528 -0.1295  0.4448 -0.1928
30132W        W46979   4.086  18.327   1.733 -0.0361 -0.2172 -0.0570
30133W        W46980   9.409  10.241  15.612  0.4290  0.0121 -0.3030
30134W        W46981   6.700   5.239   2.781  0.4188 -0.0421  0.0167
30135W        W46982   4.700   7.732   0.621  0.2346  0.3550 -0.0870
30136W        W46983   1.106   4.674  13.565  0.2697  0.0227  0.0362
30137W        W46984   6.557  12.007   4.445  0.3097 -0.3278  0.3434
30138W        W46985  10.199   3.112   2.363 -0.4714  0.1485  0.0166
30139W        W46986  17.349  11.597  13.650 -0.0886 -0.0833 -0.0693
30140W        W46987  13.625  17.658   1.308 -0.1509  0.2355  0.3287
30141W        W46988  10.007   5.791   1.703  0.0136  0.0878 -0.0046
30142W        W46989   8.213   0.400  15.883 -0.2751  0.3006 -0.0674
30143W        W46990   4.091   6.815  13.901  0.2094  0.2181  0.0526
30144W        W46991  15.620   4.406   1.272 -0.0836 -0.1224  0.2033
30145W        W46992   1.001   8.053  12.335 -0.1196  0.0917  0.0364
30146W        W46993  15.645  18.445   2.291 -0.0832 -0.0814  0.1720
30147W        W46994   8.850   2.227  11.501  0.4694  0.0926 -0.1208
30148W        W46995  14.003  17.207   0.968 -0.3219 -0.1524  0.0301
30149W        W46996   2.497   2.477  10.289 -0.1027 -0.0791  0.1282
30150W        W46997  11.580   0.172  14.928  0.0141 -0.3191 -0.0069
30151W        W46998   3.100   7.865  11.201 -0.1773 -0.0107  0.0151
30152W        W46999   3.172  13.055   2.087  0.3895  0.1678 -0.0996
30153W        W47000   4.187   9.696  14.525  0.2073  0.1068 -0.0309
30154W        W47001   1.436   7.677   1.576  0.1588  0.0991  0.3616
30155W        W47002   6.171   3.809   0.788 -0.0019 -0.2559 -0.3519
30156W        W47003  16.443  10.118  15.079 -0.3203 -0.0934 -0.0571
30157W        W47004  10.128  11.507   5.063 -0.1020  0.0118 -0.0053
30158W        W47005   1.132   7.820  11.353 -0.0171 -0.0844  0.2212
30159W        W47006  17.923   4.048   0.597  0.0127  0.1004  0.1084
30160W        W47007  10.515  10.316  12.071  0.0426 -0.0849  0.0178
30161W        W47008   8.012   9.467  11.863  0.1071 -0.3809  0.0550
30162W        W47009   8.617   3.043   4.632  0.3446  0.1525  0.1980
30163W        W47010   4.810   5.833  12.729 -0.0516 -0.1917 -0.2355
30164W        W47011   6.834   6.900   3.394  0.0744  0.1274 -0.2907
30165W        W47012   9.937   0.444   2.231  0.3031 -0.0936 -0.1028
30166W        W47013  14.663  12.500   2.798  0.3596  0.2669 -0.0668
30167W        W47014  11.395   0.020   4.448 -0.1426 -0.0065 -0.0330
30168W        W47015  15.380   9.998  15.795  0.0640 -0.1250  0.2651
30169W        W47016  17.021   6.568   3.002  0.0500  0.0259  0.1320
30170W        W47017  11.303   6.767   9.928 -0.3621  0.1881 -0.0730
30171W        W47018   0.923  13.896   0.067 -0.0104 -0.1609 -0.3211
30172W        W47019  18.487   9.123  13.966  0.0411  0.1873  0.0793
30173W        W47020   5.330   2.263  12.726  0.0872 -0.0983 -0.1438
30174W        W47021   9.627   8.833  12.198 -0.2377  0.0408  0.2352
30175W        W47022  11.695   2.131  12.439  0.0119 -0.5517 -0.2064
30176W        W47023  12.085   0.424   1.568  0.2607 -0.0459 -0.4359
30177W        W47024   7.664   9.073   1.378  0.0230 -0.1505 -0.1191
30178W        W47025   6.040   8.025   0.872  0.2268  0.1959  0.2723
30179W        W47026  14.561  11.139  11.635  0.2670 -0.0102 -0.1817
30180W        W47027   4.770  14.868  14.590  0.0012 -0.1654  0.0005
30181W        W47028  12.712  13.677   2.749 -0.0085 -0.2920  0.5420
30182W        W47029  15.625  13.979   4.732  0.2182 -0.0309 -0.0888
30183W        W47030   2.233   2.504  14.856 -0.0465  0.3470 -0.0146
30184W        W47031  11.253   7.412  15.101  0.1362  0.1876 -0.0829
30185W        W47032   1.554   4.914  12.038 -0.0961 -0.0142 -0.4616
30186W        W47033  12.240   3.442  14.598  0.2104 -0.0135  0.3885
30187W        W47034   2.902   3.571  14.329  0.0087 -0.1068 -0.1779
30188W        W47035  18.173   9.163   0.018 -0.2381  0.1961 -0.0305
30189W        W47036  15.114   1.472  14.074  0.0051 -0.1949 -0.0219
30190W        W47037  13.160  17.975  11.317 -0.1939 -0.0424 -0.1073
30191W        W47038   2.192  12.134  13.545  0.0235 -0.0118  0.0384
30192W        W47039  18.187   9.487   5.328  0.1106 -0.0097  0.0201
30193W        W47040  17.835   3.697   5.122 -0.0960 -0.1528  0.1120
30194W        W47041  11.963  11.381  13.271  0.0115 -0.1022 -0.3489
30195W        W47042  11.188  18.210   1.141  0.0585 -0.1758  0.1067
30196W        W47043   6.623  11.124  13.310  0.3430 -0.2152  0.0183
30197W        W47044   9.665   0.935   4.502  0.2537 -0.3070 -0.1010
30198W        W47045  13.889  15.499   3.603 -0.0285  0.2438 -0.1865
30199W        W47046   1.024  17.758   3.643 -0.0159  0.0108  0.1076
30200W        W47047   1.904  11.028   1.676  0.1221 -0.0532  0.2442
30201W        W47048  10.011   6.940   4.307  0.2148  0.6113  0.1081
30202W        W47049   6.047   1.751   1.393  0.3999 -0.1412 -0.1124
30203W        W47050   9.183  16.246  14.963  0.2922  0.1919  0.2839
30204W        W47051   4.249  10.543   4.908  0.2177 -0.2062 -0.0116
30205W        W47052  16.461  11.923  13.984  0.1839  0.2111  0.3183
30206W        W47053   1.874   1.461   4.607 -0.3380  0.3921  0.2524
30207W        W47054  10.133   1.050  12.478  0.0653  0.0427  0.1570
30208W        W47055   6.452  14.952   1.596  0.0589 -0.0856  0.1271
30209W        W47056  15.443  13.035   5.225  0.2225 -0.0955 -0.0571
30210W        W47057  14.676  11.151  14.671  0.0303 -0.2850  0.0239
30211W        W47058   9.641  16.227  11.543  0.0188 -0.3158 -0.0743
30212W        W47059  12.641  16.580   2.343  0.0234  0.0312  0.0896
30213W        W47060  15.302  12.402  14.478 -0.1129 -0.0923 -0.2298
30214W        W47061   2.726   4.093   5.415  0.1250  0.0153  0.1924
30215W        W47062  16.755   8.841   0.189 -0.1234  0.0240  0.2575
30216W        W47063   5.964   4.051  12.039  0.1297  0.0779  0.2629
30217W        W47064  12.204   7.036   4.576 -0.4137 -0.1125  0.1900
30218W        W47065  10.991  15.941   1.312  0.4548  0.0691  0.0847
30219W        W47066   8.584  17.998  15.213  0.0625  0.2149 -0.1540
30220W        W47067  17.235   5.613   1.884 -0.0638 -0.1249 -0.0794
30221W        W47068   1.301  18.375   1.981  0.1795 -0.3475  0.2109
30222W        W47069   6.961  12.399  15.186 -0.1123  0.3737  0.1289
30223W        W47070   6.998  14.431  13.499  0.0162  0.1924  0.0697
30224W        W47071   2.545   7.890  15.153  0.1803  0.2297 -0.0131
30225W        W47072   7.353  15.930   2.942 -0.1639  0.0610 -0.3420
30226W        W47073  16.308  11.578   2.741 -0.0790 -0.1645  0.3294
30227W        W47074   0.087   9.881   4.359 -0.1082  0.0149 -0.3646
30228W        W47075   6.041   5.399  15.908  0.0160  0.1015 -0.0737
30229W        W47076   0.962   6.238   5.065 -0.0932  0.2550  0.2061
30230W        W47077   0.151  11.817   0.928 -0.0759 -0.3685  0.0592
30231W        W47078  12.142   2.693   4.237  0.1683  0.1553  0.0812
30232W        W47079   9.032  17.440   3.113  0.2196  0.0774  0.1796
30233W        W47080  16.016   7.411  14.869  0.1366 -0.3018 -0.0073
30234W        W47081   3.105  11.916   3.978 -0.2842 -0.1289 -0.0528
30235W        W47082  17.383   6.311  12.143 -0.1801  0.2150 -0.1034
30236W        W47083  10.159  18.196   2.889 -0.1179 -0.1454 -0.3336
30237W        W47084  11.490  10.533   1.146 -0.0676  0.0113 -0.0879
30238W        W47085  18.353   7.051   1.040 -0.1148  0.0839  0.0534
30239W        W47086   1.891  12.912   4.292  0.4180  0.0862  0.0722
30240W        W47087   0.323  12.803   2.868  0.0095  0.1088 -0.3275
30241W        W47088   2.738   3.555   3.590 -0.0838 -0.1243 -0.1059
30242W        W47089  12.360  11.879   1.558 -0.2234  0.0213 -0.2518
30243W        W47090   8.382   0.967   0.284  0.0970  0.0377 -0.1993
30244W        W47091   7.335   0.272   4.445 -0.0439  0.2507 -0.1692
30245W        W47092  13.462   5.234   0.818 -0.3123  0.1634  0.2397
30246W        W47093  14.783  12.730  15.482  0.0078  0.1415 -0.0687
30247W        W47094   8.474   9.291  12.027  0.3264  0.0406 -0.0252
30248W        W47095  17.721  14.140  11.420 -0.1211 -0.1409  0.2958
30249W        W47096   1.690  11.695  15.181  0.0320 -0.0044 -0.2431
30250W        W47097   9.722  16.347   5.174 -0.1994 -0.4084  0.3616
30251W        W47098   8.816   8.913   3.699 -0.1947  0.1137  0.2551
30252W        W47099   5.121   0.183   2.548  0.1436  0.0213 -0.2960
30253W        W47100   9.873   8.189   3.165  0.0374  0.0358  0.1116
30254W        W47101  10.923   0.791   4.017  0.1630 -0.1730 -0.1616
30255W        W47102  13.357  11.598   2.693  0.1114  0.0807  0.0483
30256W        W47103  15.175  10.825  14.264 -0.0686 -0.0820  0.2143
30257W        W47104   0.500   5.592  14.340  0.3173 -0.1105  0.0283
30258W        W47105   1.012  13.887   0.611 -0.4581  0.0908  0.1854
30259W        W47106   7.694  18.099   1.667  0.0313 -0.0131  0.0504
30260W        W47107  16.797  12.724   0.672  0.0230 -0.0888  0.0455
30261W        W47108  16.239   4.691  15.933  0.1164 -0.0270 -0.3807
30262W        W47109   0.438  16.401  10.458 -0.0667  0.1139 -0.0315
30263W        W47110  10.111  13.054   5.543  0.1568  0.1260 -0.2625
30264W        W47111   8.715  13.336   2.257  0.0526  0.1736  0.0628
30265W        W47112  15.243  14.625   4.988 -0.2330  0.1396 -0.1475
30266W        W47113   9.119   8.783  11.826  0.0788  0.0610  0.3398
30267W        W47114  14.453   1.413   4.748 -0.1690 -0.2269  0.0025
30268W        W47115   0.885   2.421  12.461 -0.0908 -0.0626  0.0745
30269W        W47116   6.539   3.336  15.043 -0.1830 -0.1195 -0.1825
30270W        W47117   5.586  12.118  14.928  0.1710 -0.1389 -0.2511
30271W        W47118   4.749  13.022   4.969 -0.2622  0.0678  0.3330
30272W        W47119   0.210  11.679  15.437 -0.1219  0.0783  0.0597
30273W        W47120   1.912  10.186   3.743  0.1118 -0.0060 -0.3805
30274W        W47121  15.603  17.213  15.456  0.0751  0.3217  0.2483
30275W        W47122   9.096  10.466  11.760 -0.3054  0.1383 -0.1915
30276W        W47123   9.946   7.535   5.546  0.0051 -0.0360  0.4634
30277W        W47124   8.888  12.088  10.958  0.0607 -0.0133 -0.0774
30278W        W47125   4.094   4.202  11.659 -0.0281 -0.1391  0.1287
30279W        W47126   8.225   5.167  12.879 -0.1492 -0.1636  0.1349
30280W        W47127   1.282  16.108   5.750 -0.1186  0.2836  0.1113
30281W        W47128   5.649  13.323  14.050  0.0682 -0.0653 -0.0224
30282W        W47129   9.187  11.051  15.057 -0.0824  0.0339 -0.0822
30283W        W47130  15.217   0.343   2.296  0.0067  0.1380 -0.0658
30284W        W47131   9.930   1.826  15.839 -0.0518 -0.3082 -0.1921
30285W        W47132  14.211   6.589  10.638 -0.0933  0.0491 -0.0476
30286W        W47133   0.037  11.351  12.392 -0.0751 -0.0958  0.0188
30287W        W47134  14.077   4.718   3.999  0.0167  0.0183  0.2424
30288W        W47135  17.675  10.504   1.819 -0.0962  0.0749  0.1308
30289W        W47136   8.187   8.646   3.198 -0.0548  0.0953  0.1236
30290W        W47137  13.189   9.853  13.092  0.0561 -0.3779  0.2101
30291W        W47138   1.895   6.372  12.843 -0.1297 -0.0643 -0.5293
30292W        W47139  11.243   5.764   4.762  0.0471 -0.2237 -0.1661
30293W        W47140   3.166  10.260   3.146 -0.2778 -0.1770  0.1020
30294W        W47141  17.138  13.039  12.710  0.1751 -0.0881  0.1591
30295W        W47142   2.064  14.061   0.167  0.4335 -0.0512 -0.1163
30296W        W47143  14.314  17.840  10.914 -0.0929 -0.0941  0.3332
30297W        W47144  12.890  13.833   5.135 -0.0919 -0.1969 -0.0005
30298W        W47145   4.919   8.792   3.597 -0.2109  0.0210 -0.0052
30299W        W47146  13.033   1.393   2.275 -0.2129 -0.2235  0.1284
30300W        W47147   6.120  18.430  12.518  0.1810  0.1221  0.1802
30301W        W47148  18.122  11.270   0.820  0.4238  0.1039  0.0356
30302W        W47149  11.876   4.491  10.356  0.0093 -0.3312 -0.1555
30303W        W47150   6.306   6.425  15.196 -0.0020  0.4413  0.0559
30304W        W47151  11.689  11.457  15.278  0.1943  0.0090 -0.2355
30305W        W47152  10.486  11.191  12.062 -0.0449 -0.1821 -0.0358
30306W        W47153  10.341  15.339  11.273 -0.2319  0.1788  0.1966
30307W        W47154  17.412   6.182   1.429 -0.1074 -0.1313  0.3163
30308W        W47155   6.062   3.062  14.564 -0.1665 -0.2366  0.0929
30309W        W47156   0.933   6.980   1.399  0.3024 -0.1704  0.4180
30310W        W47157   6.159   0.783   2.550  0.1708 -0.1833  0.3630
30311W        W47158  13.757   5.475   0.410 -0.0542  0.1193 -0.2680
30312W        W47159  10.545  12.793  11.083  0.3505 -0.1429 -0.0039
30313W        W47160   5.390   2.685  10.229  0.3103 -0.1920 -0.0826
30314W        W47161   8.987   4.128   4.475 -0.1465  0.2518 -0.0127
30315W        W47162   5.005  17.359   0.227 -0.1652 -0.1041 -0.0623
30316W        W47163   2.000  16.119   3.587  0.1359  0.2110  0.1512
30317W        W47164  10.506  12.070  15.765 -0.1092  0.1879  0.0122
30318W        W47165   2.391  13.897  13.591 -0.1763 -0.1088  0.2032
30319W        W47166  17.426  12.581   0.966 -0.0407 -0.1994  0.2704
30320W        W47167   8.795   0.762   4.293 -0.0076  0.0046 -0.1438
30321W        W47168  11.860  12.189   0.885  0.1638 -0.1636  0.2430
30322W        W47169  11.273   9.343  14.606 -0.2104  0.2713 -0.1634
30323W        W47170   6.677   9.942  15.730 -0.0378 -0.1648 -0.1596
30324W        W47171   8.373   5.046   4.621  0.0843 -0.0391  0.2097
30325W        W47172  18.457  17.980   2.124 -0.1086 -0.1883  0.1258
30326W        W47173  15.055  12.004   3.833 -0.2400 -0.0218  0.0806
30327W        W47174  15.140  13.232   3.768 -0.0238  0.0711 -0.1977
30328W        W47175   1.284  16.756   0.399 -0.0251  0.1204 -0.3662
30329W        W47176   0.700   2.195   3.442  0.0365 -0.0775 -0.1975
30330W        W47177  18.453   8.494  11.563  0.0204 -0.0637  0.2523
30331W        W47178  16.741   5.060   5.340  0.2834 -0.0410  0.1409
30332W        W47179  17.660  13.312   2.813  0.1393  0.3086 -0.4040
30333W        W47180   6.704  11.237   0.117 -0.1767  0.0485  0.0332
30334W        W47181   6.388  12.446  12.642  0.3699 -0.2783  0.1063
30335W        W47182   6.302   6.595  14.202  0.1262  0.2095 -0.1553
30336W        W47183  13.430   3.822  12.671 -0.0109 -0.0394  0.0753
30337W        W47184  11.643  18.057   2.255 -0.3116 -0.1414  0.0595
30338W        W47185  17.977   6.311   4.764  0.0238  0.0405  0.0993
30339W        W47186  14.829   7.852   0.716 -0.1075  0.1071  0.2533
30340W        W47187  13.410   6.144  14.362 -0.2572 -0.2075 -0.0255
30341W        W47188   6.839   2.470   1.657  0.0515  0.0285  0.3858
30342W        W47189  10.098   3.306  14.098 -0.2597 -0.1407  0.0932
30343W        W47190  17.541   7.092   0.465  0.4892 -0.1663 -0.3577
30344W        W47191  13.492   2.511   5.203  0.0470  0.2431  0.0512
30345W        W47192  16.884  13.142   3.867  0.2361 -0.1558 -0.0385
30346W        W47193   6.791   5.389   2.143  0.1279 -0.0814 -0.1356
30347W        W47194   2.446  14.780   0.218 -0.1165 -0.3838 -0.1552
30348W        W47195   7.958   4.781  15.227  0.0140  0.1705  0.0731
30349W        W47196  15.872  10.376  14.593 -0.0565  0.1711  0.2572
30350W        W47197  13.103   3.523  14.141  0.0817  0.0334  0.1597
30351W        W47198   6.974   7.812  13.359 -0.1650  0.0133 -0.1193
30352W        W47199   0.503  11.470   4.050  0.2289 -0.0382  0.0187
30353W        W47200   3.482   1.308   0.857  0.1567 -0.0932 -0.1113
30354W        W47201   0.352  16.435   0.850  0.0941  0.0504  0.0346
30355W        W47202   1.074   1.265  14.207 -0.1411  0.2288  0.0580
30356W        W47203   6.861  18.187  10.749  0.3496  0.0002  0.0971
30357W        W47204  16.168   8.552  13.630 -0.1686  0.4982 -0.3567
30358W        W47205   2.424  11.708  13.760  0.1264 -0.0098 -0.1409
30359W        W47206   4.670  16.251  13.997 -0.1701  0.0026  0.1366
30360W        W47207  16.413  10.554   2.471  0.3364 -0.1522 -0.1109
30361W        W47208  14.746   2.837   1.452  0.2299  0.0800  0.0822
30362W        W47209  16.255   0.050  15.141 -0.0320 -0.1417  0.2082
30363W        W47210  14.175  14.276  15.700 -0.0206  0.0037  0.0328
30364W        W47211  11.117  17.573   4.239 -0.1010 -0.1516 -0.2371
30365W        W47212   5.801  11.413  10.736 -0.0624 -0.2580  0.3400
30366W        W47213   5.997   3.003  15.845 -0.2624  0.0109  0.0470
30367W        W47214  10.993  13.869  12.679  0.1182 -0.1844 -0.1335
30368W        W47215  13.834   6.928   2.506 -0.2338 -0.1024  0.0642
30369W        W47216   6.758  14.115   4.149 -0.0651  0.0168  0.1234
30370W        W47217   4.901   8.516   4.412 -0.0453  0.0433  0.3568
30371W        W47218  15.612  14.065  11.618  0.1112  0.0014  0.2331
30372W        W47219   1.531   8.935  14.043 -0.2768 -0.3066 -0.1751
30373W        W47220   4.020  16.186   0.542 -0.1167  0.0294 -0.0806
30374W        W47221   3.040   0.799   2.008  0.1595  0.0957 -0.2201
30375W        W47222  11.361  17.677   3.749  0.3427 -0.0693  0.1686
30376W        W47223  17.445   5.555   0.778 -0.0651 -0.2256 -0.3230
30377W        W47224   6.119   1.594  11.342 -0.0399  0.0558  0.1992
30378W        W47225   6.667  11.538   2.527 -0.0791  0.1322  0.1706
30379W        W47226   8.608  11.171  14.820  0.1510 -0.0585 -0.2579
30380W        W47227  14.435  16.633   1.522 -0.1350 -0.0183 -0.0250
30381W        W47228   6.587  12.034  13.294 -0.2071 -0.2531  0.1946
30382W        W47229   7.059  12.306   4.402  0.0485 -0.0460  0.1954
30383W        W47230  11.028   4.327  11.324  0.0427  0.2564  0.2705
30384W        W47231  17.504   3.770   2.536  0.0311  0.2349 -0.0135
30385W        W47232  14.249  18.128  13.814  0.1091 -0.1345  0.0881
30386W        W47233  16.096  14.768  12.838  0.2820  0.0086  0.1811
30387W        W47234   4.724  13.756  12.146  0.1365 -0.0874  0.2164
30388W        W47235   2.043  17.328   1.892  0.0191  0.0472  0.2408
30389W        W47236  16.310  14.152  14.460  0.0791  0.4520  0.0401
30390W        W47237   4.236  14.681  13.218  0.2098  0.3014 -0.0823
30391W        W47238   0.386  15.492  13.002  0.1353  0.1776  0.0961
30392W        W47239   4.235   6.305  13.975  0.3863  0.1660  0.1955
30393W        W47240   9.850   5.689   3.143 -0.3014 -0.1456  0.1469
30394W        W47241   0.291  10.724   1.862 -0.2302  0.0332 -0.1939
30395W        W47242  12.642  15.517  12.753 -0.0644  0.0221  0.0688
30396W        W47243  15.932  17.006   4.479 -0.0852  0.5304 -0.1754
30397W        W47244  15.831   6.187  14.812  0.4424 -0.2206  0.1023
30398W        W47245  18.167   3.668   3.147 -0.0638 -0.1649  0.2029
30399W        W47246   7.800   8.677  12.196  0.2665 -0.2142 -0.1031
30400W        W47247  11.122   9.826  15.544 -0.0488 -0.1392  0.1378
30401W        W47248   2.099  14.491   2.915 -0.3302  0.3443 -0.1067
30402W        W47249   1.566   3.265   1.776  0.3377  0.3294  0.1859
30403W        W47250  12.131   9.104   4.569 -0.0460  0.1023 -0.1614
30404W        W47251   0.932   9.180  15.114 -0.1153  0.4484 -0.0557
30405W        W47252   1.156   6.006   4.563  0.2577  0.2941  0.2793
30406W        W47253   7.870   2.184  10.456 -0.2654  0.2154 -0.1353
30407W        W47254  12.819   4.138   0.172  0.2185 -0.3778 -0.2302
30408W        W47255   1.685   1.155  12.995  0.1464  0.3916  0.0908
30409W        W47256  14.517   1.399   1.881 -0.4172  0.2917  0.0194
30410W        W47257  10.033   7.873   2.396 -0.2146  0.2254  0.1884
30411W        W47258  14.113   8.091   1.716 -0.0047 -0.1613 -0.0665
30412W        W47259  13.510   3.997   3.063 -0.2010 -0.0853  0.1018
30413W        W47260   6.358  16.356  10.467 -0.2887 -0.1725  0.3683
30414W        W47261   4.464   6.544  15.885  0.1193 -0.0457  0.0530
30415W        W47262   8.809   3.785  13.346 -0.0902  0.2723  0.2466
30416W        W47263  14.993  13.037   1.611  0.0190  0.3216  0.1205
30417W        W47264   9.298   3.108   1.801  0.0722  0.0417 -0.0015
30418W        W47265  12.446  18.022   5.046  0.4047 -0.0962 -0.2454
30419W        W47266   2.076  12.611   2.682  0.0279 -0.0002 -0.0228
30420W        W47267   3.776   1.798  13.001  0.0515  0.1961 -0.0586
30421W        W47268   9.024   5.900   1.989 -0.0438 -0.0696  0.1572
30422W        W47269   9.561  16.217  13.333  0.2529  0.0167 -0.1134
30423W        W47270   2.245  12.795  15.298  0.1851 -0.1305  0.0060
30424W        W47271  18.374   1.064   2.640 -0.1792  0.0390  0.0787
30425W        W47272  14.020   1.796   1.349  0.0226 -0.0347 -0.1456
30426W        W47273   7.850  18.026   2.594  0.1009 -0.3038  0.0526
30427W        W47274   5.659   1.467   3.347 -0.3480 -0.1082  0.0861
30428W        W47275   0.639   6.662   0.416  0.1715  0.0705 -0.3784
30429W        W47276   8.008  12.372   1.173  0.1852  0.3292 -0.1108
30430W        W47277   5.553   4.910   2.339  0.0127  0.2334  0.3893
30431W        W47278   1.864  13.447   4.498  0.1344 -0.0051 -0.0312
30432W        W47279   7.387   6.708  10.921 -0.1626 -0.0577 -0.0078
30433W        W47280   3.353  15.984   4.233 -0.0484 -0.1945  0.0059
30434W        W47281   8.563   3.900  14.208 -0.2261  0.0033  0.1320
30435W        W47282   8.152  14.966   0.330 -0.0760 -0.0365 -0.4478
30436W        W47283   9.180   0.454   4.135 -0.2383  0.1258 -0.0542
30437W        W47284   4.460   1.669   4.113 -0.4422 -0.3863 -0.3819
30438W        W47285  17.765   6.674  12.018  0.1279 -0.2740  0.1410
30439W        W47286  11.346  11.258  12.547 -0.0162 -0.1988  0.0966
30440W        W47287  15.190  16.507   3.291 -0.1908  0.2228  0.0463
30441W        W47288  15.763   5.891   3.669 -0.0950  0.2530 -0.0081
30442W        W47289  11.316   7.127   1.790  0.0120  0.0648 -0.2490
30443W        W47290   5.830  12.608  15.710 -0.0158  0.1626 -0.1089
30444W        W47291   0.019   9.387   4.307 -0.2804  0.1414  0.3753
30445W        W47292   2.866  12.024  13.661 -0.1160  0.3253 -0.2358
30446W        W47293   8.763  14.698  15.223  0.0974 -0.1755 -0.0622
30447W        W47294  18.400  18.407  12.285 -0.0998  0.5467 -0.1436
30448W        W47295  18.327  15.921  15.349  0.0382  0.3640  0.0037
30449W        W47296   2.183   9.622   5.842  0.2792 -0.2015 -0.0835
30450W        W47297   8.823   2.066   0.770 -0.0956 -0.1526 -0.0886
30451W        W47298   0.220  10.155   5.361  0.1157 -0.2097 -0.1605
30452W        W47299  17.389   5.719   1.366 -0.1977  0.1616  0.2397
30453W        W47300   4.336  17.354   2.301 -0.4635 -0.4258  0.1307
30454W        W47301  11.878   0.272   1.009 -0.2171  0.0001  0.1903
30455W        W47302  16.206  16.631   2.241 -0.0384  0.1226 -0.2494
30456W        W47303  12.186   1.527   1.711  0.1646  0.0899 -0.2160
30457W        W47304   7.492   9.814  14.310 -0.1256  0.0183  0.0818
30458W        W47305   0.092  16.397  11.872  0.0065  0.3560  0.0659
30459W        W47306  15.455  11.986   4.612  0.3138  0.2188  0.0632
30460W        W47307   6.564   8.152  11.764  0.0098  0.0480 -0.1194
30461W        W47308  14.486  12.478  15.055 -0.1674 -0.0138 -0.1638
30462W        W47309  15.850  15.350  12.732  0.1170 -0.1700 -0.2366
30463W        W47310  14.153  14.071  15.237 -0.2400 -0.0204  0.0939
30464W        W47311   9.138   8.107   5.263 -0.3179 -0.1410  0.0994
30465W        W47312   0.712   5.825   2.150 -0.1056  0.0530  0.0592
30466W        W47313   7.583   1.722   2.565  0.2226 -0.2899 -0.2091
30467W        W47314  12.915   6.628  15.429  0.3528 -0.0776 -0.4378
30468W        W47315   7.795  12.288   4.424  0.0029  0.3372  0.0481
30469W        W47316   9.650  12.730   0.680  0.1665  0.0432 -0.3055
30470W        W47317  13.018   6.017   3.154  0.0305  0.1678 -0.0400
30471W        W47318  18.062   8.859  11.533 -0.0724  0.1012  0.0478
30472W        W47319  13.189   4.828  14.479  0.0301  0.1675 -0.0779
30473W        W47320   9.913   6.953  15.511 -0.0128  0.3420  0.0892
30474W        W47321  15.928   8.198  14.913  0.0913 -0.0283  0.0554
30475W        W47322   1.090   0.353  13.176  0.1709 -0.0458 -0.1228
30476W        W47323   5.415  17.006  14.228 -0.0061 -0.1086 -0.1365
30477W        W47324   2.115  17.070  13.789  0.0397 -0.0866 -0.1356
30478W        W47325   9.146   0.664  14.333  0.2128 -0.1244 -0.0625
30479W        W47326   8.130  12.672   0.751 -0.1259 -0.1759  0.1604
30480W        W47327   2.504   9.176   2.265  0.2297 -0.2770 -0.2177
30481W        W47328  11.618   9.937   4.339  0.2143  0.1395  0.0782
30482W        W47329  15.380   9.580   4.536 -0.3288 -0.3078 -0.3065
30483W        W47330   7.393   4.219  15.705  0.0103 -0.1944  0.1795
30484W        W47331   4.640   9.746   3.131 -0.0823  0.1220 -0.0174
30485W        W47332  11.089   6.081   3.809 -0.3051 -0.0458  0.2490
30486W        W47333  16.794  18.426   1.944 -0.0929 -0.3638  0.1051
30487W        W47334  10.928  15.640   1.991  0.0193 -0.2630 -0.2301
30488W        W47335  11.545   5.712   0.097 -0.1369 -0.1224 -0.0017
30489W        W47336  11.788   5.928  11.251  0.0602  0.0218 -0.2590
30490W        W47337   1.791   2.153   5.262  0.1495 -0.1092  0.3013
30491W        W47338  16.957  17.662   0.046  0.0560  0.1778 -0.0419
30492W        W47339   1.816   3.067   0.711 -0.0558  0.0996  0.1451
30493W        W47340   6.096  12.919   2.038 -0.0974  0.0477 -0.0881
30494W        W47341  10.831   5.013   5.075 -0.1363  0.1312  0.2746
30495W        W47342  13.064  15.896   1.257 -0.0550  0.0108 -0.3205
30496W        W47343   3.472  14.620  14.830  0.2899 -0.2538  0.1997
30497W        W47344   4.824   0.019   4.587 -0.0681 -0.0531 -0.1983
30498W        W47345  10.813   5.925  13.430 -0.0113 -0.0796  0.0201
30499W        W47346  15.310   9.699  13.675  0.0406 -0.1436 -0.1067
30500W        W47347   2.946   4.086  14.466 -0.1751 -0.0340 -0.2382
30501W        W47348   4.231  17.764   2.578  0.1038  0.2215 -0.2028
30502W        W47349   2.894   2.938  12.344 -0.4226  0.0856  0.2257
30503W        W47350  12.303  14.701   5.102  0.1309  0.0019  0.0465
30504W        W47351  17.326   8.436   0.837  0.1303 -0.2372  0.1069
30505W        W47352  13.356   9.946   0.734 -0.1892  0.2478  0.3778
30506W        W47353  12.725  11.862   5.446 -0.0147  0.2315 -0.0431
30507W        W47354   9.568   9.094   3.432  0.0074 -0.2338 -0.1877
30508W        W47355   4.023  11.621   0.708  0.1477 -0.0454 -0.0599
30509W        W47356  16.802  16.243  12.065 -0.0166  0.1612 -0.1582
30510W        W47357  16.649  16.466  14.863  0.0744 -0.1994  0.0124
30511W        W47358   9.860  13.174  14.010 -0.1865 -0.0845  0.2026
30512W        W47359  12.084  11.677   5.422 -0.1717 -0.0805 -0.0587
30513W        W47360   0.806  10.883  13.086  0.0448 -0.2096 -0.4082
30514W        W47361   4.836   0.156   0.802  0.1685 -0.1593 -0.0856
30515W        W47362   2.602  10.011   4.380  0.0466 -0.1668  0.3902
30516W        W47363  17.666  10.149   4.350 -0.0349  0.1180 -0.0447
30517W        W47364  12.218  10.670   1.674 -0.3030 -0.0733 -0.0771
30518W        W47365  11.686  12.646  15.528 -0.1402  0.0840 -0.2813
30519W        W47366  13.279   2.090   3.539 -0.2856 -0.4418  0.1151
30520W        W47367   6.794  15.779  10.903  0.0604 -0.0941  0.2235
30521W        W47368  12.147  11.523   0.306  0.0737  0.3695 -0.3104
30522W        W47369   0.599  17.739  14.482  0.0583 -0.0231  0.0026
30523W        W47370   6.739  10.927   1.055  0.1781  0.1897  0.1550
30524W        W47371  12.642  12.748  14.174  0.1268  0.1439  0.0187
30525W        W47372  14.746   2.458   2.860  0.1951  0.0202 -0.1384
30526W        W47373   4.838   6.054  12.246  0.3429 -0.1411  0.0234
30527W        W47374  16.710   1.716   4.201  0.1606  0.0917 -0.2888
30528W        W47375   7.875  16.678  14.873  0.1067 -0.1124  0.2286
30529W        W47376   6.892  12.532  15.655  0.0794  0.0446 -0.1488
30530W        W47377  11.666  10.954  11.279  0.1467 -0.3598 -0.1691
30531W        W47378   8.003   6.639  11.769 -0.1540  0.0613 -0.1857
30532W        W47379  17.666  15.672  14.355 -0.0339  0.0175  0.0496
30533W        W47380   9.860  16.882   5.107  0.0703 -0.2629  0.2086
30534W        W47381  18.473   8.377  15.800 -0.1843  0.1477  0.1136
30535W        W47382  12.907  10.125   5.254  0.2126 -0.0993  0.0030
30536W        W47383   7.960   4.800   4.797 -0.0959 -0.0651 -0.0879
30537W        W47384   4.212  13.829   2.560  0.0471  0.0879  0.0577
30538W        W47385   9.486   0.890  13.986  0.0840 -0.0178 -0.3760
30539W        W47386   5.427   3.418  12.544 -0.1006 -0.2394 -0.1599
30540W        W47387  15.532  10.135  13.770  0.2070  0.0323  0.0049
30541W        W47388   8.477   3.318  11.902  0.0200  0.1339  0.0692
30542W        W47389   7.687   3.113   0.898  0.1174 -0.1437  0.0971
30543W        W47390  17.126  13.374   4.355  0.1013  0.0220 -0.1650
30544W        W47391   6.959   9.793   4.557  0.0450  0.2701 -0.1503
30545W        W47392   1.760  13.756  14.352 -0.0180  0.1992 -0.0793
30546W        W47393  12.965  15.422  15.078  0.2726 -0.3060  0.3628
30547W        W47394   3.373   4.233  14.152 -0.2306  0.0106  0.0059
30548W        W47395  11.854  17.692   4.294  0.0255 -0.0307  0.0961
30549W        W47396   9.791   4.988  13.124 -0.0571 -0.0234 -0.1507
30550W        W47397   1.756  12.453   0.894  0.0099  0.0343 -0.0292
30551W        W47398   3.526   7.556   3.442  0.2314 -0.0394  0.0188
30552W        W47399   3.170  11.997  12.394 -0.1669 -0.0605 -0.0143
30553W        W47400  11.654   7.823  14.576 -0.0937  0.3524 -0.1413
30554W        W47401   0.426  15.312   0.370 -0.2207  0.2302  0.2208
30555W        W47402  10.225  12.375  15.161  0.1144  0.0186  0.0553
30556W        W47403  13.776   1.236   2.829  0.1274  0.2455  0.0645
30557W        W47404   5.359   9.514   1.910  0.4658  0.0040  0.0546
30558W        W47405  14.030   3.210  12.871 -0.1831  0.2583 -0.0685
30559W        W47406  17.061   3.431  13.906 -0.1938  0.1140 -0.0182
30560W        W47407   0.306  12.227   3.570  0.0367  0.2606  0.0486
30561W        W47408   1.134   9.534   3.509  0.1237  0.1334 -0.0525
30562W        W47409   0.966   7.331  15.690  0.3358 -0.0198 -0.1356
30563W        W47410  14.808  18.332  12.277  0.1112 -0.0006  0.2828
30564W        W47411  11.830   2.015  14.882 -0.2921  0.2415 -0.1692
30565W        W47412  17.345  17.119   1.327 -0.1817  0.0603  0.0144
30566W        W47413  11.457   9.010   2.503 -0.2130  0.1091  0.0952
30567W        W47414  17.995  13.410  11.699  0.5270  0.0272  0.2437
30568W        W47415   9.528   6.828  15.850 -0.2153 -0.1201  0.1137
30569W        W47416  12.929   1.594  15.440  0.2473 -0.2787  0.0057
30570W        W47417   9.413  16.860  11.124  0.1132 -0.1652 -0.0786
30571W        W47418   7.376  13.446   5.617  0.0257 -0.1131  0.3963
30572W        W47419  13.222   4.446   0.213 -0.3170  0.0494 -0.2226
30573W        W47420  17.046   5.384   4.765 -0.4110 -0.1228 -0.3424
30574W        W47421  13.859  12.503  15.605  0.0486  0.1498 -0.2288
30575W        W47422   9.268  15.320  14.916 -0.0135 -0.0202 -0.1263
30576W        W47423   9.362  18.516   1.392 -0.1002  0.0808  0.4129
30577W        W47424  15.518  14.941  12.032  0.2414 -0.1057 -0.3107
30578W        W47425  18.191  15.850   1.530 -0.2188  0.1659 -0.1171
30579W        W47426  13.101  10.576   4.234 -0.3656  0.0357 -0.2992
30580W        W47427  17.768   7.000   1.165 -0.1734  0.1289 -0.0735
30581W        W47428  16.478  13.987   4.062  0.1267 -0.1208  0.1711
30582W        W47429   0.632  17.451   0.164 -0.0580 -0.3555 -0.0315
30583W        W47430  16.231   0.442   3.084 -0.0134 -0.1240  0.2420
30584W        W47431  16.127  10.986  14.746  0.1702 -0.3319  0.2139
30585W        W47432   3.701   6.421   0.503 -0.0238  0.4284 -0.0016
30586W        W47433   1.492   6.470   0.427 -0.1691 -0.0620  0.1622
30587W        W47434   7.979   9.844   1.441 -0.0749 -0.2954  0.0882
30588W        W47435   3.830  15.165   0.286  0.0079 -0.0465 -0.0040
30589W        W47436  13.665   8.413   0.830  0.2998 -0.2000  0.0067
30590W        W47437  10.709  12.661  12.227  0.1560 -0.0199 -0.0209
30591W        W47438  16.805   2.626  13.961  0.0485  0.2806  0.0325
30592W        W47439  11.424  15.725   0.834  0.1026  0.0840  0.1728
30593W        W47440   5.436   5.902  15.515  0.0402 -0.2906 -0.1133
30594W        W47441  17.256   5.393  15.018  0.2231 -0.1022  0.3037
30595W        W47442   7.665   7.644   2.506 -0.2129  0.0408 -0.1613
30596W        W47443  17.591  17.629  13.511  0.0085 -0.4291 -0.0692
30597W        W47444  11.077  10.784   0.898 -0.0365 -0.1398 -0.0380
30598W        W47445  17.663   9.219   0.595 -0.2754 -0.2219  0.2378
30599W        W47446  13.890   6.695   0.058 -0.2110  0.1991  0.0325
30600W        W47447   3.878   5.880   0.837 -0.1733  0.3882  0.2842
30601W        W47448   9.956   0.084  15.232  0.1185 -0.1957  0.1129
30602W        W47449   8.628   0.181  13.748  0.4196  0.3162  0.0870
30603W        W47450  15.690  15.375   4.687 -0.0861  0.0227 -0.1036
30604W        W47451   6.735   5.269   0.944 -0.1077  0.0165 -0.0330
30605W        W47452  17.902   6.337   5.324 -0.1421  0.0267  0.1769
30606W        W47453  18.307   7.890  12.436  0.0060 -0.2040  0.0117
30607W        W47454  11.934  17.138  15.218  0.2325 -0.1833 -0.2401
30608W        W47455   3.341   6.018   2.958  0.0354 -0.1951 -0.1818
30609W        W47456  16.013  18.437  14.244 -0.1474  0.1488 -0.1152
30610W        W47457   3.453   2.492   1.566 -0.3201 -0.0379  0.2478
30611W        W47458  14.689   7.418   2.154  0.0996  0.0024 -0.1443
30612W        W47459  17.315  10.146  14.797  0.0024 -0.0750  0.1557
30613W        W47460   5.301  18.488   4.259  0.0895 -0.1169 -0.2102
30614W        W47461   5.371  15.348  13.611 -0.1849  0.1700  0.2240
30615W        W47462  17.461   1.046   3.753 -0.3753 -0.0303  0.0075
30616W        W47463  17.814  18.262  11.633  0.1104  0.2267 -0.0398
30617W        W47464  18.186   6.317  12.246  0.1357  0.1307  0.1461
30618W        W47465  14.390   4.192  14.810 -0.1490 -0.0893  0.0285
30619W        W47466  17.752  16.047   1.422  0.0034 -0.1092  0.2781
30620W        W47467   2.575   1.418   2.362  0.0472  0.3344 -0.1434
30621W        W47468  16.578   1.913   2.253  0.2760 -0.2439  0.1024
30622W        W47469  11.581  17.912   1.069  0.0334 -0.3712  0.1364
30623W        W47470  12.326   1.064   0.345 -0.1295 -0.0584  0.0385
30624W        W47471   0.082  17.926   1.544  0.0785  0.0192  0.2599
30625W        W47472   5.598  18.278  13.724 -0.0090  0.0253 -0.0172
30626W        W47473   5.938   1.338  12.600 -0.1638 -0.0509 -0.1221
30627W        W47474  15.650   1.735  15.682 -0.1824  0.3605  0.2094
30628W        W47475  12.173   9.066   5.078  0.0740 -0.1770  0.3339
30629W        W47476  17.839  12.925   0.437  0.0022 -0.0979 -0.0206
30630W        W47477  15.523  10.659  12.779 -0.2837 -0.1568  0.1471
30631W        W47478   3.083   5.624  11.182  0.0870  0.0727 -0.0016
30632W        W47479   2.360   5.777   3.711 -0.2683  0.4536 -0.3086
30633W        W47480  15.690  14.412   4.938 -0.0229  0.5610 -0.0536
30634W        W47481   1.320   6.347   2.129 -0.1370 -0.1663 -0.2825
30635W        W47482  10.015   1.564  10.845 -0.1763 -0.2508  0.2826
30636W        W47483   0.031   3.058   4.947 -0.0527  0.1621  0.1309
30637W        W47484  16.440  16.571   3.386 -0.0080  0.2279 -0.0390
30638W        W47485   8.466  17.325  13.434 -0.0524 -0.1702 -0.1146
30639W        W47486  17.712  12.223   1.088  0.2891 -0.0440  0.0733
30640W        W47487  17.165   5.616  13.027 -0.2316  0.0861  0.0153
30641W        W47488  13.261  13.260   1.558 -0.0528 -0.0062  0.1629
30642W        W47489   5.574   0.744  14.870 -0.0543 -0.1923  0.2798
30643W        W47490   5.133   5.236  14.087  0.0362  0.0626 -0.0072
30644W        W47491  15.790  16.606  12.602 -0.0093  0.0666 -0.0723
30645W        W47492   5.541   7.343  15.735  0.1396 -0.1394 -0.2407
30646W        W47493   7.267  15.451   3.103 -0.0415 -0.4006 -0.1472
30647W        W47494   9.971  17.608  11.287 -0.1884 -0.0743 -0.2366
30648W        W47495   3.011   9.258   4.728 -0.0670 -0.2347 -0.3289
30649W        W47496   2.604  17.424   4.159 -0.0212 -0.1087 -0.0821
30650W        W47497  16.066  12.720  11.998  0.1236  0.3623  0.0255
30651W        W47498   9.884   4.362  15.347  0.0788  0.0923  0.1899
30652W        W47499  10.814   4.851  10.870  0.0944  0.1434  0.1830
30653W        W47500   3.206   7.453  13.763  0.1322  0.2916  0.0057
30654W        W47501   4.287   0.881   1.199 -0.1973  0.0821 -0.1580
30655W        W47502  12.833  17.651   1.928 -0.1981 -0.0873  0.0018
30656W        W47503   4.016   5.280   2.649  0.0725  0.0649  0.2132
30657W        W47504   9.497   1.516  12.698  0.1969 -0.0749 -0.0546
30658W        W47505  15.678   1.359  12.102 -0.3956 -0.0002 -0.0400
30659W        W47506   1.970   9.054  11.219 -0.0721 -0.1038  0.0392
30660W        W47507   7.318   7.529  13.691 -0.0281 -0.3018 -0.0086
30661W        W47508   1.546   0.396  12.299 -0.2225 -0.0541  0.0261
30662W        W47509  16.589   0.904   1.218  0.0365 -0.0180  0.1135
30663W        W47510   3.855   7.669   0.070  0.4330  0.0702  0.1445
30664W        W47511   6.876  14.967   2.121 -0.1957 -0.0940  0.1113
30665W        W47512   0.202  12.743   4.678 -0.0863 -0.0664  0.2344
30666W        W47513   5.687   8.712   2.036  0.1221  0.1983  0.1501
30667W        W47514   2.061   4.897   4.512  0.4741 -0.0830  0.0325
30668W        W47515   8.020  17.295   1.466 -0.4104 -0.1451  0.2010
30669W        W47516  10.867  17.365  13.163 -0.0939  0.2183  0.0566
30670W        W47517   0.428  10.252  11.110 -0.1182 -0.3239 -0.2754
30671W        W47518  17.642   5.128  14.689 -0.0869  0.0391  0.0949
30672W        W47519   3.403   4.398   0.262  0.1735  0.0465  0.1900
30673W        W47520  11.712   7.061   4.792  0.2137  0.0838 -0.1068
30674W        W47521   4.491   9.266  12.977  0.1242  0.3292  0.3759
30675W        W47522  11.773  14.103   1.163  0.0414 -0.0575  0.0872
30676W        W47523   5.871  15.071   2.422 -0.0171 -0.1444  0.0276
30677W        W47524   7.448   1.354  14.897 -0.0188 -0.0133  0.1090
30678W        W47525   3.665  15.481  12.673 -0.2197 -0.3294  0.1815
30679W        W47526   7.104   1.699  15.152 -0.2614 -0.3331  0.1451
30680W        W47527   7.756   5.637   2.394 -0.0147  0.1284  0.1950
30681W        W47528   5.930   0.650  11.506  0.3803 -0.2760 -0.2235
30682W        W47529  11.988   2.207  12.873 -0.0363  0.1288  0.3955
30683W        W47530   4.953   7.118   3.283  0.0517  0.1047 -0.2127
30684W        W47531  14.163   7.254   4.670 -0.3932 -0.1773  0.0949
30685W        W47532  11.415   7.692   0.493 -0.0712  0.1524  0.1087
30686W        W47533  15.724   6.651   2.854  0.0134  0.2474 -0.0336
30687W        W47534  15.956   5.107   4.918 -0.4274 -0.3041  0.2270
30688W        W47535  14.673   9.925  12.746  0.0227  0.1189 -0.2896
30689W        W47536   2.810   0.698   4.005  0.0176 -0.0158  0.3895
30690W        W47537  17.345  16.613   1.540  0.0381  0.2726  0.0268
30691W        W47538   5.788  18.478  11.134 -0.2868  0.1628  0.1035
30692W        W47539  12.753  13.335  11.929  0.3949 -0.0982  0.1429
30693W        W47540   0.308   1.267   2.689  0.0390  0.2604 -0.2611
30694W        W47541   5.897  16.555   5.071 -0.0343  0.0933  0.1208
30695W        W47542   1.491   3.081  12.849 -0.4311  0.1300  0.3079
30696W        W47543   6.489  17.153  14.203 -0.2132  0.1653 -0.1948
30697W        W47544   5.438   9.955   2.657  0.1758 -0.0781  0.1559
30698W        W47545   9.979   4.186  11.515  0.0729 -0.1849  0.0383
30699W        W47546   5.315  17.763   1.472 -0.3314  0.0218  0.0650
30700W        W47547   2.071  16.406   1.500  0.2141  0.0834 -0.0083
30701W        W47548   4.440  16.722  15.664  0.1281 -0.2896 -0.2561
30702W        W47549  18.428  15.851  12.620  0.0411  0.0346  0.1659
30703W        W47550  13.515  11.479   1.167 -0.3371  0.1469 -0.1117
30704W        W47551  10.501   4.606   3.516  0.0268 -0.0128 -0.0565
30705W        W47552  14.723   6.249   0.324 -0.1760 -0.0127  0.0123
30706W        W47553   9.512  13.154  13.568  0.1997 -0.2531 -0.4325
30707W        W47554  17.158  11.783   2.821 -0.0152  0.1075 -0.0877
30708W        W47555  14.128   6.050   1.900  0.4860 -0.1312  0.0576
30709W        W47556  10.008  12.020   1.565 -0.3147  0.0116 -0.0154
30710W        W47557   1.853   4.985   2.035  0.2693  0.1684  0.4442
30711W        W47558   4.413   6.158  12.603  0.0577 -0.0409 -0.1916
30712W        W47559  10.971   3.144   3.310 -0.1243  0.1575 -0.2191
30713W        W47560  11.934   1.967  11.931 -0.1075 -0.1561 -0.3003
30714W        W47561  15.335   2.489   0.559  0.0011 -0.1872 -0.0785
30715W        W47562  17.136   0.563  13.001  0.0250 -0.1590  0.0480
30716W        W47563   0.147   4.508  14.217  0.0103  0.0868 -0.3643
30717W        W47564   6.432   6.702   4.226  0.0175  0.1788 -0.0398
30718W        W47565   9.776   3.444  15.913  0.0530 -0.0067  0.0112
30719W        W47566   4.247   0.366   1.033 -0.1468  0.0482 -0.2854
30720W        W47567   1.736  12.040   0.553 -0.0008  0.4032  0.1331
30721W        W47568   5.815  16.577  15.458 -0.0643 -0.2525  0.2267
30722W        W47569   1.388  11.148   4.474 -0.1761 -0.1170  0.1659
30723W        W47570  18.406  12.514  14.489 -0.0363  0.0258  0.1558
30724W        W47571  10.114   4.271  11.028 -0.1000 -0.0798 -0.3398
30725W        W47572   4.008   8.725  14.503  0.0767  0.0582 -0.0249
30726W        W47573   4.142  16.010   0.082  0.1863  0.1224  0.0365
30727W        W47574   6.628   9.194  14.457 -0.2126  0.0087 -0.1578
30728W        W47575   6.176  10.882  14.266  0.2714  0.1152 -0.0868
30729W        W47576   7.621  13.488   6.049  0.3621 -0.0239  0.4059
30730W        W47577  13.341  12.158  11.385 -0.1947 -0.0706 -0.1412
30731W        W47578   2.319  10.608   3.720 -0.1464  0.2260  0.0425
30732W        W47579   6.667   9.615   3.095 -0.0678 -0.1779 -0.0040
30733W        W47580  18.247   4.308   0.978  0.2288  0.0728  0.1416
30734W        W47581  12.194  15.617  11.941 -0.0614 -0.0507 -0.0497
30735W        W47582  14.734   5.201   0.188  0.2038 -0.1758 -0.3103
30736W        W47583   7.889   1.111   3.371 -0.1955  0.1242  0.1553
30737W        W47584  12.405  15.253   0.731 -0.2111  0.0410 -0.1414
30738W        W47585   4.532   8.277   4.002  0.0341 -0.1829 -0.0565
30739W        W47586  17.654   8.487  11.453  0.2291  0.0057  0.0811
30740W        W47587  17.881   2.135   2.413 -0.0573 -0.0658 -0.2510
30741W        W47588   8.371  13.803   3.967 -0.0237  0.2049  0.2274
30742W        W47589  18.331  14.999   2.121 -0.1457  0.0871  0.0170
30743W        W47590  11.823  13.836  13.346  0.0355 -0.0864 -0.1865
30744W        W47591  15.763  12.253   1.072  0.1217 -0.4615 -0.1399
30745W        W47592   4.924  18.064   4.459 -0.1355 -0.2065 -0.0148
30746W        W47593  15.330   6.303  10.367  0.0007  0.0764  0.0316
30747W        W47594  13.133   6.715  11.497  0.4460  0.2709  0.3847
30748W        W47595   6.709  16.959   0.641  0.1625 -0.2360  0.0120
30749W        W47596  13.642   9.807  14.832 -0.0629  0.2632  0.2980
30750W        W47597  13.842  15.196   4.080  0.0214 -0.0609 -0.2019
30751W        W47598  12.250   7.056  12.257 -0.2728 -0.0187 -0.1274
30752W        W47599  15.321  11.297   0.596  0.4442  0.0842 -0.1000
30753W        W47600  17.916  16.973   1.881  0.0423  0.1997 -0.0646
30754W        W47601   2.728   1.245   1.871  0.0334 -0.0530  0.0445
30755W        W47602  13.393  17.333   5.145  0.1921 -0.1330  0.0200
30756W        W47603  17.022  10.384   5.478  0.2429  0.2749 -0.1848
30757W        W47604   8.019   0.856  15.872 -0.2566 -0.2442 -0.1051
30758W        W47605  18.015   0.147   3.429  0.1575  0.2815  0.0369
30759W        W47606   2.157   1.164  12.073  0.1114  0.2793  0.5280
30760W        W47607  18.467  17.278   4.573  0.0890 -0.2193  0.3229
30761W        W47608  10.108  17.522   1.998 -0.1489  0.3631  0.1344
30762W        W47609   1.707   4.284  15.887  0.1683 -0.1962  0.1800
30763W        W47610  18.381  10.673  12.902  0.0721  0.1398  0.1743
30764W        W47611   8.528   3.138  15.258  0.1694 -0.1024  0.0673
30765W        W47612  12.491  12.287   2.333  0.1080  0.1270  0.0803
30766W        W47613   7.293  18.049   3.773 -0.1159 -0.1229  0.0950
30767W        W47614  13.232  15.070  14.753 -0.2800  0.0142  0.1393
30768W        W47615   0.828   3.093  14.357 -0.2517  0.2779 -0.0937
30769W        W47616   7.778   6.471   1.149  0.0191  0.1601  0.0876
30770W        W47617  14.246  18.124  15.648 -0.0098  0.0978  0.0963
30771W        W47618  14.662  18.394   5.754 -0.1712 -0.1104 -0.0916
30772W        W47619   2.618   1.308   1.029  0.1098 -0.0228 -0.3217
30773W        W47620  15.927  11.939  14.801 -0.3138 -0.1273 -0.2588
30774W        W47621   9.878  11.591   3.284  0.0322  0.2782  0.0062
30775W        W47622   0.967  13.710  14.855  0.0265  0.2992  0.0307
30776W        W47623   1.165   9.552  13.370  0.2235 -0.2608  0.1362
30777W        W47624  13.455   1.626  15.587 -0.0920 -0.2736  0.3109
30778W        W47625   9.979   6.909   5.219  0.1512  0.1860 -0.0538
30779W        W47626  11.969  13.471  11.522  0.1719 -0.0285 -0.0847
30780W        W47627   4.213  10.700   4.439 -0.3168  0.1028 -0.0736
30781W        W47628  14.028   2.550  14.188  0.0014  0.3471 -0.0132
30782W        W47629   5.102  10.330   2.410  0.1593 -0.0567 -0.3969
30783W        W47630   4.626  11.625  11.740 -0.1097  0.0176  0.0190
30784W        W47631   3.823   9.174  11.807  0.3208  0.1306  0.1531
30785W        W47632   9.105   7.145  13.219  0.0142  0.1877  0.0802
30786W        W47633   3.864   3.350   9.806  0.1121  0.0411  0.2409
30787W        W47634  13.434   2.680   2.715 -0.2773  0.2332 -0.0897
30788W        W47635  14.235  18.478   4.096 -0.1898  0.2974  0.1284
30789W        W47636   1.889  11.156  12.459  0.0585  0.1427 -0.0314
30790W        W47637   4.741   5.172  15.874 -0.2525  0.4942  0.1757
30791W        W47638  10.227  17.141  11.932  0.0129  0.0698  0.0158
30792W        W47639  17.751  12.663   2.880 -0.1110  0.0477  0.0676
30793W        W47640  11.200  16.783  14.438 -0.1991 -0.2727 -0.0084
30794W        W47641  12.485   1.926  13.823  0.0138 -0.4597  0.0985
30795W        W47642   0.668   4.326  11.116 -0.3104 -0.1358  0.1428
30796W        W47643  12.017  11.853   2.797 -0.0653 -0.0923 -0.1529
30797W        W47644  18.430   5.053   0.460 -0.0865  0.1961  0.1070
30798W        W47645   0.968  13.899  12.282 -0.3779  0.1688 -0.1441
30799W        W47646  10.411   3.723  10.582  0.1590 -0.0126 -0.0572
30800W        W47647   7.176  15.817   0.849 -0.1417  0.1066  0.0038
30801W        W47648   7.171   2.480   4.382 -0.2886 -0.3040  0.1178
30802W        W47649   4.308   4.472  13.785  0.0229 -0.0855  0.0817
30803W        W47650   2.147   1.519   2.796  0.1934 -0.0809  0.0277
30804W        W47651   8.064  16.360   4.093 -0.1881  0.2466  0.1149
30805W        W47652   3.903   7.762   1.083  0.1035 -0.0964 -0.1006
30806W        W47653  11.472  14.624   3.556  0.1013  0.0556 -0.0611
30807W        W47654   6.628  10.723   5.772 -0.1270  0.0159 -0.2020
30808W        W47655  14.426  16.617   4.356  0.0189 -0.3089 -0.2147
30809W        W47656   7.624   2.715  11.838 -0.0024  0.0207 -0.1285
30810W        W47657  12.763   2.372  11.396 -0.0070 -0.0523 -0.0938
30811W        W47658  18.142  14.080  15.159  0.0666 -0.0760 -0.3008
30812W        W47659   1.438   2.530   0.142  0.1499 -0.0590 -0.0717
30813W        W47660   8.655   8.942   4.623  0.3395  0.0924 -0.3709
30814W        W47661  14.384  10.354  11.561  0.3993  0.1255 -0.0201
30815W        W47662  16.271  11.738   2.095 -0.1076  0.0448 -0.0946
30816W        W47663   9.382   1.239   1.909  0.3064  0.0282 -0.0048
30817W        W47664   3.868  15.577  13.142  0.2640 -0.2400  0.2637
30818W        W47665  16.344  15.036   1.364  0.1563 -0.1888  0.0649
30819W        W47666   0.909  11.812   0.919 -0.2253  0.0764  0.3452
30820W        W47667   2.789  14.721  14.046 -0.1614 -0.5534  0.2014
30821W        W47668  13.018  13.586   4.761 -0.0655  0.0925  0.0213
30822W        W47669   2.979   2.944   3.733  0.1463 -0.1058 -0.2555
30823W        W47670  16.952  10.749   1.263 -0.0638 -0.1537 -0.1566
30824W        W47671   5.845  14.630   3.775 -0.1612 -0.0058 -0.0684
30825W        W47672  14.397   5.471  13.466  0.0792  0.1544  0.4789
30826W        W47673   3.362  17.709   1.092 -0.1735 -0.0588  0.0137
30827W        W47674  11.637  17.917   0.583  0.5559  0.2818  0.1917
30828W        W47675   8.326   1.884   4.586  0.1914  0.1492  0.0760
30829W        W47676   0.506  14.246  10.192  0.1710 -0.1906  0.2263
30830W        W47677   5.970   1.802  13.132 -0.0509 -0.0671  0.1427
30831W        W47678   9.519  13.983   3.694 -0.2224  0.0439  0.2828
30832W        W47679  16.190  14.990   4.510  0.0314  0.2086  0.2091
30833W        W47680  15.206  17.080   3.865 -0.0970 -0.1149  0.1337
30834W        W47681   2.315   6.679  15.782 -0.0860 -0.2666  0.0033
30835W        W47682  12.141  15.830  11.453 -0.1987  0.0180 -0.0319
30836W        W47683  14.221   9.492  11.214 -0.0028 -0.0986 -0.3439
30837W        W47684   1.848  15.393  15.502  0.0778 -0.0587 -0.0883
30838W        W47685  17.936   0.642  13.670  0.1199 -0.1768  0.0919
30839W        W47686   7.717   1.645   0.472  0.1074 -0.1225  0.1509
30840W        W47687   4.620   3.959  14.809 -0.2170 -0.2745 -0.0175
30841W        W47688   1.711   0.963  14.343  0.0585  0.4261 -0.1856
30842W        W47689   9.548   0.093   2.321  0.0714  0.3798 -0.1372
30843W        W47690  14.774   2.819   2.005  0.1846  0.2510  0.0692
30844W        W47691  13.671   8.487  14.908 -0.3083  0.3681  0.1913
30845W        W47692   5.570   3.557   9.989  0.1796  0.1988  0.0239
30846W        W47693  14.894   4.949   0.633  0.2396 -0.2213  0.0276
30847W        W47694   5.814  13.174   1.196  0.1490  0.3150  0.1096
30848W        W47695   6.301  13.086   4.602  0.2433 -0.3614 -0.0684
30849W        W47696  15.994   0.960  15.634  0.2834  0.4114  0.0045
30850W        W47697   0.213  10.589   1.233  0.0947  0.3218 -0.1170
30851W        W47698   1.808   9.438   0.874 -0.1002 -0.1909 -0.0044
30852W        W47699   5.819   2.799   5.217  0.0669  0.1048 -0.0617
30853W        W47700   2.361   0.800   4.968  0.1065 -0.1039 -0.0530
30854W        W47701   0.458  10.451  14.953  0.1289 -0.1936 -0.0317
30855W        W47702   6.822  14.813  15.664  0.0427  0.2485  0.0275
30856W        W47703   3.038   0.563  12.186 -0.0276  0.0857 -0.0023
30857W        W47704  11.097   8.734   5.622 -0.1488  0.0626  0.4349
30858W        W47705   6.696   8.576   4.876  0.0916 -0.1134  0.0537
30859W        W47706   8.814  12.301   3.440  0.1280  0.1396  0.1087
30860W        W47707   3.473   7.935  13.590  0.1450  0.2291 -0.1615
30861W        W47708   7.720   4.728  14.459 -0.3101  0.2865 -0.3043
30862W        W47709  10.743   8.403  13.634  0.0295 -0.2333  0.2790
30863W        W47710  12.418   2.559   4.657  0.0588 -0.3215 -0.1593
30864W        W47711   1.177  11.891   4.266  0.0036 -0.0063  0.0767
30865W        W47712  16.277  11.708  13.031 -0.0650 -0.1187  0.1812
30866W        W47713   3.255  10.061   0.949  0.0521  0.0536 -0.1789
30867W        W47714  10.866  11.373  12.390 -0.1409  0.0347 -0.3802
30868W        W47715  16.879  14.289   3.134 -0.0098 -0.1064  0.0459
30869W        W47716   3.538  14.961   2.364 -0.3717  0.2896 -0.0754
30870W        W47717   3.380  11.205  13.946 -0.0481 -0.0808  0.3520
30871W        W47718   6.021   8.157  12.207  0.3235  0.1214 -0.0573
30872W        W47719   9.798  10.165  12.786  0.2707 -0.0137 -0.2257
30873W        W47720   9.158   8.427  14.993 -0.1031 -0.0416 -0.1530
30874W        W47721  10.085  15.782  13.866  0.0077 -0.0063  0.3930
30875W        W47722  15.627   9.411  15.174 -0.1370 -0.0775  0.0497
30876W        W47723   4.083   5.190   3.559 -0.0257 -0.1891 -0.2852
30877W        W47724  10.568   6.328   1.266  0.1136 -0.0153  0.0176
30878W        W47725  11.427  14.915  11.476  0.0479 -0.1119 -0.0459
30879W        W47726   1.178   3.390   1.307  0.0284 -0.3630 -0.2211
30880W        W47727   5.173  15.015   2.301 -0.1669  0.2126 -0.1644
30881W        W47728   0.753   3.214   2.143 -0.3266 -0.1330 -0.0111
30882W        W47729   5.679   0.952  15.291 -0.2430  0.0062 -0.0480
30883W        W47730  14.374   2.499   3.239  0.1199  0.2022  0.0929
30884W        W47731   1.318   0.025  15.333 -0.1295  0.0437  0.0146
30885W        W47732  16.216  15.682  13.490  0.2985 -0.0085  0.2470
30886W        W47733  10.653  13.841   0.344  0.1064  0.1392  0.0378
30887W        W47734  14.649   6.173  11.206  0.0224 -0.0755 -0.0334
30888W        W47735   3.902  12.826  11.951  0.0359 -0.1103  0.0477
30889W        W47736  11.561  17.466  14.997  0.1668  0.0704 -0.1837
30890W        W47737  18.475  15.155   5.006 -0.1748 -0.1340 -0.0724
30891W        W47738   7.835   0.336  10.435  0.1060 -0.0643 -0.0584
30892W        W47739  10.646   1.731  12.252  0.3136 -0.4385  0.0006
30893W        W47740   4.460   2.289  15.284  0.0969  0.0550 -0.0018
30894W        W47741   8.160   1.354   4.515  0.2739 -0.1234 -0.1745
30895W        W47742  14.495  12.502  10.376 -0.0314 -0.0449  0.0223
30896W        W47743  17.652  16.476  12.797  0.1816  0.0698 -0.3457
30897W        W47744   8.446  15.007  14.143  0.3007 -0.0310  0.1112
30898W        W47745   2.848   9.518  14.213  0.0231  0.0096  0.1533
30899W        W47746  12.278  17.208  13.907  0.4582 -0.3053  0.1463
30900W        W47747  10.729  12.567   2.817  0.1720  0.0541 -0.0469
30901W        W47748  13.230   0.909  11.565  0.1266  0.1235 -0.1082
30902W        W47749  12.184  18.017   4.594 -0.0448 -0.4325  0.1021
30903W        W47750   2.014   0.650   2.210 -0.1511 -0.1731  0.4676
30904W        W47751   9.956  17.620   2.868  0.4177 -0.0950  0.0552
30905W        W47752   3.821   6.949  12.109 -0.0715  0.1442  0.0240
30906W        W47753   4.365  11.849  14.996  0.1744 -0.1055  0.1151
30907W        W47754  16.850  17.791   2.223 -0.3768 -0.2420  0.2247
30908W        W47755   1.729   2.730  14.844 -0.0492  0.1369  0.1530
30909W        W47756  15.533   0.610   1.517 -0.0857  0.1874  0.1207
30910W        W47757   7.431  10.954  15.559 -0.1485  0.0787 -0.0685
30911W        W47758   8.651   3.470   0.127  0.0957  0.2173  0.0295
30912W        W47759   4.186   5.122   0.411  0.0862  0.0920  0.1850
30913W        W47760  15.190  11.089   2.321  0.1837  0.0668 -0.1462
30914W        W47761  17.861  16.135   1.942  0.0847 -0.1110 -0.0199
30915W        W47762   7.865   8.574   2.810 -0.0342  0.0110  0.1741
30916W        W47763  13.718   2.078  14.476  0.0853 -0.3794 -0.1434
30917W        W47764   1.727   9.351   1.771  0.3436  0.1906 -0.2992
30918W        W47765   7.235  16.992   1.358  0.1837  0.1571 -0.4775
30919W        W47766  15.879  15.568   0.233  0.2597  0.2262 -0.0714
30920W        W47767  15.333   3.972   1.887 -0.0806  0.2165 -0.3404
30921W        W47768   0.972   8.520   4.941  0.0309  0.0178  0.0496
30922W        W47769   9.082  12.294   4.537  0.2357  0.2334 -0.0754
30923W        W47770  14.596   8.482   4.857  0.1973 -0.1141  0.0436
30924W        W47771  11.287   1.229  12.028 -0.2152 -0.1255  0.0675
30925W        W47772   6.986   5.688   1.768 -0.1926 -0.1990 -0.0646
30926W        W47773   2.271   8.482   0.601 -0.0347  0.1165 -0.0103
30927W        W47774  17.765  16.741   2.366 -0.2542 -0.3069 -0.2232
30928W        W47775  12.810   3.480   1.945 -0.0731 -0.3311  0.1926
30929W        W47776   9.005  14.037  12.752  0.0858 -0.0385 -0.0633
30930W        W47777   7.532   1.332   1.783 -0.1821  0.2410  0.0104
30931W        W47778  17.923  17.762   4.373  0.0685 -0.0040  0.0775
30932W        W47779   7.710   9.696  12.992 -0.2398 -0.2619  0.2266
30933W        W47780   8.529  10.840  13.670  0.1933  0.1288  0.2631
30934W        W47781  16.280  15.443   3.317 -0.1107  0.0714 -0.0276
30935W        W47782   9.074  17.116  10.871  0.1101 -0.0290 -0.1461
30936W        W47783   0.762   4.742  15.373  0.1621  0.1020  0.1869
30937W        W47784   2.678  18.454   2.398 -0.0166  0.2644  0.4407
30938W        W47785   5.484  11.719   5.091 -0.2733  0.1999 -0.2265
30939W        W47786  17.065  14.236  13.172 -0.1702 -0.0253 -0.5098
30940W        W47787   2.497  11.264  13.601 -0.0753 -0.0227 -0.1028
30941W        W47788  11.638   4.386   0.022 -0.2556  0.0636  0.0832
30942W        W47789  12.796  16.166   0.915 -0.0640  0.1050 -0.2457
30943W        W47790  13.767   9.381  14.530  0.2001  0.0973 -0.0981
30944W        W47791  10.941   9.880  12.080 -0.0157 -0.2129 -0.1568
30945W        W47792   5.014   8.855  14.062 -0.0453  0.0691  0.0403
30946W        W47793   0.749   5.008   0.436 -0.0015  0.1703  0.2077
30947W        W47794   9.126   8.111   1.973  0.1375 -0.1510  0.3224
30948W        W47795   4.576  14.270   3.748 -0.0218  0.2226 -0.0265
30949W        W47796   7.831   2.475   3.154 -0.1784 -0.2757  0.1053
30950W        W47797   8.252   2.490  12.491 -0.0246  0.1972  0.0329
30951W        W47798   2.988   4.779  12.099 -0.1103 -0.3103 -0.1253
30952W        W47799  14.744   5.391   4.548  0.2454  0.1302  0.1329
30953W        W47800  13.426   0.450   2.548  0.0006 -0.1975  0.0379
30954W        W47801   4.705   6.165  15.541 -0.1652 -0.2008 -0.1819
30955W        W47802   3.216  15.988   2.748  0.0712 -0.1315  0.1203
30956W        W47803   4.971  13.145   0.791 -0.0022  0.0468 -0.0263
30957W        W47804  12.150  13.993  12.643  0.2159  0.1308  0.0824
30958W        W47805   0.697   4.143   4.574 -0.0387  0.1018  0.0811
30959W        W47806  11.667   6.654  15.046  0.0034 -0.3316  0.2300
30960W        W47807   4.348  14.675   4.194 -0.1760 -0.0910 -0.2530
30961W        W47808  16.166   0.169   4.551  0.0311 -0.0070  0.0189
30962W        W47809   4.404  18.313  14.934  0.0019  0.2263 -0.1535
30963W        W47810   5.143  12.494   2.852 -0.0410  0.0065 -0.3451
30964W        W47811  12.008  18.140  12.653 -0.1329  0.1225  0.2569
30965W        W47812  14.378  14.621   1.994 -0.0422  0.1174 -0.0328
30966W        W47813  17.893  14.209   0.560  0.1317 -0.0563 -0.2409
30967W        W47814   8.134   2.636  14.098  0.3411  0.0308 -0.0238
30968W        W47815  18.282  10.545   2.522 -0.2396 -0.0801 -0.3478
30969W        W47816  10.351   5.060  10.651  0.1534 -0.1400  0.1311
30970W        W47817   4.818  10.493   1.997  0.1455 -0.1201 -0.1389
30971W        W47818   7.993   8.220   0.312 -0.2595 -0.2056 -0.0178
30972W        W47819   4.276   4.680   5.290  0.0178 -0.0105  0.0157
30973W        W47820  12.707  10.297   2.742  0.2655  0.2039 -0.0353
30974W        W47821  11.143   6.056  10.367  0.1727 -0.0238 -0.0409
30975W        W47822   3.462   1.563   1.317  0.0258 -0.0750  0.1083
30976W        W47823  16.492  18.080  14.259 -0.0257  0.1578  0.0465
30977W        W47824  10.239   9.595   0.565 -0.2554 -0.2705  0.1656
30978W        W47825   5.771   2.983  15.111  0.0740 -0.1325  0.0225
30979W        W47826   8.726   9.209   0.656 -0.2280 -0.0165 -0.2422
30980W        W47827  14.120   4.488  11.863 -0.2288 -0.1848  0.2048
30981W        W47828  16.279   8.038  11.171 -0.1675  0.3886 -0.2851
30982W        W47829   3.397   7.195   3.121 -0.0565  0.3269  0.0101
30983W        W47830  12.934  13.629   3.860 -0.2115 -0.0383 -0.0897
30984W        W47831   4.840  13.304  13.621  0.1342 -0.2425 -0.0914
30985W        W47832   2.447   0.173   0.991 -0.1158  0.0689  0.1154
30986W        W47833  14.501  11.439  12.072  0.2288 -0.0659  0.3313
30987W        W47834   8.377  10.975  13.192  0.0081  0.1124 -0.2807
30988W        W47835   0.510   1.732   3.582 -0.0861  0.0406  0.1933
30989W        W47836  14.624   1.558   3.769  0.2886  0.0389  0.1757
30990W        W47837   5.583  15.254   0.663 -0.3105 -0.1531 -0.0297
30991W        W47838   6.430   3.156   4.568  0.0318 -0.2168  0.1044
30992W        W47839   8.665   7.320   3.648 -0.1721 -0.1946  0.1229
30993W        W47840  15.181   4.784  11.983  0.0706  0.3182  0.0528
30994W        W47841   4.585  12.626   0.088  0.3190  0.0909 -0.2326
30995W        W47842  10.451   7.771  11.318  0.0215 -0.2510 -0.0993
30996W        W47843   4.968   7.057  13.766 -0.1421 -0.0169 -0.0452
30997W        W47844   9.862   0.145  12.632 -0.0394  0.1110 -0.0697
30998W        W47845   7.355   6.343  11.765  0.0448 -0.1294 -0.3699
30999W        W47846   4.489  17.660   4.107 -0.3779 -0.2483  0.0011
31000W        W47847  10.175  11.633   0.607  0.0979  0.2219 -0.1645
31001W        W47848  13.110  11.879   4.256  0.1122 -0.1280  0.0102
31002W        W47849  13.967   4.794  11.441 -0.1261  0.0581 -0.0811
31003W        W47850  11.667   0.610   5.108  0.1250  0.0303 -0.0526
31004W        W47851  15.476  12.168   0.645  0.2875  0.1683  0.0309
31005W        W47852  10.612   0.946  11.366 -0.2220 -0.0255 -0.1649
31006W        W47853  17.669   0.426   4.211  0.0652  0.1406 -0.2531
31007W        W47854   9.800   3.107   2.682  0.1804  0.1061 -0.2025
31008W        W47855   7.548  12.305   3.238  0.4620  0.1606 -0.2235
31009W        W47856   6.442  11.863  15.579  0.1062 -0.0156 -0.1404
31010W        W47857  13.358  11.022   1.163 -0.2347 -0.0886 -0.3518
31011W        W47858  18.058   0.968  13.305 -0.3165  0.2039 -0.2656
31012W        W47859  10.022  17.912  13.587 -0.2226  0.1002  0.0841
31013W        W47860  12.891  15.155   0.746  0.3301  0.0585  0.1657
31014W        W47861  14.892  16.928   2.982 -0.2306  0.3245  0.0289
31015W        W47862   5.442  16.924   9.924  0.1365 -0.1247  0.0022
31016W        W47863   1.722   0.353  15.307  0.0958 -0.2236  0.1317
31017W        W47864   8.829  17.095   5.817 -0.1199 -0.2448  0.1823
31018W        W47865  17.754   5.532  12.402  0.1765 -0.1957  0.3642
31019W        W47866  16.370   9.493  13.688  0.0734  0.0796 -0.1960
31020W        W47867  17.338  14.496   3.233 -0.1442 -0.1376  0.0727
31021W        W47868  12.752  11.496   1.685  0.2687 -0.1043  0.2032
31022W        W47869  17.763  17.575  15.502 -0.0905  0.1374 -0.1076
31023W        W47870   9.220  13.142   3.691  0.2782  0.0382  0.0314
31024W        W47871   4.822  14.857   4.469  0.3974  0.2016  0.2962
31025W        W47872  12.623   1.727   2.475 -0.5048  0.0337 -0.1558
31026W        W47873   6.326  17.551   0.456  0.1766  0.0526 -0.0365
31027W        W47874  16.959   3.053  14.211  0.5376  0.2301  0.1137
31028W        W47875  11.225  14.721   0.690  0.2239 -0.2960  0.0894
31029W        W47876  17.892  12.623  15.505 -0.0383  0.0177 -0.0530
31030W        W47877  13.756  13.045   4.110 -0.1469 -0.0266  0.0080
31031W        W47878  17.829   7.185   2.177  0.0762  0.1803 -0.1087
31032W        W47879   9.369   0.573  13.154 -0.0387 -0.1260  0.0092
31033W        W47880   2.822   4.518  14.779 -0.2701  0.3264  0.0363
31034W        W47881   6.523   4.058   4.282  0.0021 -0.2074  0.3249
31035W        W47882  14.373   7.802   0.496  0.0762  0.2170  0.0458
31036W        W47883   4.957   5.437  13.013 -0.1357 -0.1898 -0.0366
31037W        W47884   3.309   5.073  14.494  0.0347 -0.0657 -0.2250
31038W        W47885  13.461  15.558   1.621  0.0813 -0.4897  0.0816
31039W        W47886  17.577   1.174   0.435 -0.1287  0.2594  0.1779
31040W        W47887   6.231  13.446  14.269  0.0015 -0.1421  0.0282
31041W        W47888   0.504  11.874  12.774 -0.3299 -0.1053  0.1335
31042W        W47889  13.944  13.822   1.227  0.0686  0.0961  0.1296
31043W        W47890   6.474   4.302   1.967 -0.4068 -0.1132  0.0960
31044W        W47891   3.866   3.319  12.056  0.0303  0.1456 -0.0366
31045W        W47892   9.420  15.090   4.818 -0.0969  0.2237  0.1324
31046W        W47893  17.919   8.091   0.326 -0.0098  0.2693  0.1109
31047W        W47894   2.960  17.342   3.830 -0.0286  0.2028 -0.0087
31048W        W47895  13.136  13.051  13.729  0.1052 -0.0507 -0.2346
31049W        W47896   9.231   9.016   2.180  0.1654  0.4680  0.1833
31050W        W47897   1.071   6.358  13.808  0.2630  0.2091  0.0073
31051W        W47898  14.739   9.057  15.328  0.1603  0.2173  0.0777
31052W        W47899   0.803   2.580   0.188  0.2228 -0.2188  0.3635
31053W        W47900   7.802   0.930  15.181  0.0514  0.1098  0.0152
31054W        W47901   2.846  17.641  12.500 -0.1646  0.2227 -0.2057
31055W        W47902   1.523   0.291   4.035 -0.0976  0.0241  0.0462
31056W        W47903  18.261  13.497   2.879  0.0059  0.3334  0.0718
31057W        W47904   1.584   1.738  11.377 -0.0598  0.1795 -0.2478
31058W        W47905   0.485   2.266  12.903  0.3146 -0.0222  0.1553
31059W        W47906   7.436   6.166   0.605  0.0760  0.2698 -0.0963
31060W        W47907   6.672   9.228  13.548 -0.2807 -0.1252 -0.0170
31061W        W47908  17.219   2.522   4.478  0.0474 -0.0385 -0.1017
31062W        W47909  16.794   5.393   1.880  0.0438  0.1157  0.1019
31063W        W47910  18.171  13.280  11.271 -0.2204 -0.0495  0.0285
31064W        W47911   9.258   5.037   3.739 -0.2511  0.1436  0.0464
31065W        W47912   3.742   6.464  13.948  0.2589  0.2326  0.5071
31066W        W47913  11.295   2.646  15.268 -0.0632  0.1184 -0.0904
31067W        W47914  12.098   2.983  12.819 -0.1814  0.1629 -0.2256
31068W        W47915  14.781   4.430  14.504  0.1746  0.3210 -0.1061
31069W        W47916   2.647  13.279  12.762  0.0636  0.2260  0.1422
31070W        W47917  11.495   7.873   5.415 -0.1397  0.1186 -0.2929
31071W        W47918   2.282  18.296   0.804  0.0662  0.1602  0.0350
31072W        W47919  14.235  13.341   1.321 -0.0594  0.3538 -0.3090
31073W        W47920   9.007   6.024  11.762  0.1062 -0.1778 -0.0849
31074W        W47921   7.879  12.654   3.288 -0.0847 -0.0994 -0.0052
31075W        W47922  15.259   3.662  11.908  0.0143 -0.2235 -0.0689
31076W        W47923  12.588   6.644   3.115 -0.3287  0.1921 -0.3237
31077W        W47924   9.162  15.542  13.095  0.0648  0.0147  0.1479
31078W        W47925   2.381  12.138  12.646 -0.0053 -0.3377 -0.2629
31079W        W47926  15.108   6.296  15.899  0.0665 -0.0635 -0.2241
31080W        W47927  18.271  16.203   2.477  0.1769 -0.0081  0.2634
31081W        W47928   1.755   2.830   2.899  0.2445 -0.0408 -0.2081
31082W        W47929  11.135   9.479   2.584 -0.0974 -0.1597  0.5798
31083W        W47930  11.038   3.189   1.615 -0.0301  0.0092  0.4515
31084W        W47931   1.040   2.813  11.394  0.0188  0.0250 -0.0339
31085W        W47932   2.123  12.952   0.769  0.1490  0.0353 -0.1486
31086W        W47933   9.210  15.742   1.846  0.2421 -0.3907  0.0332
31087W        W47934  13.567   7.098   5.059  0.3256  0.2821 -0.2947
31088W        W47935   5.233  15.128   4.567 -0.0241  0.1602  0.0598
31089W        W47936   3.382   6.483   3.736 -0.1381  0.3416  0.1262
31090W        W47937   8.490  11.326   3.153  0.0827  0.0742 -0.1633
31091W        W47938   9.969  11.496  12.556 -0.1567  0.5086  0.1639
31092W        W47939  15.131   9.741  14.919  0.0342  0.0849 -0.0543
31093W        W47940   1.867  12.303  12.591 -0.1016 -0.1099  0.1198
31094W        W47941  13.492   6.253  13.408 -0.1376 -0.1200  0.0435
31095W        W47942  18.018   5.519   5.320  0.0459  0.1501 -0.0550
31096W        W47943  18.051   4.738  12.029  0.1066 -0.2383  0.1528
31097W        W47944  12.395   4.966   1.591 -0.0807  0.1457 -0.0426
31098W        W47945   5.014   3.461  14.546  0.0098  0.0791 -0.3622
31099W        W47946   2.328  18.465  15.361 -0.4369  0.0642 -0.0367
31100W        W47947   4.203   6.218   2.034  0.0479 -0.4187  0.0444
31101W        W47948   5.381  11.212  10.563 -0.1358 -0.1715 -0.0384
31102W        W47949  12.386  13.180  11.388  0.1136  0.4071  0.2924
31103W        W47950   7.649  12.805  11.610 -0.0696 -0.0792 -0.0079
31104W        W47951   9.953  12.907  12.349  0.0241 -0.0303  0.3472
31105W        W47952   3.978   0.123   6.212 -0.3411  0.1058 -0.1048
31106W        W47953   5.009  15.189   4.129 -0.0312 -0.0196  0.0350
31107W        W47954  12.950  12.300   5.296 -0.1492  0.1708  0.0231
31108W        W47955   6.584   6.035   0.610  0.2355 -0.1865  0.3455
31109W        W47956   4.911  17.501  12.964 -0.1258  0.1016 -0.1252
31110W        W47957  15.927   1.198   2.568  0.1963 -0.1499  0.3290
31111W        W47958  18.130   9.437  13.662 -0.3246  0.4214 -0.2526
31112W        W47959   8.384   6.897   3.542  0.1945 -0.1131 -0.1108
31113W        W47960   9.911   4.523  13.325 -0.0959 -0.0478 -0.1026
31114W        W47961  13.417   6.996  10.075  0.0654 -0.1523  0.0929
31115W        W47962  13.515  13.954  14.951 -0.0120 -0.1355 -0.0164
31116W        W47963   5.200  18.185  14.723  0.1749 -0.0382 -0.1171
31117W        W47964   1.921   7.571   3.942  0.0461 -0.1411  0.2471
31118W        W47965   7.258   4.110   0.218 -0.1299 -0.0259 -0.0215
31119W        W47966  16.254   4.187  15.606  0.0419 -0.1208  0.2969
31120W        W47967  11.371  16.755   4.852  0.0489 -0.0454  0.2751
31121W        W47968   1.777   2.029  14.305  0.1759 -0.4592  0.0013
31122W        W47969   5.460   7.171   3.064  0.0151 -0.3679 -0.1694
31123W        W47970   4.031   7.297   1.840 -0.2050 -0.0916  0.1820
31124W        W47971  11.960   1.300   3.854 -0.0676  0.5484  0.0628
31125W        W47972   0.341   0.529   3.661  0.0605 -0.2716  0.3797
31126W        W47973   4.002   6.215   3.772 -0.0056 -0.0869 -0.1846
31127W        W47974   1.938   1.239  15.156 -0.1718  0.0677  0.0788
31128W        W47975   3.881   4.909  15.524  0.0243  0.1153  0.0916
31129W        W47976  12.546  11.924  15.396  0.2723 -0.2174  0.0140
31130W        W47977   7.795   1.394  15.554 -0.1342  0.1651  0.1101
31131W        W47978   0.559   8.353  11.946  0.0780  0.3289 -0.1285
31132W        W47979  13.410  13.346  14.300 -0.2114 -0.1575 -0.0707
31133W        W47980   1.882  15.816   0.792 -0.0136  0.2025  0.0102
31134W        W47981   6.873   0.148   4.660  0.2896 -0.0464  0.1284
31135W        W47982   5.603   1.991   9.959  0.1013  0.1412  0.0684
31136W        W47983  17.894  11.167   5.241 -0.1369  0.0151 -0.0523
31137W        W47984  12.360   1.683   4.588  0.1358  0.3980 -0.0626
31138W        W47985  15.975  13.075  15.683  0.0315  0.1786  0.3237
31139W        W47986   8.924  14.653   3.651 -0.4410  0.0304  0.0477
31140W        W47987  18.482   5.644  11.462  0.0587 -0.0002  0.1418
31141W        W47988   4.073   3.657  14.872  0.1578  0.3328 -0.1563
31142W        W47989   4.765  15.394   2.376 -0.1785  0.1043  0.0417
31143W        W47990  12.757   2.701   0.120  0.0035  0.1278  0.0248
31144W        W47991   7.364  10.090   0.380 -0.2567  0.2292 -0.0067
31145W        W47992   4.127  12.481   2.984 -0.0620  0.0877  0.0471
31146W        W47993   5.190  17.161   4.325  0.0322 -0.0567  0.0879
31147W        W47994   5.337   7.837   3.541 -0.2163 -0.0152 -0.0851
31148W        W47995   0.715  16.963   4.073 -0.2986  0.0487  0.0740
31149W        W47996   1.476   9.033  13.403 -0.3719  0.1813 -0.0974
31150W        W47997  16.948   4.936  13.863 -0.0549 -0.2020 -0.0828
31151W        W47998   0.402  15.112  13.348  0.1880 -0.0172  0.1990
31152W        W47999   6.310  11.243   3.125  0.0759 -0.0028  0.3294
31153W        W48000   7.941  15.843   1.800 -0.2021  0.0926 -0.2319
31154W        W48001   3.746  16.878  11.406 -0.1129  0.0286  0.0097
31155W        W48002   5.612   3.656  12.075  0.3436  0.0816  0.3520
31156W        W48003  18.407  12.673  15.426 -0.0945  0.0425 -0.0002
31157W        W48004   3.338  12.306  13.670  0.1187  0.1924  0.2890
31158W        W48005  10.785   8.359  13.051  0.4174 -0.1386 -0.1869
31159W        W48006  18.180  14.967  12.799 -0.1420 -0.1870  0.1327
31160W        W48007   9.339   2.119   0.731 -0.2338 -0.3267  0.0036
31161W        W48008   3.477  16.985   9.889 -0.0790  0.1926 -0.1958
31162W        W48009  14.027   4.675  15.880 -0.0908 -0.3685  0.0031
31163W        W48010   1.598   5.683   5.103  0.1055 -0.0283 -0.1841
31164W        W48011   1.353   3.000  15.622 -0.0340 -0.0658 -0.1192
31165W        W48012   3.914  16.316  15.164 -0.1930  0.1460  0.1099
31166W        W48013   2.134   2.550  11.739 -0.1542 -0.1147 -0.1144
31167W        W48014  16.949   3.709   2.289 -0.0290  0.0276  0.0238
31168W        W48015   8.351  13.725   1.374  0.1754 -0.1606  0.1251
31169W        W48016  12.889  11.495  11.800 -0.1901  0.0285 -0.0289
31170W        W48017   1.660   5.367  11.798 -0.0202  0.0289 -0.0411
31171W        W48018   3.483  12.059   2.087 -0.1445 -0.3811 -0.1246
31172W        W48019   3.427   9.644  14.562 -0.0930  0.0400 -0.0075
31173W        W48020  11.752  12.218   3.272 -0.0085 -0.1481  0.1521
31174W        W48021  16.979   6.418  11.698  0.1112 -0.0015 -0.0315
31175W        W48022  15.354   3.017   2.004  0.0172 -0.2226  0.1976
31176W        W48023  17.231   1.441   0.067  0.1401 -0.1669  0.0192
31177W        W48024   8.989  14.335   4.640  0.0528 -0.6250  0.2142
31178W        W48025   4.702   1.264  15.018  0.0117 -0.0101 -0.2459
31179W        W48026  10.716   4.838  12.528  0.1276 -0.0771  0.3466
31180W        W48027  17.743  10.410  14.791  0.2241 -0.0303  0.0353
31181W        W48028  15.946   2.511  14.020 -0.1676  0.0979 -0.2297
31182W        W48029   5.259   0.465   3.042  0.1844  0.1180 -0.0260
31183W        W48030   4.592  15.719   0.127  0.1813 -0.0324  0.2739
31184W        W48031  17.507  14.394  14.055 -0.0423  0.0159 -0.2042
31185W        W48032  17.018   4.104   4.669  0.1091 -0.0894 -0.1626
31186W        W48033  16.714  11.739  11.417  0.0806  0.1351 -0.1061
31187W        W48034   4.088   3.781   0.937  0.0999  0.0214 -0.0477
31188W        W48035   8.678  11.834  11.340 -0.0876 -0.0449 -0.3757
31189W        W48036   4.118   3.889  15.397 -0.1296 -0.2905  0.4247
31190W        W48037   8.505   4.848  11.893 -0.0728 -0.0310  0.0535
31191W        W48038   9.212   7.832   0.416 -0.0733 -0.0142  0.0297
31192W        W48039   5.708  13.458   0.454  0.0544 -0.0489  0.0157
31193W        W48040   0.851  18.164  11.396 -0.0090 -0.0116  0.0030
31194W        W48041   6.460   7.389  15.285  0.0141 -0.0419 -0.0471
31195W        W48042   9.439   9.809   1.043 -0.2275 -0.0121  0.2219
31196W        W48043  16.750  12.622  12.668  0.2221 -0.0097 -0.0133
31197W        W48044  10.371  17.671   0.360  0.0203  0.1446 -0.0028
31198W        W48045   3.722   5.481   2.286  0.1713 -0.0110  0.0636
31199W        W48046   6.751  11.608  13.514  0.0813 -0.0166 -0.1118
31200W        W48047  11.157   5.878  14.210 -0.0475  0.2892 -0.1608
31201W        W48048  14.866  10.020   0.610 -0.0256  0.1309 -0.1525
31202W        W48049   0.673   2.344   1.876  0.0484 -0.1416 -0.1547
31203W        W48050   3.851   9.528   4.837 -0.1607 -0.3696  0.2988
31204W        W48051  10.576  14.821   3.933  0.0019 -0.0322 -0.0308
31205W        W48052   5.456  15.791   1.857  0.0197 -0.0088  0.3562
31206W        W48053   0.359   2.920   1.369  0.0197  0.1027  0.1947
31207W        W48054  13.116  17.155  15.689  0.0720 -0.0105  0.2273
31208W        W48055   2.490   8.958   0.753  0.2858  0.0535  0.1308
31209W        W48056  15.746  18.442  14.968 -0.2839 -0.1800 -0.0265
31210W        W48057   1.634   6.715  12.489  0.1385 -0.0303 -0.0214
31211W        W48058  14.498   4.472  13.968  0.1432 -0.2047  0.2401
31212W        W48059  17.406   9.314   3.865  0.0908 -0.1263  0.0319
31213W        W48060   0.849   5.495  13.850  0.1706  0.4882 -0.2459
31214W        W48061   3.238  14.458   2.134 -0.1435  0.0397 -0.2205
31215W        W48062   6.779   7.069  11.748 -0.1221 -0.1476 -0.2986
31216W        W48063  12.072  14.925   3.356 -0.0376 -0.0055 -0.2141
31217W        W48064   3.607   9.949  14.244  0.1649 -0.3313 -0.1149
31218W        W48065  16.980  11.570   0.419  0.2521  0.1476  0.0422
31219W        W48066  13.812   4.991  12.873  0.0671 -0.1219  0.0998
31220W        W48067  14.379  13.454  13.347  0.1468 -0.1460  0.1102
31221W        W48068   3.128  11.854   4.449  0.1509  0.1151 -0.1534
31222W        W48069  14.312   0.762   1.799  0.0688 -0.1228  0.2472
31223W        W48070  17.037   2.275   0.418  0.0099  0.1688  0.0825
31224W        W48071  16.074   5.245   3.572 -0.3504 -0.1073  0.2463
31225W        W48072   5.990   7.708  12.457 -0.3675  0.0671 -0.4634
31226W        W48073  10.181  15.333  14.158  0.2414 -0.0152  0.1652
31227W        W48074   2.968   8.909   3.660  0.1292  0.0050 -0.1954
31228W        W48075   7.302  15.865   4.357 -0.0467  0.1794  0.2161
31229W        W48076   0.120  12.385  14.898  0.0123 -0.0825 -0.1095
31230W        W48077  15.593   2.694  15.175  0.0950  0.0101 -0.0961
31231W        W48078  14.107  17.479   0.458 -0.2003 -0.1632 -0.2410
31232W        W48079  14.778  14.999   1.247 -0.1126  0.2104 -0.0279
31233W        W48080   1.397  13.317   1.907  0.2159  0.1514 -0.4104
31234W        W48081  13.855  18.127   3.973  0.1406 -0.1501  0.1363
31235W        W48082   3.709  14.251   4.061  0.2621 -0.1966  0.0239
31236W        W48083  14.288   0.947  13.356 -0.0220 -0.1708  0.3896
31237W        W48084  11.941  11.769   3.855 -0.0601  0.3301 -0.1495
31238W        W48085  14.020  13.328  12.395 -0.0285  0.0485  0.0377
31239W        W48086  14.361   3.568   5.333 -0.1171  0.0072 -0.0157
31240W        W48087  11.837   0.698  14.925 -0.1521  0.0277  0.1029
31241W        W48088   7.667   6.111   1.521  0.2920 -0.0581  0.3683
31242W        W48089  16.149   1.809   1.469  0.1129  0.1748  0.0605
31243W        W48090  13.021   7.533   1.918 -0.0259  0.0786  0.2225
31244W        W48091   0.768  10.864   1.209 -0.0220  0.1037  0.1381
31245W        W48092   1.709   8.035   1.204  0.3881 -0.1664  0.0703
31246W        W48093  11.071   3.402  11.165  0.1023 -0.2988 -0.1306
31247W        W48094  17.901  17.189  12.087  0.0705 -0.0339  0.3102
31248W        W48095  15.276   8.944   0.456 -0.0865 -0.0594 -0.2211
31249W        W48096   1.758  13.628   5.054 -0.0694  0.0083  0.2165
31250W        W48097   9.452  11.335   1.808  0.0730  0.0428 -0.0935
31251W        W48098  15.567  18.539   0.280  0.1811  0.0047 -0.1857
31252W        W48099   3.562  16.932  15.273  0.4036 -0.1107  0.0214
31253W        W48100   4.752  17.957  13.038 -0.2497 -0.1127 -0.2597
31254W        W48101   8.572   2.436  14.017 -0.1705 -0.0493 -0.1598
31255W        W48102  13.860  16.778  11.663 -0.0743 -0.2867  0.0667
31256W        W48103  11.723  16.984  11.905  0.2994 -0.0218  0.2327
31257W        W48104   1.373  18.079  15.217 -0.0416  0.1769 -0.0733
31258W        W48105  18.025  12.829  14.707  0.0851  0.1906 -0.1427
31259W        W48106   6.038   0.099   3.735 -0.3702 -0.0324  0.0745
31260W        W48107   2.642   7.918   3.537  0.0871 -0.0441 -0.1318
31261W        W48108  10.606  11.504   4.017 -0.0156 -0.3028  0.0378
31262W        W48109   7.068   1.685  13.189 -0.0873 -0.2029  0.1087
31263W        W48110  17.081  17.429   3.522 -0.0466 -0.0486  0.0562
31264W        W48111  17.152   5.348   2.317  0.0172  0.0117  0.0400
31265W        W48112  16.764  16.975   3.418 -0.2954  0.0544  0.2349
31266W        W48113  12.850  13.974   3.248  0.1152  0.0942  0.1260
31267W        W48114  12.362   7.464   4.470 -0.0185  0.2607 -0.0080
31268W        W48115   7.585   2.992   5.268 -0.1083 -0.3728 -0.0465
31269W        W48116  13.634   9.967   3.636 -0.1105  0.2556  0.0403
31270W        W48117  15.657  14.210  12.111  0.0421 -0.2344 -0.0349
31271W        W48118   9.868   7.181  13.648 -0.1016  0.0033  0.0202
31272W        W48119   7.555  17.170   5.083  0.1920 -0.2053 -0.1580
31273W        W48120  17.737   1.992  13.013  0.1113 -0.1757  0.3942
31274W        W48121   0.835  17.684  12.567 -0.1731  0.0127 -0.1799
31275W        W48122   8.383  11.198  12.112  0.4307 -0.0260  0.0796
31276W        W48123  18.086   2.609  14.126  0.3956  0.2030 -0.2111
31277W        W48124  15.283   1.486  14.612  0.0947  0.1875  0.1041
31278W        W48125   1.115   8.637  14.152  0.0675 -0.0293 -0.0068
31279W        W48126   6.654  11.413   1.024  0.1543 -0.0495  0.0934
31280W        W48127   7.560  16.017  15.922  0.0143  0.2279  0.3588
31281W        W48128   6.788   8.314  13.536  0.2135 -0.0162  0.3320
31282W        W48129  11.825  14.240   0.116 -0.2397  0.3626  0.0984
31283W        W48130  10.877  10.197   2.241 -0.0165  0.0366  0.3362
31284W        W48131   0.993   9.086  11.811 -0.2751  0.0269 -0.2587
31285W        W48132  12.996  12.796  13.168 -0.0965 -0.0092  0.0626
31286W        W48133  15.661   9.513  12.912 -0.0317  0.2654  0.1212
31287W        W48134   4.236   2.992   1.300  0.0222  0.1251 -0.1501
31288W        W48135   7.912   5.299   0.680 -0.0869 -0.0474 -0.1025
31289W        W48136   3.420   7.275  12.830  0.2126 -0.1349  0.0048
31290W        W48137   9.260  10.042   1.453 -0.2130  0.0712  0.0905
31291W        W48138  10.080  16.122  12.392 -0.1094 -0.1256  0.3204
31292W        W48139  11.074  12.049   0.219  0.0215 -0.0828  0.1978
31293W        W48140   3.653  13.632   1.308 -0.1678 -0.0688  0.0408
31294W        W48141  12.624  14.250   4.343 -0.0068  0.0148 -0.2155
31295W        W48142  16.987   3.107  14.754  0.2195 -0.0413  0.0027
31296W        W48143  17.858   8.137  13.814 -0.1688 -0.1643  0.1099
31297W        W48144  10.557  16.423  13.708 -0.1357 -0.0162  0.1065
31298W        W48145   0.890   3.953   3.525  0.1173 -0.1033 -0.0765
31299W        W48146  11.054  12.702  11.088 -0.0668 -0.1840 -0.1759
31300W        W48147   1.910   4.199   2.674 -0.1429 -0.1921 -0.0519
31301W        W48148  14.629   4.560  11.904  0.0864  0.3596 -0.3747
31302W        W48149  10.007  10.716   1.355  0.0652 -0.0631 -0.2597
31303W        W48150  10.219  10.789  11.542  0.1435  0.0232 -0.1563
31304W        W48151  15.840   5.855  15.657  0.1474 -0.2028  0.0759
31305W        W48152   4.922   7.882   1.249  0.3934 -0.0297 -0.0493
31306W        W48153  17.112   2.403  14.894  0.2703 -0.2619  0.5976
31307W        W48154  13.706  16.360  15.482 -0.1889  0.3585 -0.0764
31308W        W48155  13.246  12.500  14.073 -0.0811  0.0363 -0.0200
31309W        W48156  13.307  11.131  12.703 -0.3270  0.0432  0.0278
31310W        W48157  11.251  18.250   4.812  0.1199 -0.0378 -0.0020
31311W        W48158  18.261   2.394   1.189 -0.1244  0.0988 -0.1907
31312W        W48159   6.815   7.155  14.837 -0.1081  0.0057  0.1660
31313W        W48160  15.101   5.074   4.787 -0.1137  0.0004  0.0459
31314W        W48161   9.871   9.543   9.915 -0.1182  0.3500  0.2381
31315W        W48162  16.882   9.927  11.772 -0.0494 -0.1489  0.1118
31316W        W48163  13.070   3.902  14.507 -0.0811 -0.0115 -0.1218
31317W        W48164  16.350  12.209   4.964  0.2036 -0.1225 -0.0123
31318W        W48165   7.565   6.058   4.453 -0.4473  0.0930  0.1019
31319W        W48166   4.420   4.032  13.995  0.1230  0.0671  0.1621
31320W        W48167   4.057   8.880   3.209  0.0273 -0.0357 -0.4126
31321W        W48168  14.925  12.706  14.970 -0.0720 -0.1306  0.0095
31322W        W48169   0.516   8.040   0.432  0.0852  0.0843  0.1311
31323W        W48170  15.500   7.702   2.726 -0.0789  0.1500  0.1366
31324W        W48171   5.177   6.847   0.549  0.3181 -0.0553 -0.2085
31325W        W48172  18.222   6.872   2.110  0.0036  0.1320  0.0589
31326W        W48173   0.148  15.603  14.741 -0.0510  0.1546 -0.1832
31327W        W48174   1.393   7.506   4.079  0.3415  0.0969  0.1637
31328W        W48175  16.061   6.800   4.115  0.1026  0.2096 -0.0801
31329W        W48176   8.409  10.172   0.619  0.1363 -0.2204 -0.1480
31330W        W48177   4.817  10.483   0.513  0.2016  0.1315  0.1051
31331W        W48178   5.056   5.760  13.458  0.1265 -0.1573 -0.1226
31332W        W48179  13.264   2.878   3.207  0.1163  0.0675 -0.0193
31333W        W48180   8.133  16.310  15.353  0.2291  0.0383 -0.0347
31334W        W48181  11.953  17.915  12.191  0.2675  0.1791 -0.0014
31335W        W48182   3.584   8.816  13.731 -0.1953  0.1467 -0.2785
31336W        W48183  13.662  10.046   1.751 -0.0195 -0.1329 -0.1900
31337W        W48184  13.114   2.051  15.637  0.0259  0.0134  0.0338
31338W        W48185   8.202   5.720  10.827 -0.3173  0.0596 -0.0024
31339W        W48186   3.498   2.777  12.143 -0.0751  0.1187 -0.0778
31340W        W48187   9.671  13.281  12.743  0.1728 -0.0594  0.0818
31341W        W48188  16.188   4.858   0.411 -0.1573  0.2044 -0.0254
31342W        W48189   8.382   9.392   0.333  0.0306 -0.3347  0.0960
31343W        W48190   4.453   5.880  13.669 -0.1012  0.1454  0.1163
31344W        W48191   5.109  15.693  14.593 -0.0393 -0.2591  0.0827
31345W        W48192   6.712   7.897   2.285 -0.0794 -0.1845  0.2161
31346W        W48193   8.089  17.720   3.212  0.0240  0.0153  0.1695
31347W        W48194   1.812  13.598  15.109 -0.1499  0.0902  0.0628
31348W        W48195  12.940   7.821   2.594 -0.2216 -0.0633 -0.0841
31349W        W48196  14.298   9.590  13.614  0.0169  0.2086  0.1068
31350W        W48197  17.131  15.509   3.595 -0.4191 -0.0798  0.0947
31351W        W48198  16.002  18.422   3.250  0.0245 -0.2524 -0.0345
31352W        W48199  15.386   5.507  11.279 -0.0540  0.2521 -0.1807
31353W        W48200   3.497   5.471   0.195 -0.0867  0.0561  0.1301
31354W        W48201  16.750  12.151   5.192 -0.2601 -0.1585  0.0487
31355W        W48202   7.238   5.141   3.994  0.1585  0.0656  0.0581
31356W        W48203  14.853   5.307  11.394 -0.0952  0.3431  0.1296
31357W        W48204   0.480   9.808   5.590 -0.0365 -0.0463 -0.2861
31358W        W48205  12.883  15.780  13.846 -0.0846  0.1433  0.1714
31359W        W48206   8.797   6.414  12.093 -0.0092 -0.3080  0.1080
31360W        W48207  12.346   1.721  11.985  0.2025 -0.0796  0.1807
31361W        W48208  13.016  14.742  11.072  0.0180  0.0855  0.0275
31362W        W48209   5.038   8.645  11.510 -0.4595 -0.0626  0.0245
31363W        W48210  16.175  13.118  14.121 -0.0970  0.1246  0.1877
31364W        W48211   5.320  11.398   3.778 -0.2012 -0.2586  0.3630
31365W        W48212  16.998  15.126   4.345  0.0924 -0.0708  0.2730
31366W        W48213   0.815   0.928   2.428  0.1337 -0.0313 -0.0453
31367W        W48214   8.166   7.466   1.647  0.1088 -0.2149  0.3327
31368W        W48215   4.054  16.713  13.510 -0.1591  0.0566 -0.0012
31369W        W48216  12.374  15.410   4.645  0.0318 -0.0777  0.2482
31370W        W48217  17.654   5.616  12.941 -0.0412  0.0844  0.0516
31371W        W48218   4.429   3.830   0.287  0.0507 -0.0614 -0.3829
31372W        W48219   9.922   2.954   0.475 -0.0301  0.0446  0.0455
31373W        W48220  13.330  11.880  15.092  0.4217 -0.1859  0.2133
31374W        W48221   0.385   2.066   1.560  0.0272  0.1475 -0.0065
31375W        W48222  18.346  12.540  10.690  0.0289 -0.0529 -0.0614
31376W        W48223   1.386  13.392  14.197 -0.3196 -0.0543  0.0432
31377W        W48224   3.412   3.257  14.317  0.2419 -0.0014 -0.1545
31378W        W48225   2.834   4.074   2.864 -0.0081  0.0257  0.0534
31379W        W48226  14.884  16.277   1.539  0.1887 -0.0252  0.0374
31380W        W48227  14.236   5.650   2.765 -0.1321  0.3727 -0.0144
31381W        W48228   0.089  15.328   4.209 -0.3101 -0.1643  0.0322
31382W        W48229  17.617   4.567  13.169  0.1342 -0.2901 -0.1229
31383W        W48230   2.863   6.315  10.863 -0.0199  0.0334  0.5560
31384W        W48231  14.687   4.440   5.214 -0.1889  0.1996 -0.0322
31385W        W48232   1.087   8.481   4.446  0.1405 -0.3479  0.2467
31386W        W48233  17.770   4.694   3.710  0.0862  0.2171 -0.0749
31387W        W48234  11.949   4.362  13.561 -0.1909  0.0001  0.1560
31388W        W48235   4.712  18.369   2.719 -0.3176  0.0722  0.3005
31389W        W48236  14.843  16.900  12.339 -0.3169 -0.2267  0.2490
31390W        W48237   5.947   8.215  15.831 -0.0628  0.0609  0.2754
31391W        W48238   1.077   9.064  14.636  0.2027  0.2089 -0.0148
31392W        W48239   6.255  11.860  14.130 -0.2755  0.1914  0.1376
31393W        W48240  16.065   5.904   4.088  0.1334  0.0474 -0.0614
31394W        W48241  14.172   7.606   1.348 -0.3860  0.2660  0.3188
31395W        W48242   2.770   9.618   1.084  0.0837  0.1907 -0.0343
31396W        W48243  12.255   5.802   9.925  0.1592 -0.2779  0.2206
31397W        W48244  10.930   2.878  11.104 -0.1850  0.0187 -0.3176
31398W        W48245  14.100  16.399  11.951 -0.1306 -0.1807 -0.0077
31399W        W48246  15.917   0.947  12.266 -0.1081 -0.0066 -0.2015
31400W        W48247   5.220  18.306   4.777 -0.1235 -0.3893 -0.2913
31401W        W48248  14.833  10.946   1.548  0.1655 -0.1043 -0.2229
31402W        W48249  15.818   5.297   5.429  0.1156  0.0266  0.0891
31403W        W48250  16.992   1.107   2.770 -0.0949 -0.1502 -0.0053
31404W        W48251  10.106   5.515  11.858  0.0384 -0.6685 -0.0590
31405W        W48252   2.947   6.327  15.885  0.0282  0.4292  0.2100
31406W        W48253   2.810  15.462   1.832 -0.2006  0.4830  0.2105
31407W        W48254  10.430   7.596  13.015  0.0795 -0.3159  0.3440
31408W        W48255   2.449   5.613   1.693  0.2991 -0.0191 -0.0395
31409W        W48256   5.859  17.392   0.628 -0.0676  0.1893 -0.1119
31410W        W48257   9.143   1.145  10.991 -0.2376  0.2990  0.0871
31411W        W48258  14.813  18.274   1.347 -0.1888  0.0056  0.2126
31412W        W48259  16.647   9.681   5.899 -0.0172 -0.1352  0.0111
31413W        W48260  11.792   6.540   0.027  0.1169  0.2104 -0.0960
31414W        W48261  13.263  13.221  14.760  0.1998 -0.1068  0.0503
31415W        W48262   7.735  11.562  12.699 -0.0661  0.0065 -0.0958
31416W        W48263   7.582  12.274  11.547  0.1810  0.2160  0.2228
31417W        W48264  10.905   5.772  11.301  0.0925  0.3373  0.1470
31418W        W48265   6.267   0.574   0.309 -0.0043  0.0066 -0.3433
31419W        W48266   4.117   3.422   2.236  0.1189  0.0232  0.1439
31420W        W48267  17.488   0.690  15.548  0.2240  0.1580  0.2162
31421W        W48268   2.850   6.093   3.045 -0.2356 -0.1297  0.2359
31422W        W48269  15.931   0.951   1.855  0.4173 -0.0541  0.0761
31423W        W48270   0.600  17.425   0.936  0.0321  0.0597  0.0234
31424W        W48271   7.558  18.425  15.836 -0.0742 -0.0190  0.1662
31425W        W48272   4.183   6.445  12.201 -0.1299  0.3007  0.0804
31426W        W48273   7.072   6.964   2.594 -0.0071 -0.1405  0.2703
31427W        W48274  14.025  10.913  15.302 -0.0002  0.0034 -0.1700
31428W        W48275   9.934   8.636   5.331 -0.1991 -0.3936 -0.1998
31429W        W48276   9.851   0.365  13.112  0.4593  0.0827  0.2574
31430W        W48277   3.530  17.254   5.550  0.0861  0.0102  0.0343
31431W        W48278   1.455  15.428  14.281 -0.1095  0.0421 -0.1252
31432W        W48279   6.230   0.825   3.110  0.0179 -0.0189 -0.0047
31433W        W48280  17.920   5.516   4.272  0.2288  0.0226  0.1178
31434W        W48281  11.239  16.480  12.710  0.1929 -0.0579 -0.0653
31435W        W48282   5.442   9.855   1.010  0.1693 -0.0484  0.2480
31436W        W48283  11.209  18.519  14.014  0.2706  0.3094 -0.1787
31437W        W48284   5.932   7.440  10.648  0.1053  0.0060  0.1453
31438W        W48285   5.678   3.624   3.352 -0.0231 -0.2199  0.1728
31439W        W48286   7.071  16.040   3.917 -0.0878  0.1639 -0.2607
31440W        W48287   7.950  15.745   4.791  0.2827  0.2669  0.1224
31441W        W48288   6.149   8.021   4.563  0.0222  0.0866 -0.0935
31442W        W48289  15.114   9.468  14.377 -0.3028 -0.0750  0.1324
31443W        W48290  14.690  10.712  11.391 -0.1032  0.0581  0.0235
31444W        W48291   8.599  17.511  15.069 -0.0060  0.0819  0.0265
31445W        W48292  15.516  13.663   1.847  0.1471 -0.0099 -0.2380
31446W        W48293   6.020   2.847   0.461 -0.5586  0.2523  0.1282
31447W        W48294  18.133   9.399   1.981  0.2901  0.0223 -0.0347
31448W        W48295   4.376   2.699   0.959 -0.0194  0.2336 -0.3122
31449W        W48296   5.614   0.897  13.568 -0.1490 -0.2980  0.0160
31450W        W48297   9.564   8.378  10.586  0.0768  0.1284  0.2809
31451W        W48298   6.210  18.416   0.412  0.2645  0.1152  0.0321
31452W        W48299   2.130  11.298  11.357 -0.2325 -0.1903 -0.0957
31453W        W48300   4.783  10.771  13.984 -0.1107 -0.1234  0.0031
31454W        W48301   5.312  13.732  14.274  0.1691 -0.0169 -0.0210
31455W        W48302  12.184   0.198  11.588  0.0417 -0.0018 -0.1570
31456W        W48303  10.014   2.046  14.513  0.2310  0.2544  0.1263
31457W        W48304  11.031   4.288   1.802 -0.1911 -0.0837 -0.0221
31458W        W48305   0.148  13.586  13.483 -0.0585 -0.2211  0.1256
31459W        W48306  16.069   5.569   4.487 -0.0582 -0.0278 -0.2056
31460W        W48307  17.007  10.787   0.289  0.1921 -0.1263  0.3764
31461W        W48308   2.631   3.858  12.049 -0.3450  0.1869 -0.1610
31462W        W48309   0.902   8.530   1.344 -0.2786 -0.2306  0.1548
31463W        W48310  10.347  17.289  11.478 -0.0229  0.0018 -0.0666
31464W        W48311  14.170  10.959   4.291 -0.1680 -0.0435 -0.1051
31465W        W48312   7.401  13.849   1.186 -0.0229 -0.2715 -0.1181
31466W        W48313  15.757   8.442  12.325 -0.0246  0.0934  0.0723
31467W        W48314  11.293  12.529  12.555 -0.0044  0.0047  0.1545
31468W        W48315   1.199  16.049   4.415 -0.1730 -0.0672  0.2627
31469W        W48316  14.262   2.914   0.852  0.4354 -0.0639  0.1125
31470W        W48317  18.210  10.450  11.641  0.0287 -0.0493  0.1843
31471W        W48318   0.458  18.328  15.242 -0.0339 -0.3443  0.0203
31472W        W48319   9.465   7.128  14.580  0.0388  0.0043 -0.0550
31473W        W48320   2.372   8.638   5.882  0.0052 -0.2270  0.1265
31474W        W48321   4.851  15.035  11.303  0.0791 -0.3719 -0.6569
31475W        W48322   8.399   0.785  12.040  0.1317 -0.1663 -0.0458
31476W        W48323  10.558  13.504   1.225  0.1108  0.3066  0.0628
31477W        W48324  13.129   3.579   3.787  0.1227  0.0531 -0.1319
31478W        W48325   7.392   5.934   2.525  0.1346 -0.0636  0.3992
31479W        W48326   0.739  16.335  13.519  0.0931  0.0948 -0.0468
31480W        W48327  10.804  15.107   5.434 -0.3273 -0.2783 -0.1042
31481W        W48328  13.010  17.980   0.218 -0.1519  0.0354  0.0568
31482W        W48329   2.000  11.739  13.993  0.0780  0.0565  0.0952
31483W        W48330   0.139  18.281   0.164 -0.0489 -0.3344 -0.2346
31484W        W48331   2.653  12.664   2.828  0.1874 -0.0219 -0.3052
31485W        W48332  18.075  14.090   2.261 -0.1715 -0.3222 -0.3692
31486W        W48333  11.074  16.517  11.338 -0.0813  0.2610  0.0168
31487W        W48334   0.170   4.864  15.169 -0.2031 -0.1651 -0.1158
31488W        W48335  15.503   5.038   1.840 -0.3441  0.1589 -0.0242
31489W        W48336   5.647  17.670   2.304  0.0505  0.0658  0.2759
31490W        W48337  11.787  14.673   0.461 -0.0573  0.1542 -0.2489
31491W        W48338   6.436   7.207   0.865  0.4317  0.0163 -0.1341
31492W        W48339   8.536   3.604   3.469 -0.0325 -0.2511  0.2168
31493W        W48340   6.641  13.240  14.049 -0.1984 -0.1418  0.0532
31494W        W48341   9.052  12.306  11.894  0.0094  0.0334  0.0581
31495W        W48342   6.430   2.973   3.171  0.1825 -0.0273 -0.3989
31496W        W48343   6.298  13.263  13.625  0.0266  0.0591  0.0806
31497W        W48344   2.338   6.604  13.177  0.1040 -0.1389  0.0221
31498W        W48345   1.935   6.994   6.282 -0.0734 -0.0596  0.1780
31499W        W48346   7.031  13.802   2.639  0.2599  0.0283 -0.1472
31500W        W48347  10.257   3.666   4.372  0.2204 -0.2385 -0.1156
31501W        W48348   8.570   1.684  15.786 -0.0320  0.0697 -0.3438
31502W        W48349  18.025  16.824   0.881  0.0777 -0.1750  0.0313
31503W        W48350  14.016  12.996   0.108 -0.3884 -0.2255 -0.0314
31504W        W48351   1.548   0.557   1.388  0.1989 -0.0126 -0.0590
31505W        W48352   3.939  16.567   3.898 -0.4370  0.0910  0.2193
31506W        W48353  13.478   4.471  12.449 -0.1312 -0.2915 -0.3556
31507W        W48354   8.380   9.517   2.306 -0.1482 -0.0233  0.0787
31508W        W48355   6.932  11.498   5.169 -0.0158  0.1028 -0.1343
31509W        W48356   5.584   3.476  11.456  0.1620  0.1041 -0.2617
31510W        W48357  12.865   9.006   2.929 -0.0898 -0.0272 -0.0291
31511W        W48358  12.715   6.821  10.893  0.2170 -0.0026  0.3686
31512W        W48359  17.518  13.741  11.714 -0.1647 -0.3058 -0.3029
31513W        W48360  16.378   4.828  11.721 -0.1369  0.0019  0.4138
31514W        W48361   2.821  18.181   0.450 -0.3673  0.3121  0.2349
31515W        W48362  16.421   5.965   4.471  0.1351 -0.0354 -0.0960
31516W        W48363  10.928   5.245  15.464  0.2175  0.1650  0.1593
31517W        W48364   0.413  13.232  13.255 -0.2256 -0.0740  0.0586
31518W        W48365  11.331  15.804  14.200  0.0440 -0.0400  0.2510
31519W        W48366   9.565  16.478  14.644  0.2617  0.2205  0.0076
31520W        W48367   6.382   4.124   2.476 -0.2251  0.0753 -0.0254
31521W        W48368  18.406   0.496   2.915 -0.3350 -0.1074  0.1781
31522W        W48369   1.675   8.264  13.624  0.0494 -0.0025 -0.2338
31523W        W48370   8.116  15.821   0.229 -0.0749  0.4051 -0.2090
31524W        W48371   8.035   2.063  12.696  0.4176 -0.1311  0.0527
31525W        W48372   3.173   3.584  13.419  0.1583 -0.0006  0.0982
31526W        W48373  14.726  14.484   5.040  0.0311 -0.1796 -0.2051
31527W        W48374   0.877   5.416   0.622  0.3024  0.0406  0.0371
31528W        W48375  15.994  10.861   3.835  0.1644  0.0742  0.1037
31529W        W48376   6.249  14.630  15.353 -0.2859  0.0460 -0.0892
31530W        W48377   7.466   3.584  11.239 -0.1839  0.0701 -0.1003
31531W        W48378   2.040  12.116   2.974 -0.1204  0.1784  0.0458
31532W        W48379   7.135  12.233  10.313 -0.1369 -0.2778 -0.3574
31533W        W48380   5.248   7.084   0.124 -0.1690  0.0584 -0.0567
31534W        W48381  18.441  17.184   4.000  0.0894 -0.0843  0.1574
31535W        W48382  15.821   5.096  11.822  0.0793 -0.0829  0.0749
31536W        W48383   2.837   9.013   4.301 -0.1479 -0.2288 -0.0025
31537W        W48384   5.073   8.464  14.510  0.1638 -0.0466  0.1102
31538W        W48385  12.329   1.446   3.587  0.0327 -0.2449  0.1057
31539W        W48386   0.042   6.417  13.880 -0.1197 -0.0341 -0.0311
31540W        W48387   8.428  11.349   3.694  0.0311 -0.0331 -0.1299
31541W        W48388   7.272   7.863   4.610 -0.1868  0.1283  0.0681
31542W        W48389   8.540  14.313  11.491 -0.1151 -0.0191  0.2397
31543W        W48390  10.811  10.380   3.083  0.0088 -0.2995  0.1247
31544W        W48391   0.632   4.654   2.097  0.0949 -0.0543  0.1159
31545W        W48392   1.513   6.293   4.321 -0.1502 -0.2651 -0.0540
31546W        W48393   1.235   8.275  14.848 -0.0907 -0.1586  0.2205
31547W        W48394  15.178  14.257   1.620 -0.0397  0.0325  0.0726
31548W        W48395  10.195  15.098  15.879  0.1867 -0.1531  0.1375
31549W        W48396   2.683  17.013  10.998 -0.1780 -0.0656  0.1318
31550W        W48397   5.838  15.717   5.654 -0.0350 -0.2102 -0.2802
31551W        W48398   3.412   3.276  15.160  0.3135  0.5378 -0.4140
31552W        W48399  15.498   2.530  14.224  0.1120  0.0002 -0.1105
31553W        W48400   2.460   8.844   0.285  0.1600  0.0085  0.1226
31554W        W48401   2.618  13.887   1.781 -0.2613 -0.0620  0.0222
31555W        W48402  14.802   0.982   5.458  0.2965 -0.0081 -0.0772
31556W        W48403   8.329  17.614  13.915 -0.1743  0.1621 -0.2280
31557W        W48404   5.655   0.773   5.524  0.0047  0.0653 -0.0225
31558W        W48405   3.815   0.936   4.544  0.4185 -0.1677  0.3194
31559W        W48406  13.292  15.305   2.990  0.0632  0.0128  0.2387
31560W        W48407   0.124   4.970   2.210 -0.1992 -0.1110 -0.0664
31561W        W48408   5.825  16.066  11.053 -0.0790  0.0389  0.0211
31562W        W48409   9.037  17.879   1.617 -0.1583 -0.2230 -0.0434
31563W        W48410   5.180   7.671  15.332 -0.1059 -0.1064 -0.3622
31564W        W48411   6.431  13.820   3.277 -0.2254 -0.2684  0.0399
31565W        W48412  16.337  15.666  14.564  0.1108 -0.0811  0.3135
31566W        W48413  13.667   3.647  15.337 -0.3170 -0.0330 -0.1420
31567W        W48414  17.276   9.950  15.901  0.2736  0.0178 -0.2162
31568W        W48415   2.764  17.137  14.567 -0.0658  0.2075  0.0603
31569W        W48416   8.946  17.176   4.807 -0.2145 -0.2515 -0.0687
31570W        W48417  11.137   7.179   9.641 -0.2066 -0.2981 -0.3151
31571W        W48418  14.333  17.253  13.585 -0.2354 -0.1882  0.1819
31572W        W48419   8.718  12.536   5.954  0.0958  0.0158 -0.0064
31573W        W48420  11.421   5.495  11.338  0.0375 -0.4554  0.1088
31574W        W48421  17.201   7.634   4.575 -0.0234  0.0402  0.3648
31575W        W48422  10.220   5.004  13.486  0.0285 -0.1804 -0.0169
31576W        W48423  11.178  16.854  11.833  0.0415 -0.0957 -0.1342
31577W        W48424   1.673   7.595  13.257  0.1889 -0.0469  0.1601
31578W        W48425  14.130  10.046   2.859  0.0061 -0.0607 -0.2640
31579W        W48426  12.772   4.449   2.082  0.1875  0.1013 -0.2447
31580W        W48427   7.531  10.054  12.248  0.0741 -0.0268 -0.2321
31581W        W48428   1.909   8.043   2.230 -0.2467 -0.1949  0.1472
31582W        W48429   7.336  12.627  14.910 -0.3598 -0.1824 -0.3523
31583W        W48430  10.094   7.600   4.585  0.2575  0.0972  0.0266
31584W        W48431  15.434   2.788  12.456 -0.0138 -0.0796 -0.1267
31585W        W48432  12.229   0.736   5.669  0.0161 -0.2591  0.1182
31586W        W48433  15.583   2.489   1.935 -0.0627 -0.4493  0.1431
31587W        W48434  16.436  17.596  14.198 -0.0719  0.0269 -0.1074
31588W        W48435  10.524  15.999  13.465  0.3666 -0.0865  0.1642
31589W        W48436   8.577  17.046  12.544 -0.1002  0.0008 -0.0124
31590W        W48437   3.257   8.140  12.813  0.0543 -0.3831  0.2510
31591W        W48438   0.136  17.796  14.820 -0.3405 -0.1242 -0.1770
31592W        W48439   5.897  15.536   3.339 -0.2446  0.1415 -0.2432
31593W        W48440  13.573   1.185   2.345 -0.0486  0.3568  0.0344
31594W        W48441  15.129  17.989  11.314  0.0038 -0.1712 -0.2453
31595W        W48442   4.587  12.042   1.647  0.1780  0.0240 -0.2433
31596W        W48443   8.089  13.723   0.138  0.1082 -0.7058 -0.0251
31597W        W48444  16.343   1.482   2.506  0.4340  0.0757  0.0486
31598W        W48445   0.776   7.426  14.928 -0.1845 -0.2540 -0.5694
31599W        W48446   7.478   0.612  15.326 -0.1615 -0.0909  0.3850
31600W        W48447  12.071   8.713  15.794 -0.2639 -0.1573  0.3386
31601W        W48448   0.689  13.195   1.527 -0.1394  0.1280  0.0001
31602W        W48449  14.958  11.246   0.938  0.1686 -0.0620  0.1347
31603W        W48450   5.464   8.744  11.831 -0.1967  0.2662 -0.0767
31604W        W48451   0.588   2.656  15.252  0.2546  0.0140 -0.1165
31605W        W48452   7.777   7.194   1.758 -0.0752 -0.0304 -0.1003
31606W        W48453   0.045  10.706   0.786 -0.0208  0.2833 -0.1489
31607W        W48454  16.335   2.748   0.920 -0.0005 -0.0671  0.0984
31608W        W48455  11.222   0.545  11.421 -0.1416  0.1838 -0.0603
31609W        W48456  14.779  14.827  12.716  0.0446 -0.1688  0.2400
31610W        W48457  18.210  10.550  13.325  0.0320  0.0346  0.1364
31611W        W48458   9.095   4.775   9.217  0.4827 -0.2353 -0.0695
31612W        W48459  14.003  17.119  15.589  0.2559  0.0199 -0.0051
31613W        W48460   8.989  15.946   4.037  0.0288  0.1875 -0.2760
31614W        W48461   2.069  14.290   4.050 -0.1748  0.3783  0.0917
31615W        W48462   4.416  17.321   9.696  0.5702  0.2865  0.1343
31616W        W48463  17.346   5.423  11.609  0.0636 -0.1261  0.2784
31617W        W48464   6.932   3.576  14.494  0.0496  0.0268  0.1525
31618W        W48465  17.389   6.606   1.910 -0.3230 -0.1734  0.3266
31619W        W48466  10.248  10.363   1.023  0.1538 -0.1500  0.2033
31620W        W48467  11.762  14.179   4.403  0.0602 -0.1952  0.1944
31621W        W48468   5.673  16.194  15.143 -0.0476  0.2292 -0.0645
31622W        W48469   3.970   4.778   0.645 -0.1435  0.1588  0.1555
31623W        W48470   3.632   2.867  12.994 -0.0233 -0.1978  0.0574
31624W        W48471   4.066  11.227   2.064 -0.1242 -0.1284  0.0921
31625W        W48472   0.667  11.406   0.970  0.0717 -0.0757 -0.1849
31626W        W48473   7.168   4.120   2.419  0.0202 -0.1682  0.0139
31627W        W48474  18.264   5.602   3.269 -0.1299 -0.2976  0.1412
31628W        W48475   0.144  10.279  13.446 -0.0274  0.2476  0.1602
31629W        W48476  14.000   4.194  15.731 -0.0358 -0.3839 -0.1581
31630W        W48477  11.691   7.230  15.348 -0.2223  0.3404 -0.0272
31631W        W48478   4.394   8.172   2.636  0.0186 -0.1075  0.1507
31632W        W48479  16.174   8.833   0.257  0.1678  0.2691 -0.0205
31633W        W48480  13.367   1.046  14.807  0.0333 -0.0379 -0.1716
31634W        W48481  18.018  10.287  13.807  0.0209  0.0905 -0.2426
31635W        W48482   2.523   6.893   5.343  0.0193  0.1080 -0.2204
31636W        W48483   6.767   9.290  13.055  0.0274 -0.3686  0.1117
31637W        W48484   2.817   0.549  13.677 -0.0982  0.1552 -0.1929
31638W        W48485  15.688  16.022  14.699 -0.3317 -0.1182 -0.0638
31639W        W48486  13.802  10.093  15.447 -0.2749  0.0311 -0.2305
31640W        W48487   0.725  17.302  15.293 -0.2456 -0.0574  0.0562
31641W        W48488   4.750   8.129   5.303 -0.0706 -0.1122 -0.2172
31642W        W48489  10.583  18.051   0.002  0.2521 -0.1944  0.2519
31643W        W48490   8.353   7.459   5.209 -0.5093 -0.2041  0.0653
31644W        W48491  13.207  10.424   0.411  0.0969  0.1723 -0.0347
31645W        W48492   2.531   8.170  13.409  0.2334 -0.0632  0.0632
31646W        W48493  15.565   8.739  12.644 -0.0767 -0.0232 -0.1096
31647W        W48494   9.217  17.918  14.034  0.1472  0.1454  0.1632
31648W        W48495   7.899   2.884   2.832 -0.1643  0.0307 -0.1483
31649W        W48496  13.185   6.499  15.031 -0.2232  0.1199 -0.3022
31650W        W48497   6.335  15.172  12.081  0.2023  0.1401  0.3429
31651W        W48498  15.519   4.878  14.296  0.4163  0.0912 -0.1387
31652W        W48499  18.393   7.365   3.045  0.1058 -0.2763  0.2023
31653W        W48500  15.447  12.105  11.542  0.1856  0.0597  0.0443
31654W        W48501   5.686   7.782  12.965  0.1405  0.3194 -0.2274
31655W        W48502  12.960   9.041  14.957 -0.1527  0.0756 -0.0679
31656W        W48503   5.109  14.053   2.264 -0.1297  0.3512  0.1809
31657W        W48504   7.553   1.997  13.457 -0.0312  0.1702  0.0049
31658W        W48505  15.482   0.948   4.434 -0.2657  0.0623  0.0380
31659W        W48506  14.382  10.738   0.297  0.1357 -0.0808 -0.1151
31660W        W48507   2.924   2.374  15.600  0.3224 -0.0590 -0.0672
31661W        W48508  17.337   5.637  12.086 -0.2132 -0.3011  0.1731
31662W        W48509  16.540  13.864  12.070  0.0408  0.1212  0.0020
31663W        W48510   3.257  17.529  15.551 -0.0572  0.0774  0.2292
31664W        W48511   9.202  17.397   4.030 -0.0795  0.1735 -0.0896
31665W        W48512   7.505  15.910   2.375  0.1600  0.2120 -0.0028
31666W        W48513  16.719   4.937   2.192 -0.0305 -0.1749 -0.0658
31667W        W48514   5.984   1.803  13.752  0.6713 -0.1318  0.1215
31668W        W48515   2.336  10.541  11.379 -0.3125 -0.2215  0.2586
31669W        W48516   4.822  10.941   3.275  0.0821 -0.2390 -0.1857
31670W        W48517  11.885  14.420   2.221 -0.1515 -0.2584  0.0534
31671W        W48518  12.103  10.742  14.824 -0.0982 -0.3151 -0.1374
31672W        W48519   9.795   5.178   3.113  0.0215  0.3458 -0.1785
31673W        W48520   6.366  16.080  10.888 -0.3015  0.0325 -0.2138
31674W        W48521   4.664   0.468   3.846 -0.0437 -0.1171  0.0554
31675W        W48522   7.298  13.170  12.942  0.0514 -0.0615 -0.0482
31676W        W48523   2.907   9.176  13.204 -0.1311  0.0721 -0.3862
31677W        W48524   1.518   1.550  12.765  0.1016 -0.0085 -0.0682
31678W        W48525  10.174   7.236  11.267 -0.1734  0.2900  0.0281
31679W        W48526   6.860  16.094  13.772  0.0950  0.1574  0.1501
31680W        W48527   3.111   7.275  10.923 -0.1605 -0.1745  0.0774
31681W        W48528   8.976  16.568   1.463  0.2204 -0.3260 -0.0708
31682W        W48529  14.322   2.692   1.650  0.2850 -0.0846  0.2493
31683W        W48530  14.705  12.505  11.560 -0.1666  0.0042 -0.2791
31684W        W48531   8.709   7.160  11.788 -0.4080 -0.2317  0.1420
31685W        W48532  10.512  13.891   1.503 -0.3424  0.0590  0.2360
31686W        W48533  15.421   3.772  14.348 -0.1134 -0.1120  0.0354
31687W        W48534  11.716   6.871   9.642 -0.1393  0.0867  0.0281
31688W        W48535  16.594   9.442   5.385 -0.0482 -0.3377  0.0655
31689W        W48536   6.213  13.742   2.360 -0.0681 -0.0373 -0.2849
31690W        W48537  15.837  12.328   5.132  0.1285  0.0056  0.4079
31691W        W48538   5.232   9.097   0.803  0.1178 -0.2225  0.1266
31692W        W48539   0.656  13.955  12.630 -0.3505  0.1138 -0.1528
31693W        W48540  10.701  10.666  13.354  0.0616 -0.2472 -0.3278
31694W        W48541  12.792  16.210  13.667  0.1029 -0.1250 -0.1804
31695W        W48542  15.322  15.102   3.383 -0.1161 -0.3450  0.2760
31696W        W48543   0.587   3.392  14.729 -0.1025  0.0105  0.1144
31697W        W48544  15.612   7.761  13.114 -0.0954 -0.3216  0.1529
31698W        W48545  10.638  15.760  13.006 -0.1501  0.0657 -0.1837
31699W        W48546   9.735  10.410   0.858  0.3562  0.0956 -0.0244
31700W        W48547   5.855  13.281   1.746 -0.1352  0.0286  0.3618
31701W        W48548  11.327   2.863   4.387 -0.0143 -0.1164 -0.1431
31702W        W48549  14.029  10.374   2.077  0.0389 -0.0225  0.1463
31703W        W48550  11.698   3.155  14.087 -0.0294 -0.0162 -0.0720
31704W        W48551   5.018  12.573  12.268 -0.1721 -0.1023 -0.2437
31705W        W48552  13.860   1.868  15.214  0.0142  0.0807 -0.0414
31706W        W48553  18.398  16.804  11.089  0.1222 -0.0765 -0.0497
31707W        W48554   4.839   7.709   1.765 -0.0386 -0.2849 -0.0473
31708W        W48555  11.348  10.754  12.539  0.1291 -0.1222 -0.2361
31709W        W48556   7.194  15.353   2.120 -0.1832  0.1839  0.3623
31710W        W48557  16.305   7.388   0.602  0.1743 -0.2916 -0.1410
31711W        W48558   7.873   2.106  14.543 -0.1545  0.0789  0.1688
31712W        W48559   4.395  12.354   0.898  0.2825 -0.1374  0.1269
31713W        W48560   5.027   2.679  14.566 -0.0383 -0.0040  0.2373
31714W        W48561   0.862  15.228   4.678  0.0631 -0.0214  0.3573
31715W        W48562   9.507   0.738   2.012  0.2173 -0.0072  0.1855
31716W        W48563   2.687  11.371   2.563 -0.0650 -0.1376 -0.1284
31717W        W48564   3.159  14.897  15.045 -0.0811 -0.1427  0.3089
31718W        W48565   4.323   4.088  13.103 -0.2115  0.2288  0.0160
31719W        W48566   1.112   2.168   0.164  0.1172  0.1860 -0.2438
31720W        W48567   8.839  13.313   3.319 -0.2871  0.0128 -0.0383
31721W        W48568  12.125   4.384  12.173  0.0834 -0.1127 -0.3300
31722W        W48569   7.136   4.417  14.779  0.1367 -0.3353  0.0753
31723W        W48570   6.276  16.848   1.495  0.0612  0.1104 -0.2029
31724W        W48571  12.502  12.740  12.399 -0.2336  0.0009  0.1488
31725W        W48572   0.436   8.499   0.253 -0.1437 -0.0240 -0.0420
31726W        W48573   4.120   8.608   2.775  0.4435  0.0349  0.0160
31727W        W48574  14.704  18.223   4.048  0.1378 -0.1411  0.0621
31728W        W48575   0.205   6.076  10.322  0.0376 -0.0632 -0.0526
31729W        W48576   2.556  10.293   5.325 -0.2584 -0.1207 -0.0847
31730W        W48577  16.973  16.684   3.032  0.0931 -0.1725  0.0533
31731W        W48578   6.573   4.995  14.743 -0.0201  0.1707  0.1086
31732W        W48579  15.741  17.168   2.742 -0.0124  0.1545  0.1311
31733W        W48580  10.256  10.087  12.691 -0.2964 -0.0007 -0.0858
31734W        W48581   3.460   0.366   3.405 -0.4007 -0.1645 -0.0829
31735W        W48582   3.158   3.734   0.695 -0.1718  0.2273 -0.2297
31736W        W48583   5.869   6.283  14.936 -0.0152 -0.1204  0.1349
31737W        W48584   6.210  16.327  15.628 -0.1258  0.0815  0.0327
31738W        W48585   4.639  12.410  11.896 -0.2284  0.1544 -0.1981
31739W        W48586  14.976  11.896   4.780 -0.3726 -0.0358 -0.1712
31740W        W48587  15.292  17.578  15.449  0.2351  0.0268  0.2867
31741W        W48588   0.338   5.999  11.347 -0.2616  0.1393 -0.1234
31742W        W48589  14.940   3.804   1.224 -0.0423  0.2133 -0.0448
31743W        W48590  10.377   0.946  11.936  0.1582  0.0603  0.0038
31744W        W48591   8.528   8.602  14.201 -0.0368 -0.2923 -0.0229
31745W        W48592  14.491   0.394  14.570  0.1118  0.1529  0.0426
31746W        W48593  17.944   4.080   1.411 -0.0485  0.1387  0.1981
31747W        W48594   2.979   5.352   0.033 -0.0863  0.3067 -0.2280
31748W        W48595   6.209   8.450   0.614 -0.2504 -0.2764 -0.3412
31749W        W48596   4.518   1.673   4.793  0.0941  0.1229 -0.0398
31750W        W48597   9.554   1.938   0.272 -0.1678  0.1363 -0.1163
31751W        W48598  11.099   3.949  11.867  0.3019 -0.0449  0.0179
31752W        W48599  12.984  14.331   1.694 -0.0266 -0.1763  0.1093
31753W        W48600  12.186  16.313  13.808  0.0149 -0.0749  0.1129
31754W        W48601  16.513  12.297  13.555  0.3257 -0.1177 -0.2452
31755W        W48602  10.763   4.523   4.390 -0.1809 -0.2732  0.1477
31756W        W48603  13.988  10.384   2.557  0.0080 -0.0150  0.1287
31757W        W48604  18.489   5.460  10.053 -0.0453 -0.2691  0.0930
31758W        W48605  13.183  17.500  13.026 -0.0968 -0.1311 -0.2260
31759W        W48606   3.133   2.884   4.218 -0.2855 -0.2415  0.0410
31760W        W48607   6.916  13.245   2.357 -0.1129 -0.1828 -0.1588
31761W        W48608   1.112   7.074   4.472 -0.0678  0.2089  0.0719
31762W        W48609   3.588   7.418  14.462 -0.2173 -0.0463 -0.0697
31763W        W48610   7.186   6.468   3.567 -0.1327  0.0108 -0.0430
31764W        W48611  11.513   5.732   3.511  0.0395  0.1815  0.0250
31765W        W48612   7.063   0.929  11.528 -0.0657 -0.3355  0.0024
31766W        W48613  13.086   8.391   0.761  0.2295  0.0863  0.0424
31767W        W48614  14.901  16.668  14.092 -0.2214 -0.1095 -0.2231
31768W        W48615   8.372   3.537   3.923 -0.2220 -0.3489  0.3380
31769W        W48616   2.997   8.346  11.448  0.2250  0.3471  0.3567
31770W        W48617   3.231   9.600   2.358  0.1079  0.1069  0.2019
31771W        W48618   1.013   5.329   0.130 -0.0692 -0.1731 -0.0419
31772W        W48619  18.024   7.699  14.369  0.0027 -0.2656 -0.1750
31773W        W48620  10.529  16.204  15.121  0.2495  0.2019  0.1227
31774W        W48621  11.818   8.553  12.754  0.1401  0.1089  0.1054
31775W        W48622   7.410   7.569   3.483 -0.3097  0.1128 -0.3214
31776W        W48623   8.306   7.026  11.487  0.1693  0.1049  0.0474
31777W        W48624  17.395   4.153   3.033 -0.2614 -0.0115  0.0934
31778W        W48625   5.543  12.218  13.162  0.0915  0.1675  0.0075
31779W        W48626   7.282  10.015   3.137 -0.6357  0.3057 -0.3557
31780W        W48627   4.652   2.369   5.426 -0.2228  0.1613  0.2283
31781W        W48628  15.070   0.962  13.895  0.2650 -0.0596 -0.4505
31782W        W48629  16.393   9.977   1.339 -0.2123  0.2576 -0.0062
31783W        W48630   7.712   0.043  11.839  0.0574  0.0074  0.1320
31784W        W48631  11.362  16.659   3.990 -0.0378 -0.2669 -0.1190
31785W        W48632   2.904   0.407   1.117  0.2756 -0.2503 -0.1880
31786W        W48633  11.561  17.646   5.056 -0.0907 -0.1358 -0.0415
31787W        W48634  15.028  14.642   5.462 -0.2345 -0.0567  0.1586
31788W        W48635   1.221  17.215   4.750  0.0902 -0.0734 -0.2024
31789W        W48636   2.710  10.750   1.384 -0.3451 -0.1882  0.2903
31790W        W48637  12.470   5.352   3.701  0.3458 -0.0350 -0.0273
31791W        W48638   6.346  11.272  11.640  0.2189 -0.1558  0.0549
31792W        W48639   4.177   6.708   4.970 -0.0276 -0.3491 -0.2812
31793W        W48640  14.989  13.794  14.872  0.0937  0.1452 -0.0953
31794W        W48641  18.024   8.246   4.203 -0.1677 -0.0383 -0.3893
31795W        W48642   5.138  13.258  14.033 -0.0079 -0.2488 -0.2492
31796W        W48643   5.219  15.830  11.708 -0.0617  0.0018 -0.0153
31797W        W48644  17.512   9.573  15.692 -0.1622  0.0987 -0.1662
31798W        W48645  10.261  16.022   4.413 -0.4632 -0.2568  0.1517
31799W        W48646   1.955  11.610   5.257 -0.1638  0.0209  0.0756
31800W        W48647  17.378   0.515  11.812 -0.5125  0.0678 -0.2722
31801W        W48648  15.920   9.015   3.366  0.0469 -0.0567 -0.1424
31802W        W48649  10.322   7.055  13.792  0.1229  0.1849  0.2055
31803W        W48650   8.635  16.350   4.229 -0.0949  0.1364 -0.0047
31804W        W48651   8.728  14.028  13.224  0.2349 -0.3350  0.0561
31805W        W48652   0.818  12.733   1.362  0.1958  0.2335  0.1540
31806W        W48653  15.429   5.856   1.670 -0.1365 -0.2987 -0.0465
31807W        W48654  13.073   4.177   0.596 -0.3434 -0.2137 -0.0218
31808W        W48655   0.267  14.037   6.016 -0.3031 -0.0592 -0.1591
31809W        W48656   9.026   1.172  12.488  0.2247  0.1392  0.0270
31810W        W48657  17.213  12.298   5.311  0.0121  0.1390 -0.1313
31811W        W48658   3.597  15.291  13.775 -0.2202  0.1634 -0.0234
31812W        W48659  10.816   7.011  13.797  0.2268 -0.2289 -0.0006
31813W        W48660   9.049   7.674  13.512 -0.0798 -0.1736  0.0012
31814W        W48661   6.584  12.587   4.532 -0.1170 -0.0497 -0.1274
31815W        W48662  17.965   8.843   0.864  0.2917 -0.0209 -0.1720
31816W        W48663   6.119  14.028  12.774  0.0022  0.2640  0.3348
31817W        W48664  13.709   9.347   3.589  0.0171 -0.0424 -0.2854
31818W        W48665  10.573   4.076  10.902 -0.0309 -0.4913  0.3221
31819W        W48666   8.021   7.773   2.898 -0.0778 -0.4532 -0.1016
31820W        W48667   2.878  17.381  15.820  0.1494 -0.3030 -0.0540
31821W        W48668   2.513  18.117  14.882 -0.0604 -0.2224  0.1037
31822W        W48669  13.781   1.674   2.957 -0.2460 -0.1595  0.3813
31823W        W48670   4.248  17.068   0.369 -0.1452 -0.0847  0.0366
31824W        W48671   0.434   2.756   3.696 -0.2104 -0.0357  0.1411
31825W        W48672  15.437  15.725   4.821 -0.0440 -0.1673  0.2729
31826W        W48673  15.643   4.332  11.359 -0.0404  0.0420 -0.1309
31827W        W48674  11.131   7.871  12.504 -0.1264 -0.0304  0.0815
31828W        W48675   1.781  15.350   2.738  0.1054 -0.1051  0.0050
31829W        W48676   2.876   5.054   3.283 -0.1104 -0.1856 -0.3655
31830W        W48677   9.135   6.297   1.486 -0.0740 -0.0566  0.0922
31831W        W48678   8.232   1.326  15.823  0.0366  0.0939 -0.0673
31832W        W48679  11.757  13.837   3.962 -0.1472 -0.0750  0.2123
31833W        W48680  17.519  15.129   5.584 -0.1328  0.1011  0.1388
31834W        W48681  17.466   0.595  12.583 -0.2246 -0.1022 -0.1636
31835W        W48682  10.871  11.082   2.163  0.1303  0.1412  0.1503
31836W        W48683  18.057   4.550   4.897  0.2279 -0.0087  0.2945
31837W        W48684   9.403  13.733   1.790  0.0174 -0.0132 -0.1123
31838W        W48685  14.363  14.829  12.441  0.0093  0.2501 -0.3428
31839W        W48686   2.252  13.999  11.469  0.0571 -0.0938  0.0517
31840W        W48687  17.101  15.672   5.040 -0.0054 -0.0983  0.2500
31841W        W48688   9.837  12.284  13.181  0.1538 -0.2570  0.0330
31842W        W48689   3.824  11.242  12.225  0.0721  0.3518 -0.2713
31843W        W48690  11.949   3.496  15.073 -0.2120 -0.2918 -0.0006
31844W        W48691   4.798   6.199  13.826  0.1133  0.2846 -0.2671
31845W        W48692  14.063   0.544  14.347 -0.1301 -0.0411  0.0009
31846W        W48693  10.797   0.239   0.142  0.0369  0.0283  0.2853
31847W        W48694   8.959   0.965   3.215  0.0053  0.0522 -0.4642
31848W        W48695  16.645   8.897   1.529  0.2528 -0.0756 -0.2247
31849W        W48696  17.543  15.428  15.201  0.0240 -0.0126 -0.3406
31850W        W48697  13.437   3.695  11.039  0.2419  0.0526  0.0675
31851W        W48698   4.163   9.600  13.081 -0.4045 -0.2024  0.3206
31852W        W48699  12.400  16.573   1.914 -0.4262  0.1543 -0.1680
31853W        W48700   0.803   3.077   2.673 -0.1305 -0.2690  0.2192
31854W        W48701   5.507   4.841   5.216  0.0271 -0.3841 -0.0513
31855W        W48702   7.907   7.692   3.971  0.2237  0.1708  0.0014
31856W        W48703   9.754  16.700  11.802 -0.2402 -0.0015  0.2421
31857W        W48704   0.555  17.980  10.997  0.1756  0.0485  0.1790
31858W        W48705   7.644  11.553   3.863  0.0495 -0.1697  0.1140
31859W        W48706   7.606   5.169   2.399 -0.0077  0.0502  0.2046
31860W        W48707   2.183  10.054  12.472 -0.1327 -0.3948  0.0706
31861W        W48708  11.659   4.391   3.465  0.0510  0.0963 -0.2980
31862W        W48709  16.730  10.754   3.240 -0.0876 -0.0627  0.0261
31863W        W48710   7.961  14.409  12.583 -0.0420 -0.1764 -0.0123
31864W        W48711   7.623   2.241   1.136 -0.0014 -0.0197  0.1458
31865W        W48712  13.812   3.142   0.928  0.0749 -0.0384  0.1844
31866W        W48713   7.021   2.599  15.517 -0.1497  0.0879  0.0184
31867W        W48714  18.189   4.259   2.924  0.5262 -0.1351  0.0047
31868W        W48715   6.015  14.339   0.753  0.1522 -0.1065  0.3290
31869W        W48716   7.165   2.607  12.060 -0.1262 -0.0315 -0.0561
31870W        W48717  15.993  16.202   0.494 -0.1171  0.0620 -0.0780
31871W        W48718   4.198  11.917   1.911  0.0618  0.1230 -0.1595
31872W        W48719  15.337   7.669  12.715 -0.1736 -0.2112 -0.4738
31873W        W48720   1.630  14.304  12.723 -0.0964  0.1486 -0.0103
31874W        W48721   8.131   0.140  15.195 -0.1149  0.0134 -0.1782
31875W        W48722   1.113  13.556  11.719  0.0805 -0.1032  0.0470
31876W        W48723   4.418  10.582  14.232  0.1426 -0.2491 -0.2324
31877W        W48724  13.347   3.374  15.942  0.0826 -0.0276 -0.1465
31878W        W48725  10.217  15.549   4.149 -0.1320  0.0899 -0.0310
31879W        W48726  12.804   7.605  13.596  0.3969 -0.1911 -0.0978
31880W        W48727   0.518  10.454   4.963 -0.0199  0.1902 -0.2092
31881W        W48728   8.772  16.066  12.567 -0.0777  0.0315 -0.1446
31882W        W48729   5.044  14.915   3.298  0.0273  0.0495  0.0547
31883W        W48730   5.751   3.935  13.357 -0.0128  0.2738  0.0996
31884W        W48731   9.229   2.206   3.045 -0.0493 -0.2242  0.0356
31885W        W48732   2.038   3.018   4.904  0.0568 -0.0295  0.0547
31886W        W48733  11.071   5.546   9.627  0.1276  0.3010 -0.1361
31887W        W48734  17.360  13.225  11.848  0.0261  0.2430 -0.2047
31888W        W48735  16.462   5.016  13.553  0.0616  0.0436 -0.4093
31889W        W48736  10.153  15.812   1.995 -0.3568 -0.3414  0.0575
31890W        W48737   8.328  17.981  13.001  0.0193  0.0187  0.3316
31891W        W48738  13.607  12.532   4.930  0.1779  0.0075 -0.1113
31892W        W48739   0.217   6.117   4.242 -0.3697 -0.0899  0.1002
31893W        W48740   9.284  12.358  15.433  0.1596 -0.3810  0.3282
31894W        W48741   3.705   2.097  14.013  0.4262  0.0505  0.1066
31895W        W48742  18.517  10.818   3.281 -0.0159 -0.1620  0.2609
31896W        W48743  18.092   9.111  10.848  0.2356  0.0350 -0.0138
31897W        W48744  15.583   8.739  14.135 -0.3201 -0.2132 -0.1084
31898W        W48745   8.264  16.869  13.459  0.0750  0.1617 -0.2201
31899W        W48746   5.411  15.497   4.169  0.1886  0.0371  0.1195
31900W        W48747  10.526  16.926  12.975  0.0943  0.1353 -0.0184
31901W        W48748   6.487   4.338   0.157 -0.1922 -0.2705  0.1318
31902W        W48749  18.274   3.762   0.729  0.0972  0.0037  0.0219
31903W        W48750   3.127  10.581   0.116 -0.1109  0.0431  0.1281
31904W        W48751   1.267  17.204   2.709 -0.0376  0.0807 -0.2146
31905W        W48752   3.840   6.196  12.637  0.2067 -0.3345  0.2317
31906W        W48753   6.867   3.355  11.443  0.1526  0.2239  0.0065
31907W        W48754  12.132   4.714   4.258 -0.0667 -0.1617 -0.4717
31908W        W48755   0.263   5.558   1.322  0.3074 -0.0520  0.1919
31909W        W48756   0.043   2.166   2.571  0.1170 -0.0675 -0.0792
31910W        W48757   3.849  18.061   2.432 -0.0567  0.1691 -0.1102
31911W        W48758   2.846   8.340  15.154 -0.2450 -0.1169 -0.0089
31912W        W48759   0.884   8.779   1.820  0.0728 -0.3765 -0.0383
31913W        W48760  10.246   3.206   1.335  0.1669 -0.2255 -0.0976
31914W        W48761   3.725   8.320   1.024  0.0280 -0.2270 -0.0278
31915W        W48762  11.187   0.441  13.848  0.4210  0.4561  0.0962
31916W        W48763  12.751  17.542  15.619  0.0155 -0.2502 -0.1326
31917W        W48764   1.232  17.096  14.988  0.0518 -0.1058 -0.0176
31918W        W48765   4.108  13.226  15.109  0.0717 -0.0771 -0.2652
31919W        W48766  10.505  17.612  15.692  0.0293 -0.0166  0.0544
31920W        W48767   3.416   7.269   2.567 -0.2241  0.1913 -0.0119
31921W        W48768   5.479   1.226   4.310  0.1752  0.1028  0.0447
31922W        W48769   7.001   4.022   1.355  0.0365  0.1753 -0.0401
31923W        W48770  13.643  17.620  11.401 -0.2725 -0.2718  0.0338
31924W        W48771   2.475  14.791  13.727  0.5176  0.1103 -0.1193
31925W        W48772  11.266  12.479  11.598 -0.1901  0.0631 -0.0885
31926W        W48773   4.042  15.477  12.073 -0.2032 -0.0336  0.1473
31927W        W48774  16.885   1.900   2.863  0.0675 -0.1567 -0.0350
31928W        W48775   5.939  16.043  14.684  0.1299 -0.0259 -0.0087
31929W        W48776  14.991   6.950  15.033 -0.1532 -0.2592 -0.0611
31930W        W48777   7.992   9.121  12.315  0.0900 -0.2065  0.0742
31931W        W48778   1.930   0.938   4.683  0.0102 -0.2876  0.0707
31932W        W48779   2.474  14.851   1.937 -0.1087  0.4688 -0.0875
31933W        W48780  11.732   6.957   2.631 -0.0767 -0.1266  0.1759
31934W        W48781  12.500  16.282  14.910 -0.0572  0.1739  0.0730
31935W        W48782   5.091   5.582   1.667 -0.0327 -0.0078  0.1258
31936W        W48783  14.967   2.756  12.031  0.1957  0.0195 -0.1602
31937W        W48784   2.736   2.230  12.247  0.0727  0.1866 -0.1436
31938W        W48785   2.748   0.519   0.650  0.3577  0.2700 -0.1720
31939W        W48786   5.975   0.559  13.711 -0.2617  0.0006  0.1083
31940W        W48787  14.322  16.244   3.380  0.2996 -0.1064  0.1027
31941W        W48788   8.203  13.304  13.640 -0.3808  0.0910  0.2770
31942W        W48789   5.603   4.814   2.907  0.0270 -0.2038 -0.1358
31943W        W48790   2.970   4.999   2.316  0.5755  0.0055 -0.1115
31944W        W48791  12.877   0.056   0.933 -0.0631  0.0854 -0.0835
31945W        W48792  14.938  15.390  12.565 -0.1044 -0.3369 -0.1363
31946W        W48793   3.850  13.232   1.546  0.1188  0.0198 -0.0734
31947W        W48794   0.348  15.618  11.314  0.0677 -0.2175 -0.1267
31948W        W48795   0.104  17.732   2.627  0.3955  0.2076  0.2329
31949W        W48796   7.299  12.214   2.323 -0.5015  0.0954 -0.2305
31950W        W48797   2.379  18.050   0.309  0.1272  0.0542 -0.2281
31951W        W48798  15.361   6.641  12.939 -0.0711  0.1469 -0.2030
31952W        W48799  15.911  13.528   3.508  0.1373  0.0287 -0.1242
31953W        W48800  12.558   2.305   1.495  0.1234  0.0270  0.1998
31954W        W48801  16.008   4.648   2.582 -0.0237 -0.2305  0.0404
31955W        W48802   2.444  14.293  11.817 -0.3297 -0.0902  0.0795
31956W        W48803  15.417   3.938   1.330  0.1269  0.0236  0.0460
31957W        W48804   3.746  13.052   0.442  0.4171  0.3480 -0.0159
31958W        W48805   4.972   0.071   3.906  0.0036  0.2082  0.1994
31959W        W48806  11.568  13.240  11.337  0.1093 -0.1214  0.0777
31960W        W48807  18.344  13.752   1.805  0.0503 -0.0677  0.0219
31961W        W48808  13.080  11.217  12.234  0.3446  0.0917 -0.4345
31962W        W48809  11.827  13.319   5.795  0.1706 -0.0562 -0.1387
31963W        W48810  10.963   7.685   1.381  0.1045 -0.5579  0.1915
31964W        W48811   8.784  15.991  14.015  0.2858 -0.3448 -0.2509
31965W        W48812   4.093  14.655  14.302 -0.0312 -0.2013 -0.0685
31966W        W48813   5.042   2.928  11.527  0.0025  0.2219 -0.2426
31967W        W48814   6.161   3.659   2.409 -0.2453 -0.0836  0.0906
31968W        W48815  10.100   9.736  12.356 -0.0353  0.4854 -0.2092
31969W        W48816  12.009  12.293  14.766  0.1792  0.1025 -0.0432
31970W        W48817   7.910  14.369  14.436  0.2191  0.1699 -0.0910
31971W        W48818  14.498  11.652   3.303 -0.1002 -0.0453 -0.1324
31972W        W48819   3.245   0.784   1.253 -0.1797  0.3062  0.0139
31973W        W48820  17.600  14.192   2.659  0.0975  0.0888 -0.3462
31974W        W48821  18.385   5.557   1.587  0.1498  0.0891 -0.0171
31975W        W48822   5.046  11.111  12.196 -0.0920  0.1873 -0.1840
31976W        W48823  11.041  10.148   0.523 -0.2044 -0.2285 -0.0528
31977W        W48824   2.567   1.374   5.219 -0.0988  0.1642 -0.2291
31978W        W48825   3.815   9.568   1.722  0.1560 -0.0616 -0.1577
31979W        W48826   9.946  17.437  14.494 -0.0811 -0.1446 -0.2450
31980W        W48827  10.404   7.481  13.522 -0.0417 -0.0733 -0.1190
31981W        W48828   4.851  17.011   1.615  0.0206 -0.1648 -0.1804
31982W        W48829   3.916   6.807  11.226  0.2105  0.0695 -0.2006
31983W        W48830   6.180   7.497  14.416  0.0410 -0.1266  0.1572
31984W        W48831  17.967  12.692   1.052 -0.0755 -0.0851 -0.0016
31985W        W48832   4.599  17.401   1.855  0.0309 -0.0652 -0.0992
31986W        W48833   5.959  10.875   4.923  0.0274  0.1306  0.0012
31987W        W48834  12.710   9.615  10.680 -0.1575 -0.1398 -0.2086
31988W        W48835  17.998  13.438   5.108  0.1212  0.0175  0.4357
31989W        W48836  12.014  17.138  13.389 -0.2212  0.0342  0.1122
31990W        W48837   2.251  13.803  11.898  0.0910 -0.0540  0.0302
31991W        W48838   7.377   1.786   1.837  0.0336 -0.0495 -0.2083
31992W        W48839  18.426  13.936  12.269  0.0356 -0.0082 -0.0628
31993W        W48840   5.156   4.228  15.879 -0.3313 -0.0289  0.1219
31994W        W48841   5.238   8.478   2.153 -0.1528  0.0130  0.2653
31995W        W48842  14.288   8.597   3.605 -0.0852 -0.0107  0.1602
31996W        W48843   1.459   2.746   1.412  0.0455  0.0228  0.0273
31997W        W48844  13.497   7.408   0.433 -0.1079  0.2457 -0.1625
31998W        W48845   0.053   8.400   4.956  0.3363 -0.2074 -0.0577
31999W        W48846  12.321   6.141  10.578 -0.1338 -0.2075 -0.0972
32000W        W48847  14.622  11.654  14.493  0.1501  0.1266 -0.0183
32001W        W48848  13.735  17.646   2.997  0.0608 -0.0838  0.0051
32002W        W48849  17.441   1.433  11.618  0.2683  0.2677 -0.0182
32003W        W48850  16.943  11.759  15.522  0.1529  0.0362 -0.3944
32004W        W48851   4.887   7.629  12.372 -0.0550  0.1704  0.0949
32005W        W48852  17.000   7.746  11.225  0.0733 -0.1603  0.0791
32006W        W48853   8.002  18.064   0.053 -0.1842 -0.0719 -0.0861
32007W        W48854  13.216   5.995   1.217 -0.2824  0.0745  0.0789
32008W        W48855   1.189   5.592   1.633 -0.1616 -0.0551 -0.2681
32009W        W48856   2.631  10.019  14.068  0.4886  0.1700 -0.3261
32010W        W48857   0.990  15.111  14.788 -0.1828  0.0882  0.0080
32011W        W48858   7.190   4.371   0.802  0.1930 -0.1038 -0.0776
32012W        W48859   0.202  15.834   1.818  0.1002 -0.1470 -0.0375
32013W        W48860   6.855  17.976  15.331 -0.1143 -0.0822 -0.0778
32014W        W48861   7.397   2.927  14.642 -0.0039  0.0251  0.0820
32015W        W48862  12.865   8.045   1.656  0.0548  0.1125  0.0249
32016W        W48863   9.784  16.877   4.590  0.0022  0.0590 -0.1159
32017W        W48864   1.027  10.299  11.892  0.2682 -0.0716  0.0036
32018W        W48865  10.467  14.178   5.492 -0.3619  0.1114  0.0615
32019W        W48866   2.609  18.157  12.633 -0.2550  0.0059 -0.0672
32020W        W48867   4.929  14.153  15.894 -0.1461 -0.0534 -0.0212
32021W        W48868  14.115   0.528   0.878  0.0066  0.0809  0.0206
32022W        W48869   1.311  16.618   2.841  0.1706  0.0743 -0.1532
32023W        W48870  13.672  12.672   0.331  0.2625 -0.3539  0.0093
32024W        W48871  17.680  12.090   4.517 -0.0796  0.1666 -0.1459
32025W        W48872   2.845  17.721  11.749  0.0524 -0.0533  0.0627
32026W        W48873   0.921  16.712   2.459 -0.3701 -0.1173  0.0290
32027W        W48874  14.764   6.220  15.592  0.0037  0.2703  0.1004
32028W        W48875   9.780   3.068   1.785 -0.0234 -0.1939 -0.0051
32029W        W48876   0.023  16.446  12.702  0.1006  0.0959 -0.2901
32030W        W48877   2.608   9.558  13.136 -0.1544  0.0864 -0.0646
32031W        W48878   7.572   8.932  14.232 -0.0210  0.1879 -0.2367
32032W        W48879   2.086  15.846  14.103  0.1380 -0.0351  0.2275
32033W        W48880   0.468  14.312   4.639  0.0549  0.1000 -0.0173
32034W        W48881   0.186  11.324  13.721  0.2279  0.1287  0.0121
32035W        W48882   1.170   5.848  10.776 -0.1844 -0.0896 -0.0398
32036W        W48883   4.427   7.605  13.886 -0.2498  0.1118  0.0140
32037W        W48884  14.383   7.301  13.447 -0.0533  0.2244  0.1333
32038W        W48885   7.305  17.255  13.218  0.2507  0.2332 -0.1493
32039W        W48886  18.277  17.999   0.025  0.2232  0.0075 -0.0638
32040W        W48887   7.920   4.179  11.576 -0.0905 -0.0354  0.1571
32041W        W48888   0.952  18.098  12.269  0.0132  0.0142  0.1152
32042W        W48889  11.857   0.181  11.136 -0.1586  0.3893 -0.2161
32043W        W48890   1.706   2.223  13.520 -0.0732 -0.0882 -0.3555
32044W        W48891   8.883  17.978  13.070 -0.0364  0.1443 -0.1284
32045W        W48892  13.780   7.093  14.148 -0.0851  0.0536  0.0397
32046W        W48893  11.729   6.101   4.748  0.1695 -0.0999  0.0833
32047W        W48894  12.000  10.067  13.546  0.1736 -0.0145 -0.1954
32048W        W48895  14.616  14.408  12.555  0.4200 -0.1998  0.1716
32049W        W48896   5.480   5.201  12.796  0.0732 -0.1998 -0.0707
32050W        W48897   7.353   3.842  15.160  0.3568  0.1908 -0.0512
32051W        W48898  10.310   0.191  14.219 -0.5141 -0.0728  0.1822
32052W        W48899   1.160  13.721  12.688  0.0320 -0.0446 -0.4489
32053W        W48900  11.522  14.782   2.093  0.1147  0.5973  0.1653
32054W        W48901   3.428   5.742   4.784  0.1905  0.2653  0.0951
32055W        W48902   2.569   3.926   1.061 -0.0791  0.2060 -0.2194
32056W        W48903  17.569  11.485   1.761  0.1887 -0.2388 -0.0441
32057W        W48904  10.628  14.899  12.682 -0.0576  0.2457  0.2779
32058W        W48905   6.532  13.935   2.646 -0.0665  0.3193  0.2301
32059W        W48906   4.431  13.741   2.116  0.0719  0.0025  0.0218
32060W        W48907   9.721   7.508   1.035 -0.2163  0.2137  0.0337
32061W        W48908   9.853  17.446   1.629  0.3443  0.2185 -0.0044
32062W        W48909   2.168   0.665  14.301  0.1105 -0.0180 -0.0412
32063W        W48910   0.155  14.788  13.008 -0.1643  0.2391 -0.3578
32064W        W48911  14.822  17.847  15.479  0.1332  0.5523 -0.2377
32065W        W48912  15.101   5.447   0.399 -0.3499 -0.1031 -0.1772
32066W        W48913   7.822   1.799   4.459  0.0456 -0.0176  0.0442
32067W        W48914   2.471  16.487  12.060  0.2997 -0.2258  0.2013
32068W        W48915  12.350  16.941  14.884  0.1651  0.0930 -0.3007
32069W        W48916  17.628   0.576  14.713  0.1684  0.0165 -0.0976
32070W        W48917   9.796   5.983   4.444 -0.1147 -0.0555  0.2602
32071W        W48918  14.962   6.160  13.612 -0.1048 -0.0440 -0.0577
32072W        W48919   5.817   6.488  14.456 -0.1212  0.0755  0.0790
32073W        W48920  15.898   9.250   0.051  0.0672  0.1364 -0.1936
32074W        W48921  11.062   2.538  13.835  0.0816  0.1765  0.0158
32075W        W48922   0.563  11.831   1.238  0.1815  0.0097  0.0687
32076W        W48923  16.643  10.838   4.577 -0.3083  0.2102  0.0902
32077W        W48924  11.673   4.819   2.689  0.1197 -0.0227 -0.1220
32078W        W48925  12.786   0.606   1.029 -0.1445  0.2042 -0.0531
32079W        W48926  12.213   5.103  13.013  0.1893  0.0915 -0.3340
32080W        W48927   0.603   5.174  12.979 -0.0563  0.0141  0.1298
32081W        W48928  18.433  18.086  13.508 -0.0988 -0.0392  0.0455
32082W        W48929   8.161  12.930  12.552 -0.4184 -0.2375  0.0984
32083W        W48930  11.932   5.809  12.694 -0.6057  0.1987 -0.1134
32084W        W48931  11.913  14.719  12.190  0.0581 -0.0372 -0.0548
32085W        W48932  15.200  14.321   2.971 -0.1553  0.2466  0.2727
32086W        W48933   2.522   1.119  10.709 -0.2562  0.0579  0.0728
32087W        W48934   1.129  11.212   3.410 -0.2284 -0.2191 -0.2307
32088W        W48935  17.153   8.204   2.004  0.0522 -0.3521 -0.3131
32089W        W48936   2.497   0.849   0.310 -0.2714  0.0679  0.2534
32090W        W48937   6.557  10.258   2.155  0.0801 -0.1979 -0.3193
32091W        W48938   3.134   6.415   2.661  0.0936  0.1261 -0.0463
32092W        W48939  10.920   1.720   5.181 -0.1080 -0.2870 -0.0691
32093W        W48940   1.972   6.629   0.183 -0.0895  0.3095 -0.0187
32094W        W48941   1.658   0.018   4.643 -0.2972  0.0283  0.0940
32095W        W48942   1.038  16.408  12.100  0.1455  0.0968  0.2058
32096W        W48943  14.412   3.946  13.835 -0.1658 -0.0352 -0.0207
32097W        W48944  18.453  13.667  15.824  0.0472 -0.0630  0.0356
32098W        W48945  10.231   2.776   4.899  0.0571 -0.0232 -0.1346
32099W        W48946   7.552  13.517   1.604  0.3313 -0.1517 -0.0080
32100W        W48947  17.768  15.967   4.096  0.1246  0.2383  0.1519
32101W        W48948  13.916   7.708   0.291  0.1937  0.0618 -0.0975
32102W        W48949   1.336   5.873   5.670  0.1735 -0.0755  0.3119
32103W        W48950  13.481  12.124  11.853  0.3785  0.2217 -0.1620
32104W        W48951   6.486  12.216  13.852 -0.0579 -0.2204 -0.2095
32105W        W48952  10.535   6.751   2.888 -0.0029 -0.1537  0.3745
32106W        W48953   7.887  10.926  12.068 -0.1705  0.0256 -0.0733
32107W        W48954   3.593   3.819  10.872 -0.0817 -0.1514 -0.0203
32108W        W48955  13.327  13.468  11.466 -0.2388  0.0692 -0.2264
32109W        W48956   6.126   6.132   0.838 -0.2561 -0.0780  0.0363
32110W        W48957  14.380   2.786  12.876 -0.1102 -0.1885  0.1427
32111W        W48958  11.778   1.686   2.420 -0.2802  0.2753 -0.2911
32112W        W48959  16.511  10.376   4.616  0.0201 -0.1714  0.2359
32113W        W48960  13.293  12.111   6.170  0.0983  0.3469  0.0101
32114W        W48961  12.360   2.882   0.309  0.1845  0.1775  0.0283
32115W        W48962   0.161   9.653  15.233  0.1176 -0.2134 -0.0345
32116W        W48963   2.921  16.109   1.799  0.1927 -0.1723  0.1217
32117W        W48964   4.772   8.693   1.817  0.0824  0.1214 -0.0939
32118W        W48965   0.166   9.780   0.173 -0.0414 -0.1723  0.1862
32119W        W48966   2.192   3.112  11.918 -0.1771 -0.1019  0.1223
32120W        W48967   0.917  10.061  13.874  0.1691  0.5848  0.1976
32121W        W48968   5.388   8.542   4.276 -0.0014  0.3088 -0.0040
32122W        W48969  12.428   0.218  13.620 -0.1785  0.1506 -0.0633
32123W        W48970  12.936   4.050  11.626 -0.2512 -0.0011 -0.0622
32124W        W48971   8.323   7.135  14.696 -0.0804  0.0554  0.0013
32125W        W48972   7.953   5.656  14.303  0.1191  0.0501  0.1101
32126W        W48973   6.282   5.049   4.795 -0.1334 -0.0006 -0.3169
32127W        W48974   2.112   3.820   1.294  0.0208  0.1611  0.3219
32128W        W48975  11.112   4.108   0.664 -0.1782  0.0556 -0.2834
32129W        W48976  14.766   9.231   1.258  0.2781  0.1868 -0.1109
32130W        W48977   9.906   0.258  14.438 -0.3923 -0.2213  0.1254
32131W        W48978  13.431   1.907  14.844 -0.1884 -0.1763 -0.0846
32132W        W48979   2.474   1.319  15.810 -0.2637 -0.2456 -0.1791
32133W        W48980  12.434  12.635   0.779 -0.3241 -0.0064  0.0023
32134W        W48981   5.757  11.430   2.113  0.2121 -0.2341  0.1362
32135W        W48982   9.813   3.121  11.682 -0.1779  0.3802  0.0128
32136W        W48983  18.103  12.814  11.541 -0.1975  0.0797 -0.0788
32137W        W48984   9.625   7.667  13.740 -0.0836  0.2017  0.1563
32138W        W48985   5.993  16.352   2.735 -0.2004  0.0514  0.0128
32139W        W48986  10.987   9.095  12.522 -0.1247  0.1254 -0.0043
32140W        W48987   5.831   3.659   4.280  0.0404 -0.0636  0.3117
32141W        W48988  12.970  16.497  11.311  0.2577 -0.1668  0.0489
32142W        W48989  12.145   3.286  11.044  0.0388 -0.1786 -0.1383
32143W        W48990  17.173  10.817   4.439  0.2721 -0.1074 -0.1168
32144W        W48991   7.278   8.854  14.780  0.1620 -0.0979  0.0576
32145W        W48992   1.402  14.251  11.331  0.2431 -0.0349 -0.2378
32146W        W48993  12.762  18.436   1.721  0.1282  0.0063 -0.1184
32147W        W48994   3.873  15.758  15.613  0.2214  0.4683 -0.1761
32148W        W48995   5.869  16.985  10.787 -0.3899  0.1636 -0.0680
32149W        W48996   0.823  16.818  13.873 -0.1772  0.0877 -0.1206
32150W        W48997   7.030   4.776   4.846 -0.2729  0.0961 -0.0687
32151W        W48998   5.799   7.004   2.395 -0.0014 -0.1333 -0.1680
32152W        W48999   8.852   4.043   5.007 -0.1427 -0.0402  0.3004
32153W        W49000   7.147   4.765   4.346  0.1380  0.0365  0.1860
32154W        W49001  11.396  13.430   3.250  0.0021 -0.2000  0.1908
32155W        W49002   6.466  10.091   3.962  0.2010  0.1959  0.4194
32156W        W49003   5.937  14.062   1.188  0.0462  0.1358 -0.1302
32157W        W49004   3.348   6.845   5.114 -0.1245 -0.0786  0.0805
32158W        W49005  14.227  10.838  14.598  0.1434 -0.1869 -0.1345
32159W        W49006  12.406  14.675   3.922 -0.1200 -0.3510  0.0352
32160W        W49007  13.131  15.653   5.187 -0.0009 -0.1263 -0.0247
32161W        W49008  15.921  10.217  15.107 -0.2016  0.1084 -0.1057
32162W        W49009  13.335   9.711  12.234  0.2833 -0.3669  0.2033
32163W        W49010   7.915  17.253  11.907  0.2261  0.0166  0.2159
32164W        W49011  16.216   2.402   3.741  0.0503  0.1277  0.1201
32165W        W49012  14.572   4.519   0.586  0.0350 -0.3933 -0.2613
32166W        W49013   9.284  16.335  12.413 -0.0086  0.3458  0.2255
32167W        W49014  12.376  11.224  13.503 -0.0535  0.4806 -0.0492
32168W        W49015   7.633  16.137   1.087  0.1307  0.3104 -0.0473
32169W        W49016  14.293   3.543   0.180 -0.0823  0.1214  0.3539
32170W        W49017  13.047   6.019  15.876  0.1963  0.0293  0.1891
32171W        W49018   5.155  16.812   2.186 -0.0026  0.1927 -0.2047
32172W        W49019  16.611  17.579   4.544 -0.0231 -0.1363  0.0150
32173W        W49020  13.858  15.252  11.402  0.3390  0.2600  0.1250
32174W        W49021   2.963   9.548  11.328 -0.0757  0.0077 -0.2129
32175W        W49022   4.209  11.868   4.505  0.1703 -0.1323  0.3173
32176W        W49023  15.024  12.937   4.895  0.0638  0.0335 -0.2091
32177W        W49024   1.804  17.555   1.047  0.0130  0.1227  0.1524
32178W        W49025  12.198   0.227   3.996 -0.1253  0.3610 -0.0182
32179W        W49026  11.402   0.707   4.265 -0.0804 -0.0005 -0.1867
32180W        W49027  16.095   6.800   2.504 -0.2895  0.0310 -0.1314
32181W        W49028  10.462  16.169  14.637  0.2331 -0.1838 -0.2151
32182W        W49029   9.317   6.371  12.048 -0.3198  0.2078 -0.3749
32183W        W49030  11.769   9.560   4.655  0.0719  0.0197  0.2441
32184W        W49031  13.687  12.548   4.377 -0.0013  0.1388 -0.1404
32185W        W49032  16.253  15.501   1.815  0.4008  0.0019 -0.3306
32186W        W49033   6.526   1.168   5.263 -0.0283  0.0918 -0.0149
32187W        W49034  12.517  18.323   4.144 -0.1700  0.2384 -0.1630
32188ION     NA49035   2.774  13.636   5.883  0.0577  0.1389  0.1101
32189ION     NA49036   7.860   1.764  10.130  0.0710 -0.0723 -0.2598
32190ION     NA49037   5.284   7.968  10.517  0.0397  0.1560  0.1795
32191ION     NA49038   1.274  13.380  15.901 -0.0442  0.2253  0.0213
32192ION     NA49039   5.905  13.190  10.867 -0.2574 -0.3893  0.1218
32193ION     NA49040   8.814   3.901   9.823 -0.0837  0.1276 -0.1062
32194ION     NA49041   0.916  18.165  14.266  0.1998  0.2110  0.0011
32195ION     NA49042  11.778   6.980   3.732  0.0418  0.0872  0.0783
32196ION     NA49043   7.161   7.932   0.613  0.3648  0.0444  0.0948
32197ION     NA49044   1.718  17.939   3.217 -0.3343  0.2352 -0.0861
32198ION     NA49045  17.301   7.695   5.460 -0.0338 -0.0034 -0.0556
32199ION     NA49046   2.593  17.421  10.251 -0.1730 -0.1372  0.2626
32200ION     NA49047  16.493   8.232   2.793 -0.1860 -0.0953  0.0189
32201ION     NA49048  16.300  18.241   5.855  0.0284  0.0487  0.3435
32202ION     NA49049  18.377  11.046   5.848 -0.1540 -0.0049 -0.2351
32203ION     NA49050  13.677   2.434  13.875 -0.0354  0.2226  0.0832
32204ION     NA49051  10.665  13.381   5.860  0.0703 -0.0021  0.0199
32205ION     NA49052   9.864  17.481  10.735 -0.2651  0.1677  0.1564
32206ION     NA49053  16.140   2.761   5.596 -0.0595  0.2012 -0.0195
32207ION     NA49054   5.451   8.105  14.462 -0.2819 -0.2923 -0.2365
32208ION     NA49055   4.180  17.895   0.168  0.3083 -0.1618  0.3421
32209ION     NA49056   5.119   3.177   5.847 -0.2028 -0.3622  0.0962
32210ION     NA49057   7.103   9.008   4.208  0.3584 -0.0026  0.0402
32211ION     NA49058  11.727  14.383   1.697  0.3037  0.2539 -0.1588
32212ION     NA49059  15.724  11.765   1.214  0.2401  0.1417  0.0018
32213ION     NA49060  15.291   8.056   0.507  0.0116 -0.2680 -0.1005
32214ION     NA49061   6.028   3.757  10.126  0.2398 -0.0969  0.0244
32215ION     NA49062   8.501   6.105   9.857  0.0438  0.2086 -0.0124
32216ION     NA49063  16.181  10.758  10.470  0.1580 -0.0830 -0.0707
32217ION     NA49064   8.823   2.917   9.768  0.0380  0.2280  0.2027
32218ION     NA49065   0.571   7.885   2.248 -0.0909  0.1671  0.2376
32219ION     NA49066   8.461   8.868  10.180  0.0820  0.1227  0.1461
32220ION     NA49067  11.636   4.580  12.368  0.0375  0.0000 -0.0720
32221ION     NA49068   2.927  11.207   2.150 -0.2727 -0.0080  0.0041
32222ION     NA49069  10.248  15.736  10.137  0.1551 -0.2666 -0.0420
32223ION     NA49070  12.303  14.562   0.242 -0.0513  0.0369  0.1481
32224ION     NA49071   0.566   9.522   2.308 -0.1674 -0.1352 -0.2382
32225ION     NA49072  14.218   2.602  10.324 -0.2630  0.0536 -0.3000
32226ION     NA49073   3.918   5.555   0.404  0.0035 -0.0346 -0.3596
32227ION     NA49074  10.544   8.052   3.847 -0.2457  0.0424 -0.1634
32228ION     NA49075   1.963   7.089  15.775  0.0385  0.0958 -0.0023
32229ION     NA49076  12.460  10.641   2.494 -0.3005  0.1485 -0.0859
32230ION     NA49077   1.808  12.613  15.265  0.1903 -0.0502  0.1211
32231ION     NA49078  15.159  13.941   6.028 -0.0212  0.1924 -0.0961
32232ION     NA49079  10.872  13.698  13.196 -0.1041 -0.3183  0.0268
32233ION     NA49080  16.953   0.184  15.533  0.0576 -0.2962  0.3468
32234ION     NA49081   2.946   8.000   2.023 -0.0722  0.1020  0.0513
32235ION     NA49082   9.879   3.024   9.681 -0.1482 -0.0097 -0.1973
32236ION     NA49083   2.679  11.720  12.768 -0.3806 -0.2153 -0.3963
32237ION     NA49084   5.001   0.313  12.303 -0.5293 -0.0945 -0.0160
32238ION     NA49085  16.614  18.216   2.362  0.0716  0.0550  0.0542
32239ION     NA49086  12.843  17.272  10.699  0.3798 -0.1936 -0.0837
32240ION     NA49087   3.433  13.337   5.845  0.1792 -0.1894  0.1136
32241ION     NA49088  18.150  14.622   3.094 -0.1343  0.4152  0.2398
32242ION     NA49089   9.646   5.112   9.776  0.0904  0.3973 -0.2006
32243ION     NA49090   7.331   2.265  12.464 -0.1524  0.2651  0.0015
32244ION     NA49091  12.852  16.753   5.030 -0.0135 -0.0699 -0.0319
32245ION     NA49092   1.328  16.323  10.386  0.0406  0.0359  0.3936
32246ION     NA49093  15.347   7.145  10.103 -0.0664 -0.3057  0.1202
32247ION     NA49094  13.203   9.991  15.053 -0.1164  0.1479 -0.3163
32248ION     NA49095  12.519   0.711  12.556  0.0156  0.0900 -0.2227
32249ION     NA49096   3.006   0.236   3.854  0.0394 -0.1214  0.2002
32250ION     NA49097  17.210  17.420   5.831 -0.2341  0.3248  0.0668
32251ION     NA49098   5.502   0.613  10.187 -0.0314 -0.0566  0.2424
32252ION     NA49099   2.939   5.821   5.889  0.3078  0.0688  0.0962
32253ION     NA49100   8.506  14.163  10.868 -0.2009 -0.2049 -0.0371
32254ION     NA49101   8.547  16.128  10.352  0.2775  0.3730 -0.1075
32255ION     NA49102  13.646   6.584   4.212 -0.1757  0.1464  0.2123
32256ION     NA49103  13.865  14.877  10.317 -0.0751 -0.0312  0.0037
32257ION     NA49104  16.738  12.135  10.419  0.0988  0.1071  0.1564
32258ION     NA49105   5.157   1.964   3.923  0.0940 -0.1048 -0.2316
32259ION     NA49106   2.391  12.448  10.788  0.1063  0.1734  0.1261
32260ION     NA49107   7.149  16.681  13.179  0.0262 -0.1293  0.0140
32261ION     NA49108  15.429   0.408   0.020 -0.3692 -0.1376  0.0584
32262ION     NA49109   4.300   7.644  10.316  0.1471  0.0757 -0.1421
32263ION     NA49110  18.131   4.216  10.241 -0.3499  0.0185 -0.3218
32264ION     NA49111   7.270   5.151   1.653  0.1614 -0.1455 -0.1022
32265ION     NA49112   6.164  17.702   4.724 -0.0810 -0.1176  0.0731
32266ION     NA49113   3.695   4.081   4.545 -0.4238 -0.2976 -0.1593
32267ION     NA49114   4.967   5.319   4.130 -0.1318 -0.0317  0.0292
32268ION     NA49115   2.011   0.120   5.927 -0.0115 -0.1874 -0.0694
32269ION     NA49116   1.595  18.303  10.165 -0.0420  0.0715  0.3489
32270ION     NA49117   6.736   0.741   3.986 -0.3539 -0.2423  0.2275
32271ION     NA49118   8.727   5.312   9.802 -0.0253 -0.0603  0.0783
32272ION     NA49119   9.347  14.331  10.724  0.0943  0.2556  0.4221
32273ION     NA49120   5.097  13.023  10.474  0.1314 -0.0366  0.0085
32274ION     NA49121   3.958  14.126  10.756 -0.2186  0.2053 -0.1182
32275ION     NA49122   1.938   1.771  15.022 -0.1396  0.2258 -0.0031
32276ION     NA49123   4.117  15.305  15.431  0.0677 -0.0152 -0.0941
32277ION     NA49124   9.172  17.130  10.214 -0.1424  0.1545  0.1798
32278ION     NA49125   6.966   4.555  12.052 -0.0517  0.0617  0.1665
32279ION     NA49126   0.442  16.042  15.577 -0.0783 -0.2986  0.0691
32280ION     NA49127  16.099   7.855   1.245 -0.2953 -0.1357  0.4591
32281ION     NA49128   9.146  10.046   2.437  0.0762 -0.0510  0.0303
32282ION     NA49129   8.986   7.139   9.995  0.1802 -0.1653  0.0787
32283ION     NA49130  13.169  18.001   2.330 -0.0175  0.3832 -0.0078
32284ION     NA49131   0.095   0.929   3.040 -0.1969  0.2224 -0.1761
32285ION     NA49132   6.645   3.506   2.570  0.2340  0.0578 -0.3027
32286ION     NA49133   4.362  10.123   1.372 -0.1271 -0.2327 -0.2996
32287ION     NA49134  13.009   1.087   3.385 -0.1274  0.1248 -0.1868
32288ION     NA49135   8.772   8.180  10.035 -0.2380 -0.1908 -0.1520
32289ION     NA49136  16.465   9.206   1.125 -0.3838  0.1003 -0.0340
32290ION     NA49137   0.740  16.132   5.821 -0.0551 -0.1650  0.0704
32291ION     NA49138  10.202  11.685   5.548  0.3717 -0.1257 -0.2935
32292ION     NA49139   5.316  15.873   3.752  0.0902 -0.2314  0.1840
32293ION     NA49140  13.185  17.940   3.343  0.0038 -0.0181 -0.1228
32294ION     NA49141   3.981   6.925  12.969  0.1581 -0.2114  0.0441
32295ION     NA49142  17.141   7.899  10.219 -0.3414  0.1035 -0.0245
32296ION     NA49143  12.349   8.196  10.062 -0.2190  0.2160 -0.3355
32297ION     NA49144   2.325  11.286   5.610 -0.1145 -0.2474  0.0403
32298ION     NA49145  13.215  11.963   5.618  0.1197  0.1482  0.2305
32299ION     NA49146   6.573   3.404   5.481  0.4964 -0.0481  0.4006
32300ION     NA49147  11.939  17.289   1.381  0.1722  0.1706 -0.0632
32301ION     NA49148  17.622  14.183  15.938 -0.1644  0.5031 -0.1311
32302ION     NA49149  13.720   8.472  13.976 -0.0729  0.0242 -0.0112
32303ION     NA49150   6.646  10.444   1.176 -0.0083 -0.2092  0.1966
32304ION     NA49151  10.105  17.260   2.490  0.2011 -0.0968  0.1353
32305ION     NA49152   6.910  17.150  12.007 -0.1142 -0.2639  0.0367
32306ION     NA49153   1.273   5.383   5.418 -0.3090 -0.1651 -0.0284
32307ION     NA49154   8.665   5.486   0.059 -0.0831 -0.1376  0.0057
32308ION     NA49155  13.413  18.414   0.953  0.1299  0.0418  0.0323
32309ION     NA49156   9.233   8.477   4.074 -0.1309  0.1938  0.1195
32310ION     NA49157   8.505   9.191  12.534 -0.1053 -0.2595 -0.4350
32311ION     NA49158   1.486  18.317  15.688  0.0199 -0.0139  0.3045
32312ION     NA49159   8.249  16.706  15.669  0.0674 -0.0246 -0.0757
32313ION     NA49160   1.064  10.968  10.886 -0.1378  0.1429 -0.0764
32314ION     NA49161   3.785  16.805   0.751 -0.1236  0.4898 -0.0746
32315ION     NA49162  14.924  17.949   0.336 -0.2703 -0.1418  0.1530
32316ION     NA49163   3.500  17.419  14.212  0.0063  0.0924  0.4917
32317ION     NA49164  16.633   2.415   1.215 -0.2188  0.2829 -0.0771
32318ION     NA49165   6.784  13.865  10.507  0.0186  0.1817 -0.1423
32319ION     NA49166  13.363  16.966   0.108  0.0342 -0.3232  0.0141
32320ION     NA49167  18.334   9.095  15.194  0.0400  0.2663  0.1252
32321ION     NA49168  17.677   4.836   5.819 -0.2809 -0.0902  0.3160
32322ION     NA49169   4.255  13.453  10.663  0.0496 -0.1057 -0.4624
32323ION     NA49170   8.489  17.259  10.201  0.0813  0.0744 -0.0113
32324ION     NA49171   0.552  12.351   5.868  0.0637 -0.0917  0.4157
32325ION     NA49172  18.270  16.729   2.571  0.1812 -0.0345  0.1447
32326ION     NA49173   2.783  15.615   2.920  0.0438 -0.1333  0.2090
32327ION     NA49174   5.310   9.407  10.537  0.3793 -0.2291  0.2085
32328ION     NA49175   7.452   9.848   5.796 -0.2727 -0.2764  0.0142
32329ION     NA49176  12.147  16.093  10.117 -0.0449 -0.0779  0.0545
32330ION     NA49177  17.255  13.750  13.375 -0.0742  0.3015 -0.2631
32331ION     NA49178  11.601   1.537  10.021  0.0895  0.2113 -0.1885
32332ION     NA49179  13.256   7.866   9.960  0.0783 -0.0744  0.1663
32333ION     NA49180  16.618  17.286   0.424 -0.0723  0.1741  0.1775
32334ION     NA49181  13.519  13.571  10.516 -0.2619  0.1835  0.1272
32335ION     NA49182   0.643  14.459   5.706 -0.1694 -0.1961  0.2085
32336ION     NA49183   8.562   4.109   2.494  0.1212  0.0838  0.1947
32337ION     NA49184   4.380   4.886  10.321 -0.0786  0.0255  0.0308
32338ION     NA49185   1.884  12.455   4.848 -0.1083  0.1924  0.1179
32339ION     NA49186   4.923  15.654   5.412  0.1168 -0.0447  0.0064
32340ION     NA49187  17.330  11.842  12.791  0.0217  0.0748 -0.0169
32341ION     NA49188   3.797  18.277  10.208 -0.0563 -0.2030 -0.1197
32342ION     NA49189  17.940  13.775  14.833  0.1902  0.2902  0.0061
32343ION     NA49190  12.489  17.645   5.382 -0.0839  0.0336  0.2127
32344ION     NA49191   1.060  11.035   1.579  0.0540  0.0460 -0.1269
32345ION     NA49192  17.000   8.234  11.917  0.0363  0.2050 -0.1088
32346ION     NA49193  15.111  14.548   0.091 -0.0517 -0.2369 -0.2724
32347ION     NA49194   9.666   1.260   9.863 -0.0217  0.0708  0.2082
32348ION     NA49195  18.406  15.623  11.186  0.0809 -0.2130  0.2031
32349ION     NA49196   7.993  10.491   5.757 -0.1060 -0.1767 -0.2081
32350ION     NA49197   3.202  12.365  14.773  0.0663 -0.3618 -0.1019
32351ION     NA49198  14.604  16.361   1.123  0.4352  0.0815  0.2232
32352ION     NA49199   0.579  15.889  13.739 -0.0294  0.1695  0.0260
32353ION     NA49200  16.361  15.460  11.826  0.1202  0.1444 -0.1487
32354ION     NA49201   3.994   1.987   4.929 -0.1247  0.1886 -0.0253
32355ION     NA49202  12.848   9.136   9.966 -0.0852 -0.0369  0.0223
32356ION     NA49203  18.155   3.325   2.769 -0.1178 -0.1603  0.0292
32357ION     NA49204  16.690   2.262  10.484  0.3683  0.0700 -0.2306
32358ION     NA49205   2.801   5.047  14.412  0.5406  0.0817  0.0731
32359ION     NA49206   5.357  12.956   6.006 -0.2364 -0.0391  0.0121
32360ION     NA49207   6.482   4.078  15.297  0.0124  0.1078  0.0293
32361ION     NA49208  17.181  17.425  13.778  0.0070 -0.0149 -0.1670
32362ION     NA49209  16.653   7.071  14.370  0.0907 -0.1124 -0.0800
32363ION     NA49210   3.738  11.121   5.691 -0.0289 -0.3329 -0.2230
32364ION     NA49211   6.139   3.612  13.235  0.1642 -0.0577  0.3169
32365ION     NA49212  16.492   1.842  10.348 -0.0907  0.3728  0.2770
32366ION     NA49213  15.723   3.961  15.549 -0.0048  0.1220  0.0867
32367ION     NA49214   0.381   0.384   4.873  0.2201 -0.0679 -0.2675
32368ION     NA49215   2.939   5.630   0.462  0.4486  0.2366  0.1621
32369ION     NA49216  17.984   5.904  13.296  0.1190  0.2063  0.0550
32370ION     NA49217  18.391   9.532  10.800 -0.0592  0.0619  0.1061
32371ION     NA49218   8.655   8.153   2.710 -0.0076 -0.3563 -0.0429
32372ION     NA49219   3.850  12.016  14.441  0.2835 -0.1274  0.2030
32373ION     NA49220  18.310  18.475  15.737  0.2508  0.0435 -0.2423
32374ION     NA49221  17.012  10.378  10.491  0.1522  0.0580 -0.1687
32375ION     NA49222  12.411  12.199   5.567 -0.2289  0.2313 -0.2380
32376ION     NA49223   5.370  14.718  15.756  0.0500  0.0350 -0.0555
32377ION     NA49224   8.920   9.495  10.573 -0.0128 -0.0505  0.0474
32378ION     NA49225  10.009   4.089   4.279 -0.0545  0.1026 -0.1393
32379ION     NA49226   7.643  18.450   5.471 -0.0009  0.0917 -0.1850
32380ION     NA49227   6.665  17.208  12.788 -0.1463  0.4159 -0.5998
32381ION     NA49228  17.390   2.071   5.602 -0.4019  0.0505  0.0218
32382ION     NA49229  13.974   3.251   5.656  0.0234 -0.3678  0.2845
32383ION     NA49230   4.381   9.516   5.134  0.1704  0.0079 -0.2433
32384ION     NA49231  14.304  11.881   3.684 -0.1792 -0.0433 -0.3992
32385ION     NA49232  13.965   8.505  15.820  0.2175  0.3017  0.0072
32386ION     NA49233  15.700   8.112  15.524 -0.0076  0.0694 -0.1037
32387ION     NA49234   2.216   3.761  13.238  0.4088 -0.2193  0.1525
32388ION     NA49235  11.780  10.708  10.368 -0.0701  0.3029  0.2184
32389ION     NA49236   9.834  12.058  10.382  0.0633 -0.0881 -0.2406
32390ION     NA49237   6.999   3.139  10.215  0.2138 -0.0939  0.0811
32391ION     NA49238  18.269  10.359  14.714  0.0892 -0.2427  0.1021
32392ION     NA49239   7.523   7.990   3.816  0.3006 -0.0335 -0.0410
32393ION     NA49240   1.819   2.949   2.064  0.2377  0.0747 -0.3965
32394ION     NA49241   2.626  15.444  10.298  0.0771 -0.0247  0.1577
32395ION     NA49242   1.345   1.481  10.327 -0.1075  0.2612  0.2240
32396ION     NA49243  15.570  15.869  13.329 -0.1537  0.0140  0.1683
32397ION     NA49244   8.969  10.202   5.804  0.0106 -0.0900 -0.0954
32398ION     NA49245   7.834  15.562   2.187  0.0828  0.0095 -0.0447
32399ION     NA49246   0.759   0.386  12.830 -0.0226  0.1176 -0.3386
32400ION     NA49247   9.390  13.375  10.581  0.0517 -0.4051 -0.3956
32401ION     NA49248  12.834  13.519   6.205 -0.2967 -0.0133  0.0250
32402ION     NA49249  17.518  13.351   5.894 -0.1597 -0.0096 -0.0594
32403ION     NA49250   6.765  15.154  10.947  0.1296 -0.2512 -0.0613
32404ION     NA49251   5.701   5.975   5.254  0.3493  0.0180  0.2000
32405ION     NA49252   2.519  12.758   5.954  0.0814  0.0890  0.0713
32406ION     NA49253   7.965  15.987   0.705 -0.1384  0.1851 -0.4719
32407ION     NA49254   4.124  11.602   4.894 -0.4180 -0.2861  0.0625
32408ION     NA49255   9.918  16.145  14.473  0.1071 -0.0943  0.0355
32409ION     NA49256   3.950  14.875   2.847 -0.0374 -0.1296 -0.0548
32410ION     NA49257  16.712  16.465  10.911 -0.2121 -0.0225 -0.0255
32411ION     NA49258   1.305  17.050   2.255 -0.2690  0.0589 -0.1262
32412ION     NA49259  12.822   6.742   5.421  0.0314 -0.1407 -0.0580
32413ION     NA49260   0.007  11.524   2.762 -0.1117  0.1183 -0.2553
32414ION     NA49261  10.103   0.542   9.870 -0.2101 -0.1070 -0.1167
32415ION     NA49262  14.362  16.689  10.621  0.1742 -0.0250  0.0372
32416ION     NA49263  11.690  13.105   2.112  0.0741  0.3487  0.4234
32417ION     NA49264  15.050  15.099   2.941 -0.0040  0.3683  0.1438
32418ION     NA49265  13.429   6.729   2.137  0.1045  0.1349 -0.0117
32419ION     NA49266  10.176   2.081   3.542  0.0403 -0.0622 -0.0064
32420ION     NA49267   7.509  15.594   5.565  0.1382  0.0508 -0.1813
32421ION     NA49268   4.948   8.145   0.778  0.0340 -0.0339 -0.1781
32422ION     NA49269  17.371   4.606  14.399  0.2501 -0.0176 -0.0234
32423ION     NA49270   8.806  13.101   1.075 -0.3216 -0.0342 -0.0696
32424ION     NA49271   4.493  13.223  14.765 -0.1873 -0.1019  0.1094
32425ION     NA49272   0.644   0.593  10.586 -0.1124  0.0022 -0.0619
32426ION     NA49273  15.802  17.769   3.307 -0.1829 -0.3493 -0.5379
32427ION     NA49274   1.935   2.229  10.378 -0.2242 -0.2258  0.1084
32428ION     NA49275   2.517   4.848  10.012 -0.1280 -0.1198  0.0618
32429ION     NA49276  17.467   0.521   3.752  0.3120  0.1333  0.0750
32430ION     NA49277   7.452   4.099  10.242 -0.0725 -0.3183 -0.0831
32431ION     NA49278   1.192  10.797   4.133  0.1715 -0.3976  0.1865
32432ION     NA49279  16.672   2.979  12.420 -0.0324  0.0175 -0.2196
32433ION     NA49280  17.105  13.786   2.173 -0.0892  0.1532  0.3780
32434ION     NA49281   7.244  11.617  13.706 -0.0632 -0.0091  0.0853
32435ION     NA49282  11.346   9.606   4.990 -0.0945  0.1904 -0.0293
32436ION     NA49283   8.959  10.321   4.303  0.4999 -0.1248  0.1365
32437ION     NA49284  11.462  11.974   3.668 -0.0487  0.1276 -0.0732
32438ION     NA49285  13.574  15.608  13.116 -0.2692  0.0753  0.3749
32439ION     NA49286  16.162   9.902  10.425  0.0123  0.1436  0.0132
32440ION     NA49287   7.425  13.532  15.879  0.1007 -0.0199  0.0447
32441ION     NA49288   6.769  14.019   1.844  0.2008 -0.0118 -0.4202
32442ION     NA49289   7.131   9.071   3.337 -0.0404  0.2014 -0.1099
32443ION     NA49290   9.614   8.265   5.378 -0.0136  0.1522 -0.0605
32444ION     NA49291   0.399  12.589   2.025  0.1538  0.0447 -0.0218
32445ION     NA49292   3.196   2.618   1.106 -0.0839 -0.0973 -0.2139
32446ION     NA49293  17.849   2.833  10.310 -0.0294 -0.0057  0.0337
32447ION     NA49294  13.047   5.393  15.761  0.2215  0.2843  0.0349
32448ION     NA49295  14.379  14.559  15.061 -0.2783  0.0423  0.1213
32449ION     NA49296   6.018  17.087   9.929 -0.0438 -0.1167 -0.0284
32450ION     NA49297   7.096  14.792   4.572  0.0096  0.0063 -0.0230
32451ION     NA49298  15.122  18.109   5.707  0.1519 -0.3088 -0.0869
32452ION     NA49299   6.486  10.313  15.471 -0.1430  0.0649 -0.1277
32453ION     NA49300  11.282  15.547  11.155 -0.0870  0.5060 -0.0114
32454ION     NA49301  11.212  10.103   1.055 -0.0144  0.0521 -0.0597
32455ION     NA49302   6.801  10.583   5.306 -0.0977 -0.0772  0.1593
32456ION     NA49303  13.785  14.014  14.447  0.2886 -0.0477  0.0605
32457ION     NA49304   8.927   7.054   0.715 -0.0175 -0.0319 -0.1756
32458ION     NA49305  12.923   8.558  15.716 -0.1003 -0.2572 -0.1785
32459ION     NA49306   4.079   4.440  15.647 -0.0090  0.2581 -0.2203
32460ION     NA49307  16.561   8.517  10.305 -0.1929 -0.4339 -0.1976
32461ION     NA49308  11.460   5.812   2.107 -0.0622  0.0470 -0.0048
32462ION     NA49309  11.814  10.015   2.387  0.2015 -0.0737  0.0005
32463ION     NA49310  11.521   8.477   5.666 -0.0757 -0.0552 -0.0825
32464ION     NA49311  10.159   0.767  15.730 -0.1646  0.2114  0.0751
32465ION     NA49312  18.326   6.892  15.804 -0.0417  0.0112 -0.1268
32466ION     NA49313  16.283   9.726   2.858  0.2220 -0.0542 -0.0693
32467ION     NA49314   3.778   1.381  10.210  0.1008  0.5511  0.1024
32468ION     NA49315  15.375   3.162   5.087  0.0663 -0.0479 -0.1715
32469ION     NA49316  15.012  16.331  13.680 -0.0031  0.1966 -0.2558
32470ION     NA49317   8.845   4.557   5.786 -0.2980  0.3310 -0.0948
32471ION     NA49318  13.234  13.569  13.858 -0.3564 -0.1491  0.0532
32472ION     NA49319   9.531  10.955   5.705  0.0569  0.4221 -0.0390
32473ION     NA49320   0.538   7.530   5.647  0.0784 -0.2030 -0.1020
32474ION     NA49321  16.323   4.428  10.794 -0.0327  0.1622  0.3639
32475ION     NA49322   3.218   3.498   5.915  0.3541  0.0371  0.0099
32476ION     NA49323   5.602  11.664   5.633 -0.3282 -0.3679 -0.1090
32477ION     NA49324  16.356   2.875   3.540  0.0082 -0.0292 -0.0721
32478ION     NA49325   0.589  11.789  10.326 -0.1207  0.0313  0.1519
32479ION     NA49326  16.953   8.477   0.513 -0.1930  0.0390 -0.1016
32480ION     NA49327   0.843  17.112  10.380  0.2638 -0.2464 -0.1055
32481ION     NA49328   6.333   2.701  11.374  0.0277  0.1740 -0.0289
32482ION     NA49329   9.748   5.970   5.492 -0.0919  0.0042 -0.0567
32483ION     NA49330  14.074   0.478  10.349  0.0127  0.0656  0.0540
32484ION     NA49331   6.499   0.433  10.122 -0.1553 -0.0304  0.1315
32485ION     NA49332   7.983  11.863   4.324 -0.2820  0.2069 -0.2785
32486ION     NA49333   0.675   9.304   2.995 -0.0845  0.1504 -0.2883
32487ION     NA49334  13.761   8.323   2.714 -0.0123  0.0184  0.4834
32488ION     NA49335   8.124   7.324   2.723  0.2342 -0.0735  0.0680
32489ION     NA49336  15.205   1.811  13.737 -0.0940  0.0878 -0.1361
32490ION     NA49337  16.079   3.496  12.581 -0.0847 -0.0284  0.2484
32491ION     NA49338  11.211  15.702  10.213  0.0605  0.0008  0.1011
32492ION     NA49339   8.372  17.612   0.083 -0.0209 -0.0965 -0.0163
32493ION     NA49340   5.177   2.648  13.060  0.2121  0.0458  0.3297
32494ION     NA49341   4.974  17.424   5.793 -0.0851 -0.1852 -0.2188
32495ION     NA49342   1.677   7.460  15.307 -0.0819  0.1106  0.2618
32496ION     NA49343   5.225  17.174   2.526  0.1427  0.1694 -0.1753
32497ION     NA49344   8.563   3.995   5.434  0.1770 -0.1723  0.0055
32498ION     NA49345   5.763  17.647  12.444  0.4719  0.0607  0.1001
32499ION     NA49346  10.133  13.336   0.938  0.0962  0.1071  0.0169
32500ION     NA49347   4.950  16.798  11.678  0.0956 -0.0844 -0.0474
32501ION     NA49348  10.729   1.223  10.087 -0.0064 -0.2868  0.0407
32502ION     NA49349   2.075   2.617   4.278  0.1743  0.2415 -0.0507
32503ION     NA49350   3.312   2.586  10.868 -0.3542 -0.0216 -0.0744
32504ION     NA49351   4.099  15.667   5.169  0.0414  0.0863 -0.0658
32505ION     NA49352  13.319   5.989   3.565 -0.3366  0.0038 -0.1878
32506ION     NA49353  10.028  18.318   4.729 -0.2463 -0.1764  0.1238
32507ION     NA49354   7.663   9.685   3.887 -0.1746 -0.4300  0.0076
32508ION     NA49355   2.953   6.610   5.334  0.2825  0.1625  0.0983
32509ION     NA49356   2.628  14.500   2.747  0.5265 -0.0941  0.1116
32510ION     NA49357  11.080   0.049  11.433  0.0642  0.1034 -0.0424
32511ION     NA49358   6.102   3.551   5.816  0.0746  0.3263 -0.1005
32512ION     NA49359   1.166   9.344   0.979 -0.3267 -0.2010 -0.4653
32513ION     NA49360   4.871   7.974   3.831 -0.0276  0.1143  0.4243
32514ION     NA49361  11.985   8.857   5.778 -0.4266 -0.1410  0.0531
32515ION     NA49362   3.417   1.779  14.304 -0.0183  0.0932 -0.0804
32516ION     NA49363   9.446   8.003  14.906 -0.0349 -0.1983  0.2094
32517ION     NA49364   2.640   7.968  10.466 -0.1730  0.0622 -0.2817
32518ION     NA49365  16.827   4.765  15.697  0.0223 -0.3467 -0.2612
32519ION     NA49366  16.656   2.556   5.741  0.1818  0.1044  0.1166
32520ION     NA49367   5.228  13.898  15.528  0.1097 -0.1507 -0.0637
32521ION     NA49368   9.195  11.854   3.625 -0.0088  0.0881  0.4113
32522ION     NA49369  15.827  17.936  10.776 -0.0248  0.2206  0.0337
32523ION     NA49370   2.125  11.633  10.890  0.1358  0.3148 -0.2942
32524ION     NA49371  12.440   3.925  15.764  0.1405  0.3552  0.3448
32525ION     NA49372   9.168  15.938   5.382  0.0127 -0.1774 -0.1530
32526ION     NA49373   5.283   9.854   1.540  0.1817 -0.0083  0.2182
32527ION     NA49374   7.439   9.685   2.116 -0.1158 -0.1369  0.1287
32528ION     NA49375   3.157   7.148  10.401  0.3239  0.2459  0.3816
32529ION     NA49376  16.599   7.044  10.345  0.1523  0.3544  0.1674
32530ION     NA49377  11.528  15.644  15.108  0.1921 -0.3433 -0.0841
32531ION     NA49378   6.810   9.360   0.366  0.0000 -0.0839 -0.1370
32532ION     NA49379   9.769   8.959  15.584 -0.4673 -0.0009 -0.1107
32533ION     NA49380   1.203  11.166  14.839 -0.2966  0.0362 -0.2780
32534ION     NA49381   4.308   5.081  11.632  0.1622  0.0253 -0.2708
32535ION     NA49382   0.792  17.817  10.462 -0.4817 -0.1441 -0.2866
32536ION     NA49383   7.024  14.365   5.455  0.1409 -0.0049  0.2480
32537ION     NA49384   0.723   0.490   2.750 -0.1125  0.1603  0.1548
32538ION     NA49385   6.347  15.821  15.699 -0.2914  0.2029  0.2922
32539ION     NA49386  17.208   3.721  10.191 -0.1111  0.0578 -0.2708
32540ION     NA49387   6.328   4.215   5.854 -0.2332 -0.1715 -0.0361
32541ION     NA49388  17.507   2.219   3.610 -0.0729 -0.3955 -0.2447
32542ION     NA49389  16.415   5.145  10.345 -0.1261 -0.2475  0.1177
32543ION     NA49390  16.430  12.461   3.098  0.1008  0.1013  0.2230
32544ION     NA49391   2.119  16.778   2.847 -0.1514  0.0848 -0.1769
32545ION     NA49392   8.245  17.781   4.001 -0.2426 -0.0593  0.0013
32546ION     NA49393   0.173   4.534   0.934  0.0943  0.0919 -0.1766
32547ION     NA49394  12.836  15.735  10.188 -0.0331 -0.1634  0.3708
32548ION     NA49395  15.369  10.209  10.332  0.0310  0.0361 -0.0729
32549ION     NA49396  18.173   0.514   3.822 -0.1525 -0.3262  0.2294
32550ION     NA49397   8.983  16.192   3.394 -0.1677 -0.1093 -0.0702
32551ION     NA49398   4.641   1.694  12.971 -0.2570 -0.0064  0.1885
32552ION     NA49399  18.245   6.826  10.488  0.0151  0.3266  0.1109
32553ION     NA49400   4.766   3.527  13.093  0.2036  0.1257 -0.0195
32554ION     NA49401   8.614   8.250   4.958  0.0973 -0.0090 -0.4422
32555ION     NA49402  17.776  17.284  10.588  0.3662 -0.2003  0.1019
32556ION     NA49403  11.257  11.409   2.297 -0.0070  0.3376 -0.2149
32557ION     NA49404   6.635  11.561   4.688 -0.1426  0.2879  0.0783
32558ION     NA49405  13.036  11.655  15.481 -0.0071 -0.0938 -0.1756
32559ION     NA49406  17.696   4.263   2.673 -0.1495 -0.0453  0.4769
32560ION     NA49407   8.117   2.458  11.975  0.0622  0.1578 -0.2099
32561ION     NA49408   2.141  14.983  15.730  0.4383 -0.0062 -0.2540
32562ION     NA49409   2.326   6.872  14.284  0.4664  0.2944  0.1531
32563ION     NA49410   3.976  12.131   0.792  0.4644 -0.0969  0.2731
32564ION     NA49411   5.483  12.474  13.973 -0.0707  0.0419  0.0993
32565ION     NA49412  16.223   6.986   5.744  0.0109  0.1613 -0.0471
32566ION     NA49413   8.048   2.435   3.638 -0.0458 -0.1574 -0.0852
32567ION     NA49414   6.838   1.759   1.150  0.0139  0.2376 -0.1181
32568ION     NA49415  10.377  12.855  10.589 -0.1672 -0.1446  0.1288
32569ION     NA49416  16.600   9.356  10.500 -0.0407  0.0563 -0.1884
32570ION     NA49417   1.193   5.136  10.358 -0.2240  0.0018  0.0101
32571ION     NA49418  12.445  14.442   3.490  0.0781 -0.0986 -0.1128
32572ION     NA49419  16.491  10.822  14.300 -0.1785  0.1417 -0.0842
32573ION     NA49420   8.456   7.567  11.339 -0.1602 -0.1819  0.0771
32574ION     NA49421  14.065  17.652  13.639  0.2779 -0.1279  0.1652
32575ION     NA49422   6.042   0.225  11.746  0.0440  0.0006 -0.1976
32576ION     NA49423   4.549   9.964  10.429 -0.1839 -0.1736 -0.0970
32577ION     NA49424  12.355   8.012   5.610 -0.0409 -0.0632 -0.0015
32578ION     NA49425  15.116   4.861   1.568  0.0533  0.1831  0.3282
32579ION     NA49426  17.074   4.284   5.150 -0.0494 -0.0550 -0.0404
32580ION     NA49427  14.885   9.328  10.445 -0.1517 -0.0371  0.0190
32581ION     NA49428  11.973  17.766   2.460  0.1872  0.2217 -0.1656
32582ION     NA49429   1.412   3.056  15.100  0.2847 -0.1593  0.0074
32583ION     NA49430   8.993   0.825   5.631  0.2709  0.0358 -0.0905
32584ION     NA49431  11.994   0.328  10.201  0.4242 -0.2473 -0.0784
32585ION     NA49432  12.043   2.962   5.349  0.0103  0.1784  0.1567
32586ION     NA49433  16.798   8.409   5.424 -0.2734  0.0941  0.1694
32587ION     NA49434  10.072   5.927   9.816  0.0210  0.2005  0.0789
32588ION     NA49435   4.566   4.333   2.790  0.2312 -0.0788  0.0149
32589ION     NA49436  17.395   9.648  10.632 -0.4912 -0.4011 -0.0232
32590ION     NA49437   7.577  17.510   5.427  0.2422 -0.0901 -0.1553
32591ION     NA49438   6.345   3.602  14.158  0.1700 -0.2188 -0.2571
32592ION     NA49439   2.432  13.994  10.624  0.0467  0.1456  0.0426
32593ION     NA49440   2.882  15.850  14.471 -0.1093 -0.0130 -0.2308
32594ION     NA49441   2.986  14.840   5.953 -0.0182 -0.1253  0.2282
32595ION     NA49442   2.617  17.497   5.703  0.1816  0.0091 -0.0811
32596ION     NA49443   2.376  15.267   5.551  0.1388 -0.0238  0.1021
32597ION     NA49444  13.532  10.476   1.966  0.1559 -0.1102  0.1969
32598ION     NA49445   6.038  15.481  12.736 -0.0540 -0.1085  0.3436
32599ION     NA49446   0.791   3.167  10.131 -0.0641  0.1670 -0.0334
32600ION     NA49447   7.971  13.363   2.746  0.0680 -0.2856  0.0989
32601ION     NA49448   5.954  13.398  15.313  0.1705  0.2637 -0.1016
32602ION     NA49449   1.525   0.288  14.361 -0.1818 -0.1158 -0.1594
32603ION     NA49450   8.588   1.199  14.978 -0.1647 -0.0228  0.0686
32604ION     NA49451   1.724  15.653  10.192 -0.0394 -0.0077 -0.2263
32605ION     NA49452  12.953   2.840  10.098  0.2744 -0.2015 -0.0246
32606ION     NA49453  11.733   2.419   9.923  0.0557  0.2190 -0.3623
32607ION     NA49454  11.253  15.347   5.647 -0.0498 -0.0080 -0.0872
32608ION     NA49455   6.807  16.670   9.866  0.1755  0.0647  0.0327
32609ION     NA49456  15.240   9.357   5.518  0.1034 -0.0964 -0.0170
32610ION     NA49457   7.217   5.203   4.534  0.0929 -0.2018 -0.0334
32611ION     NA49458  16.087  16.417   5.959 -0.1515 -0.1140 -0.1941
32612ION     NA49459  16.890   9.048   3.772  0.0759  0.1623  0.1638
32613ION     NA49460  15.420  11.211  10.481  0.1782  0.4279  0.0803
32614ION     NA49461  13.678   4.720   1.980 -0.1861 -0.1858 -0.2316
32615ION     NA49462   3.135  12.782  10.790 -0.0741 -0.1652 -0.0381
32616ION     NA49463   8.385  11.302   5.576  0.0171  0.1734 -0.2099
32617ION     NA49464   5.874   1.534  11.867  0.2158 -0.2327 -0.0457
32618ION     NA49465   8.536  18.506  15.609 -0.0812 -0.0325 -0.1925
32619ION     NA49466   6.415  16.542   1.912 -0.0130 -0.3076  0.0122
32620ION     NA49467   0.088  18.307  13.968 -0.3130 -0.0911 -0.0568
32621ION     NA49468  14.121   1.826   3.865  0.2373 -0.2956 -0.2459
32622ION     NA49469  11.360  17.854   0.189 -0.1183 -0.2744 -0.1002
32623ION     NA49470   9.567  10.791  10.983 -0.2051  0.1262  0.2908
32624ION     NA49471  12.269   4.530  10.067 -0.0664  0.0662  0.1132
32625ION     NA49472   1.135   9.978   6.195  0.0040 -0.2915  0.3033
32626ION     NA49473   8.557   6.069   5.747 -0.0155  0.2273 -0.0736
32627ION     NA49474  14.487   8.572   5.517  0.0852 -0.1266 -0.2511
32628ION     NA49475  15.791  16.283   3.975 -0.0882 -0.2227  0.0872
32629ION     NA49476   6.739   4.446   1.080 -0.1134 -0.1893 -0.0795
32630ION     NA49477  12.475   2.013   0.566 -0.0735  0.0523 -0.0219
32631ION     NA49478  10.702  17.374   0.643  0.1330  0.0742  0.1715
32632ION     NA49479  14.090  10.818   2.738 -0.4616 -0.0413 -0.0924
32633ION     NA49480   5.969  13.605  10.608 -0.1040  0.2169  0.1322
32634ION     NA49481  13.093   1.582  12.538 -0.0766  0.2142 -0.0142
32635ION     NA49482  11.098   9.519  10.048 -0.2238 -0.1700 -0.0428
32636ION     NA49483   5.374  18.328  10.063  0.2091  0.0756  0.0799
32637ION     NA49484   8.314   8.398   1.249 -0.0176  0.0098  0.0435
32638ION     NA49485  16.934   5.893   5.453 -0.0186  0.2440  0.0699
32639ION     NA49486  10.274  15.227   5.838 -0.1407 -0.1410 -0.1859
32640ION     NA49487  14.807   6.220   1.213 -0.3047 -0.1375  0.2060
32641ION     NA49488  16.583  10.147   0.129 -0.0965  0.2859  0.1824
32642ION     NA49489  18.498  17.118  10.743 -0.1406 -0.1598 -0.2778
32643ION     NA49490   3.204  16.567   9.912 -0.0256  0.0705 -0.2313
32644ION     NA49491   9.044   2.646  14.053 -0.0302 -0.1421  0.0861
32645ION     NA49492   2.330   7.440  11.289  0.1212  0.2203 -0.2455
32646ION     NA49493  11.612  16.478   5.629 -0.0487 -0.0685  0.0343
32647ION     NA49494  15.604  12.623   5.626  0.0256 -0.0821  0.0982
32648ION     NA49495   7.481  17.916   0.128  0.1472  0.1359 -0.0293
32649ION     NA49496   6.074  12.193  15.536 -0.0316 -0.3044 -0.0057
32650ION     NA49497   2.304   7.765   2.062 -0.0688  0.2086  0.0997
32651ION     NA49498   6.591   0.691  15.877 -0.1596 -0.2975  0.2098
32652ION     NA49499   7.725   7.459   5.904 -0.0361 -0.0188  0.0569
32653ION     NA49500   0.557   0.620   1.772 -0.3143  0.1742 -0.0809
32654ION     NA49501   5.291   8.822   3.876 -0.1735 -0.2455 -0.1510
32655ION     NA49502  18.474  11.847   5.686 -0.1676 -0.1086  0.4371
32656ION     NA49503  10.760  11.040  10.419  0.0968  0.1976 -0.0526
32657ION     NA49504   3.546   9.712  10.473 -0.0653 -0.0050 -0.1798
32658ION     NA49505   7.048   0.487  15.104  0.0951  0.0770  0.1926
32659ION     NA49506  16.384   0.177  11.844  0.1553  0.2721 -0.3010
32660ION     NA49507  14.101   6.906   5.768  0.1014 -0.1610 -0.0279
32661ION     NA49508  11.738  12.864   4.054  0.0203  0.2535 -0.0140
32662ION     NA49509  12.006  10.343  13.997 -0.3068  0.0688 -0.0291
32663ION     NA49510   9.044  12.876   5.938 -0.1166 -0.0979 -0.2702
32664ION     NA49511   4.203  14.482  11.787  0.4393 -0.0934  0.0245
32665ION     NA49512   3.113   4.024  10.886  0.3315  0.0078  0.1402
32666ION     NA49513   7.022  16.079  11.791  0.2178 -0.0395  0.1894
32667ION     NA49514  10.092  18.072   9.968 -0.1353  0.4759  0.2562
32668ION     NA49515  14.931   9.185   0.169 -0.0567  0.0321 -0.1827
32669ION     NA49516   4.809   9.314   3.078  0.1559  0.2027 -0.0092
32670ION     NA49517  12.413  16.007   5.679  0.0336 -0.0824  0.0777
32671ION     NA49518   5.181   5.532  12.461 -0.1385  0.0913 -0.1798
32672ION     NA49519  17.234   8.821  10.372  0.3572 -0.2083 -0.2815
32673ION     NA49520   8.170   6.655  13.725 -0.0234 -0.1165 -0.2739
32674ION     NA49521  17.153   5.958  11.702 -0.2460  0.1072  0.1587
32675ION     NA49522   0.905  13.057  10.771  0.4641  0.1825 -0.0931
32676ION     NA49523   7.139  11.289   4.086 -0.0487  0.0674  0.2242
32677ION     NA49524   5.617   4.128   3.647 -0.0002 -0.3421 -0.2517
32678ION     NA49525   3.861   3.365   1.273 -0.2758  0.1404  0.0239
32679ION     NA49526   9.617   3.132   4.893  0.2760 -0.2395  0.0634
32680ION     NA49527  15.130   4.173   5.289 -0.3292  0.1731  0.0912
32681ION     NA49528  12.999   8.748  10.310  0.2483 -0.1090  0.0432
32682ION     NA49529   0.125   7.879   2.783  0.2657 -0.1622 -0.0555
32683ION     NA49530   4.916  10.587   2.847  0.1078 -0.0708 -0.1385
32684ION     NA49531   9.780  16.616   1.973 -0.0454  0.0284 -0.0030
32685ION     NA49532   5.359   6.826  12.468  0.1561  0.0114 -0.3819
32686ION     NA49533   3.621   8.469  10.484  0.0845 -0.0968  0.0260
32687ION     NA49534  13.168   2.175   5.507 -0.1254 -0.2493  0.2959
32688ION     NA49535  12.655   9.078  12.638  0.0671 -0.0814 -0.3073
32689ION     NA49536   0.123   4.032  11.813 -0.0209 -0.2205 -0.2370
32690ION     NA49537  16.267   3.500  15.926 -0.1324  0.1646 -0.0668
32691ION     NA49538   0.599  15.379   0.821 -0.0201  0.0542 -0.1640
32692ION     NA49539  10.281  14.816  10.719  0.2095  0.3599 -0.0587
32693ION     NA49540   4.751  12.798   3.094  0.3441  0.2318 -0.1040
32694ION     NA49541   0.861   9.287   5.598  0.0969 -0.1923 -0.1377
32695ION     NA49542  15.027  10.298  14.121  0.2841 -0.0028 -0.1263
32696ION     NA49543   6.382   0.205   3.352 -0.0338  0.0907  0.1879
32697ION     NA49544  12.157   3.964  13.355  0.0501  0.0304  0.0660
32698ION     NA49545   0.728  16.288   3.438 -0.0038 -0.1489 -0.2083
32699ION     NA49546   6.082   9.831  11.128  0.0173 -0.0448 -0.0004
32700ION     NA49547  11.609   8.558   3.417 -0.1605 -0.4113  0.2650
32701ION     NA49548  11.542   7.495   2.718 -0.0316 -0.1856  0.2484
32702ION     NA49549  15.338   1.706   1.955 -0.0328 -0.0210  0.1298
32703ION     NA49550   9.994  10.233  12.314 -0.1552  0.1800  0.1812
32704ION     NA49551   1.717  14.884   4.554  0.0530 -0.0048 -0.1360
32705ION     NA49552  17.500   0.901   2.986  0.0276  0.1843 -0.1048
32706ION     NA49553  11.612  13.700  11.156  0.3178  0.2584  0.3951
32707ION     NA49554  11.941   6.446  13.280  0.0733 -0.2402  0.1816
32708ION     NA49555  13.843   1.317  15.064 -0.0067 -0.2428 -0.1588
32709ION     NA49556  11.122  11.965   2.673 -0.0426  0.0013  0.4138
32710ION     NA49557  18.346   8.608  10.713  0.0984  0.1149 -0.1738
32711ION     NA49558  13.508   5.772  13.289  0.0068 -0.3464  0.0144
32712ION     NA49559   5.540   0.638   0.899  0.2080 -0.0385  0.3750
32713ION     NA49560   0.927  16.583   5.950  0.2590  0.0313  0.1228
32714ION     NA49561   4.339   1.676  10.018  0.2783 -0.2371  0.0078
32715ION     NA49562  11.215   1.256   2.361 -0.0255  0.0836 -0.2882
32716ION     NA49563   0.023  18.402  10.684  0.2387  0.0128 -0.1526
32717ION     NA49564   8.220   4.692  10.072 -0.2702 -0.1112 -0.2416
32718ION     NA49565  15.593   9.632   1.199 -0.1209  0.1081 -0.0194
32719ION     NA49566  11.095  14.120   3.690 -0.2838  0.0634  0.1070
32720ION     NA49567  17.995   1.324  12.371 -0.4705  0.0649 -0.2131
32721ION     NA49568  13.278   7.985   5.060 -0.1905  0.1716 -0.1942
32722ION     NA49569  17.009   3.696   1.228 -0.3044  0.1366  0.4089
32723ION     NA49570  15.664  11.854  15.724 -0.2168  0.2094 -0.0288
32724ION     NA49571  17.612  13.177   5.446 -0.1853 -0.0276  0.0871
32725ION     NA49572   9.541   3.473   3.807  0.0539 -0.0423  0.0569
32726ION     NA49573  18.300   6.868  13.892 -0.1027  0.3740 -0.0368
32727ION     NA49574  17.911  12.431  13.338  0.2061 -0.0149 -0.3003
32728ION     NA49575  14.586  15.871  13.644  0.1251  0.0128 -0.1167
32729ION     NA49576  17.591   9.448  15.138  0.2870 -0.0910  0.0526
32730ION     NA49577   5.843   5.969  15.868 -0.2030 -0.2413 -0.2736
32731ION     NA49578  14.065   7.173  12.675  0.2835  0.1201  0.0802
32732ION     NA49579   2.214  18.012  12.384 -0.1485  0.0927 -0.2632
32733ION     NA49580  14.330   0.896   5.867 -0.1161 -0.1929  0.3242
32734ION     NA49581   2.509   8.105  12.907  0.4270  0.2945 -0.1137
32735ION     NA49582   8.472   8.663   2.138  0.1421  0.0856 -0.0106
32736ION     NA49583  12.397   9.810   3.919  0.0329  0.0661 -0.5492
32737ION     NA49584  12.209  13.088   5.092 -0.2163  0.1905  0.1736
32738ION     NA49585  10.701   8.132   9.968  0.0573 -0.2042  0.1120
32739ION     NA49586  11.360   7.119   0.847  0.0718  0.0814 -0.0592
32740ION     NA49587   0.491  11.103  10.719 -0.0467 -0.0366 -0.0394
32741ION     NA49588   4.201  14.930  10.542 -0.2708 -0.0781  0.2539
32742ION     NA49589   1.719   9.378  10.965  0.1826 -0.0165 -0.1467
32743ION     NA49590   2.138   7.689   3.478 -0.3207 -0.0504 -0.0880
32744ION     NA49591  10.463  18.302  13.883 -0.0067  0.0433  0.0871
32745ION     NA49592  13.798   5.585   9.797 -0.0723  0.1967 -0.0685
32746ION     NA49593   8.078   9.329   1.505 -0.1473 -0.1043  0.1183
32747ION     NA49594   2.142  10.789   0.060 -0.0670 -0.1031 -0.4733
32748ION     NA49595  17.138  14.196   4.819  0.0437  0.1252  0.1190
32749ION     NA49596   0.520   7.773   4.023 -0.4079  0.1364  0.0010
32750ION     NA49597   1.610  11.514  13.839 -0.0169 -0.0688 -0.0360
32751ION     NA49598  16.833  14.489  13.511 -0.3277  0.0494 -0.1489
32752ION     NA49599   9.516   1.025   1.506  0.1288  0.1913 -0.0022
32753ION     NA49600   1.047  11.882  10.717 -0.1516 -0.1554  0.1767
32754ION     NA49601  16.251   4.162  14.603  0.1722  0.2576 -0.1684
32755ION     NA49602   8.976  13.242  12.368 -0.0600 -0.0041 -0.0477
32756ION     NA49603  17.368  12.780  10.374  0.1133  0.0003 -0.0752
32757ION     NA49604   5.961   9.870  13.042 -0.0007  0.2391  0.0852
32758ION     NA49605   6.301   0.786   5.675  0.2948  0.1989 -0.1077
32759ION     NA49606  12.605   5.258   2.738  0.2217 -0.1590 -0.2417
32760ION     NA49607   9.432   8.862  10.418  0.2199 -0.0026  0.0450
32761ION     NA49608   7.506  14.592  11.716  0.1136 -0.0212  0.0342
32762ION     NA49609   1.091   7.329   0.208 -0.4063  0.0427  0.1476
32763ION     NA49610   0.635   7.295  10.489 -0.0357  0.2124  0.0141
32764ION     NA49611   1.356  11.551   0.835  0.0088  0.0111  0.0068
32765ION     NA49612   2.429  16.555   6.192 -0.0915 -0.3055 -0.0151
32766ION     NA49613   6.636  18.222   4.536 -0.2230  0.1006  0.0612
32767ION     NA49614   3.952  17.722  10.261  0.0201  0.1848  0.1772
32768ION     NA49615   5.808   4.642  10.196 -0.2399 -0.1722 -0.0775
32769ION     NA49616   5.145   0.405   2.104 -0.2380  0.2501 -0.1789
32770ION     NA49617   6.515   1.536   1.414 -0.3653  0.0583  0.0411
32771ION     NA49618  13.404   8.009   5.594  0.1716  0.2816  0.1343
32772ION     NA49619   3.806  14.948   5.697 -0.4461 -0.0458  0.0690
32773ION     NA49620   1.499  11.308   5.536 -0.3937 -0.1541  0.5012
32774ION     NA49621  13.713  12.612   3.817 -0.0400 -0.2310 -0.4132
32775ION     NA49622   3.109   2.604   5.579  0.1362  0.5272  0.2031
32776ION     NA49623  14.158   2.075   3.057  0.0883 -0.0985  0.1343
32777ION     NA49624   4.999   4.868   5.110  0.1373 -0.1389  0.0753
32778ION     NA49625   0.579   2.345   5.818 -0.0508  0.4660 -0.2180
32779ION     NA49626   5.315   2.614  15.075  0.0552 -0.0933 -0.2808
32780ION     NA49627   1.409  12.141   3.267  0.1269 -0.1483 -0.0007
32781ION     NA49628  17.235  13.022  11.310 -0.1201 -0.1962 -0.1745
32782ION     NA49629   6.606   6.851  10.287  0.0624 -0.0087 -0.0199
32783ION     NA49630  14.053   1.105  10.179  0.0276  0.1691  0.1441
32784ION     NA49631   5.904  11.368   6.117  0.0797 -0.1029 -0.3052
32785ION     NA49632   1.852   1.218   5.971 -0.1947 -0.1695 -0.5295
32786ION     NA49633   4.261  13.580  15.441  0.2369 -0.0959  0.0847
32787ION     NA49634  15.065   6.156   5.758  0.2479 -0.5084 -0.1571
32788ION     NA49635  14.287   6.852  10.153  0.0744 -0.0384 -0.2684
32789ION     NA49636  13.318   3.939   5.413 -0.0837 -0.1141  0.2329
32790ION     NA49637   9.702  18.217   2.699 -0.0049  0.1025 -0.2380
32791ION     NA49638   5.881   0.098   1.663 -0.0438 -0.2574  0.0694
32792ION     NA49639  13.639  14.313  15.887 -0.1533  0.0748  0.0726
32793ION     NA49640   4.594   6.335  10.384 -0.2509  0.0328 -0.0563
32794ION     NA49641  18.238  10.978  15.837  0.0933  0.1716 -0.2041
32795ION     NA49642   9.993  13.864   4.086 -0.1286 -0.0934  0.1663
32796ION     NA49643   2.915   3.381  10.184  0.0719 -0.0519  0.0182
32797ION     NA49644   6.827   4.773   3.032 -0.0689 -0.0036  0.1526
32798ION     NA49645   6.348   2.450   3.438  0.2750  0.0169 -0.1266
32799ION     NA49646  13.800   0.772   2.651 -0.0716  0.1028 -0.3946
32800ION     NA49647  14.521   9.070  13.938 -0.1701 -0.2111 -0.0435
32801ION     NA49648   1.655  10.111   4.280 -0.2984  0.0705 -0.1562
32802ION     NA49649   4.482   2.223  15.826  0.0898 -0.0347  0.3974
32803ION     NA49650  13.599  16.519   1.333 -0.3740  0.3092  0.0787
32804ION     NA49651   2.479  12.224   5.766  0.1204  0.0072 -0.1367
32805ION     NA49652  14.694  12.497   5.677  0.0636  0.1312 -0.0310
32806ION     NA49653   4.155  16.335  10.194 -0.1783  0.0659  0.2107
32807ION     NA49654   8.670   6.512   4.362  0.2417  0.0125  0.0277
32808ION     NA49655  11.412  16.988   2.827 -0.4022  0.2785  0.1048
32809ION     NA49656   3.839   4.744   5.533  0.0046  0.0854  0.0397
32810ION     NA49657   8.282  12.317   5.543 -0.0988 -0.1621 -0.0708
32811ION     NA49658  16.828  12.544   2.432  0.0236  0.2428  0.3604
32812ION     NA49659   3.427   4.742   2.908 -0.0147 -0.1929  0.2333
32813ION     NA49660   3.772  16.159  14.277  0.2381 -0.1846 -0.2359
32814ION     NA49661  15.475   4.499   3.136  0.0284 -0.1121 -0.2305
32815ION     NA49662   8.843  13.902  15.078  0.1467 -0.1726 -0.0549
32816ION     NA49663  16.739   3.241   3.042  0.1574  0.0782  0.2551
32817ION     NA49664   1.179  13.535   1.528 -0.1737  0.0340 -0.0180
32818ION     NA49665   7.583   9.084  10.327 -0.0690  0.0347 -0.2471
32819ION     NA49666  15.595   0.262  10.709 -0.1328  0.2461  0.3843
32820ION     NA49667   7.299  17.908   1.276 -0.1511 -0.1151  0.0159
32821ION     NA49668  11.800   3.031   0.280  0.4134 -0.1236 -0.1951
32822ION     NA49669  18.325   4.808  12.481 -0.0758  0.0149  0.0221
32823ION     NA49670  15.422  15.740   5.611  0.0006 -0.2076 -0.0617
32824ION     NA49671  12.243   6.033   1.197  0.0510 -0.1014 -0.0511
32825ION     NA49672  14.793   8.495  10.137 -0.1275 -0.0517  0.0011
32826ION     NA49673  13.033   0.127   4.743 -0.0701 -0.0456  0.2462
32827ION     NA49674   4.020   5.536  14.390  0.0655 -0.0012  0.0265
32828ION     NA49675   8.314  15.749   5.484 -0.0653 -0.1576 -0.1798
32829ION     NA49676  13.584  15.788  14.375  0.0179  0.0439 -0.1027
32830ION     NA49677   8.707  17.296   2.593 -0.3952 -0.0789 -0.0657
32831ION     NA49678  11.465  11.426   5.238 -0.1378  0.2325  0.0716
32832ION     NA49679  15.420   5.391  10.222  0.1890 -0.0581 -0.0920
32833ION     NA49680   4.863  12.223   5.753  0.0148 -0.2050  0.0994
32834ION     NA49681  11.043   4.282   9.830  0.0789  0.0765 -0.1398
32835ION     NA49682  10.728   5.822  13.917 -0.2061 -0.0126  0.2329
32836ION     NA49683  16.633  11.690  15.078  0.2655 -0.0090 -0.0315
32837ION     NA49684  10.604   2.883  15.795 -0.1226 -0.1009 -0.1213
32838ION     NA49685   4.821   2.331   5.931 -0.0642  0.2325  0.0832
32839ION     NA49686  13.488  12.950   5.789 -0.0432 -0.1004 -0.0822
32840ION     NA49687  16.354  17.254  14.671  0.2626 -0.0738 -0.1008
32841ION     NA49688  14.898  10.373   2.369 -0.2082  0.0792  0.2138
32842ION     NA49689   5.088   4.068  14.283 -0.2361 -0.1233  0.1577
32843ION     NA49690  15.472   5.450   5.766  0.2488  0.0084 -0.2005
32844ION     NA49691  18.030  10.192   2.942  0.2271 -0.1544 -0.1400
32845ION     NA49692  14.292   7.308   4.154  0.0840 -0.2144 -0.3137
32846ION     NA49693   3.513   6.304  15.937 -0.0447 -0.4683 -0.0188
32847ION     NA49694  17.650   9.640  14.301  0.2205  0.0739  0.0494
32848ION     NA49695   6.467   2.597  15.504 -0.0876  0.1191  0.4087
32849ION     NA49696  16.677   3.743   5.711 -0.0759 -0.4430 -0.0713
32850ION     NA49697  13.794   0.258  15.921 -0.0638  0.1634  0.1988
32851ION     NA49698   4.544  18.320  10.192  0.0686  0.2196 -0.0295
32852ION     NA49699   3.509  11.689   3.182 -0.1039  0.2031 -0.0315
32853ION     NA49700  14.415   5.917  13.681  0.2565 -0.2319  0.0457
32854ION     NA49701   2.748  16.018  15.710  0.1861 -0.3749 -0.1510
32855ION     NA49702  18.522  16.747   0.965 -0.1218 -0.0664 -0.1105
32856ION     NA49703   3.045   0.943  15.257  0.0217  0.0507 -0.0398
32857ION     NA49704   5.143   4.461  12.858 -0.2199 -0.2023  0.1412
32858ION     NA49705  14.094   9.558  10.340 -0.1678 -0.0451  0.1994
32859ION     NA49706   8.704   9.742  15.767  0.0693  0.1319  0.0474
32860ION     NA49707  11.085  17.123  13.641  0.1193 -0.2661 -0.1625
32861ION     NA49708   9.156   9.234   5.689  0.0718  0.3694  0.1870
32862ION     NA49709   2.838   8.502   5.932 -0.3519 -0.2430 -0.1569
32863ION     NA49710  10.478   8.898   3.592 -0.2359  0.1312 -0.0144
32864ION     NA49711  14.982  11.039   5.818 -0.1955  0.3083 -0.0737
32865ION     NA49712  15.374  16.203  12.462 -0.0156  0.0118 -0.2818
32866ION     NA49713   6.343   8.496  10.518  0.1685  0.1401  0.0570
32867ION     NA49714   5.359  15.930  13.369  0.0655 -0.2823  0.2268
32868ION     NA49715   7.493   2.085   4.060  0.0290  0.2140 -0.0055
32869ION     NA49716  10.303   4.141   5.410 -0.0046 -0.0546 -0.0188
32870ION     NA49717   3.099   9.391   6.045  0.4045 -0.0214 -0.3728
32871ION     NA49718   2.489  13.180   1.863 -0.0501  0.0733 -0.2459
32872ION     NA49719   3.482  11.670   5.501 -0.0571 -0.0146  0.1171
32873ION     NA49720   5.355   3.876   5.729 -0.0997 -0.0084  0.0550
32874ION     NA49721  17.596  11.850   2.523  0.1886  0.0798 -0.2598
32875ION     NA49722   1.871   8.376  10.515 -0.0093 -0.2128 -0.0555
32876ION     NA49723  10.259  10.722   3.815  0.0941 -0.2650 -0.3150
32877ION     NA49724   3.065   5.593  14.499 -0.0732 -0.2678 -0.1807
32878ION     NA49725   7.848  18.446  10.127 -0.0812  0.2054 -0.0061
32879ION     NA49726   9.481  10.501  14.229  0.2277  0.0250  0.1167
32880ION     NA49727  17.531   0.645   0.438  0.1541  0.1449  0.3389
32881ION     NA49728  10.501   9.567   5.234  0.0083 -0.1882  0.0096
32882ION     NA49729  17.339  18.218  14.772  0.0194  0.4487  0.1709
32883ION     NA49730  12.997   1.228  13.772  0.3146  0.3421 -0.1706
32884ION     NA49731   8.118   7.297   5.625 -0.1156 -0.2098  0.2065
32885ION     NA49732   6.060   0.145   5.938  0.2734 -0.1479 -0.0584
32886ION     NA49733  12.307   3.081  12.188 -0.0366 -0.1508 -0.1924
32887ION     NA49734  12.301  15.107  10.403  0.2708 -0.4369 -0.3268
32888ION     NA49735   3.663   0.842   5.542 -0.0782  0.0010  0.1191
32889ION     NA49736   7.788  17.734  15.135 -0.1230 -0.0512 -0.1210
32890ION     NA49737   0.368   5.182  10.112 -0.0397  0.0451 -0.1985
32891ION     NA49738   1.572  14.102   0.182 -0.1830  0.0605 -0.3130
32892ION     NA49739  15.481  11.652   6.013  0.0569  0.0816 -0.1497
32893ION     NA49740   7.592  16.312  10.255 -0.1631 -0.0426  0.2583
32894ION     NA49741  15.951  12.174   4.581  0.0540  0.3328 -0.0683
32895ION     NA49742   5.103  11.097   5.906  0.1798 -0.4794  0.0751
32896ION     NA49743  10.098   9.859  10.129 -0.0891  0.0647 -0.1331
32897ION     NA49744  12.960  13.675  14.810 -0.0663 -0.0448  0.1702
32898ION     NA49745  15.087   0.656   5.700 -0.4302 -0.1088  0.1077
32899ION     NA49746  12.067   6.931   9.993 -0.3582  0.4405  0.0542
32900ION     NA49747   6.103   2.890  10.377 -0.0682 -0.1559 -0.1044
32901ION     NA49748  16.825   3.514  15.030 -0.2555 -0.0944 -0.0633
32902ION     NA49749   9.507   0.292  14.147 -0.5072 -0.2268 -0.0173
32903ION     NA49750   8.629  15.333  13.020 -0.1411 -0.0200 -0.2625
32904ION     NA49751   9.694  10.227   5.191  0.1347  0.0551 -0.1348
32905ION     NA49752   3.297   2.952   2.737  0.0098 -0.2132  0.0208
32906ION     NA49753  11.988   0.274   5.356  0.1441  0.0233 -0.0708
32907ION     NA49754  12.072  17.016  10.091  0.1244  0.0213 -0.0642
32908ION     NA49755   8.690  18.424   5.599 -0.1373 -0.0151 -0.3353
32909ION     NA49756   9.605   6.140  12.561 -0.2278  0.0518 -0.0200
32910ION     NA49757  13.119   0.854  15.229 -0.7170  0.1112  0.0515
32911ION     NA49758   3.748   7.762   4.370  0.1688 -0.0414  0.0670
32912ION     NA49759   5.496   9.192   5.653  0.1547 -0.0443 -0.1462
32913ION     NA49760  12.887   7.632   3.406  0.0667 -0.0563  0.0834
32914ION     NA49761   5.152   1.371  10.505  0.0697  0.0725 -0.0657
32915ION     NA49762  14.263   2.227  15.921 -0.0615  0.1040  0.1720
32916ION     NA49763  10.412   1.065  14.236  0.1469 -0.0478  0.1386
32917ION     NA49764  12.356   5.529  11.504 -0.0379 -0.0725  0.1259
32918ION     NA49765  14.771   1.373  14.473 -0.1701  0.1006  0.1661
32919ION     NA49766  18.215   7.598   3.451 -0.1208 -0.2257  0.0479
32920ION     NA49767  11.913   1.789   3.797  0.1820  0.1684 -0.0642
32921ION     NA49768   1.914   4.951  15.031  0.1496  0.3453 -0.1453
32922ION     NA49769   6.604  14.861  10.437 -0.1277  0.0316  0.0124
32923ION     NA49770   7.942  12.832   2.034  0.1014 -0.3013  0.1013
32924ION     NA49771   6.303  12.604   1.636  0.0874  0.4112 -0.0930
32925ION     NA49772   4.810  18.446   5.618  0.2542  0.1772  0.2673
32926ION     NA49773  11.022   3.457   5.016 -0.1655  0.1751  0.4053
32927ION     NA49774  16.607  13.050  14.891  0.2063 -0.0914 -0.3296
32928ION     NA49775   9.209  12.308  14.313  0.0460  0.1300  0.1848
32929ION     NA49776  11.953   0.145  15.222  0.2151 -0.1911  0.0177
32930ION     NA49777  16.444   3.263  10.255 -0.2032 -0.2463  0.1293
32931ION     NA49778   9.544  16.171  10.570 -0.0193  0.0613 -0.1532
32932ION     NA49779   3.614  13.190  10.734 -0.1989  0.0326 -0.1770
32933ION     NA49780   4.557  12.293  14.966 -0.0114 -0.1800  0.2401
32934ION     NA49781  10.887  12.667   0.764  0.2102 -0.2272 -0.2451
32935ION     NA49782  13.446   7.193  14.684 -0.2579  0.0314  0.1963
32936ION     NA49783   4.976   0.113  15.502 -0.5067  0.3014  0.0306
32937ION     NA49784  18.508  14.659  14.650 -0.2779 -0.4016 -0.0707
32938ION     NA49785  14.703   7.403   2.913  0.1565  0.0302 -0.2309
32939ION     NA49786  15.924   0.728   2.407 -0.0854 -0.0501 -0.2079
32940ION     NA49787   4.109   2.460   2.225 -0.0278 -0.0525 -0.1162
32941ION     NA49788  14.360   8.306  11.457  0.0480  0.1238 -0.0563
32942ION     NA49789  15.502   6.100   2.741 -0.0319 -0.0541 -0.0287
32943ION     NA49790  11.220  18.478   5.634 -0.1182 -0.1540  0.1581
32944ION     NA49791   5.026   9.239   0.367 -0.0412 -0.1840 -0.0264
32945ION     NA49792  14.090  13.006   1.662  0.0915  0.0922  0.1518
32946ION     NA49793   9.773   4.345   5.471  0.0805 -0.2397 -0.0833
32947ION     NA49794   5.641  18.119   2.501 -0.0838 -0.0227  0.0347
32948ION     NA49795   3.832  10.107  15.862  0.2878 -0.1133 -0.0893
32949ION     NA49796   0.834   6.668   5.667 -0.3592 -0.0475  0.2909
32950ION     NA49797  16.614   9.215  15.272 -0.0936 -0.1323  0.2811
32951ION     NA49798   3.756   4.029  14.481  0.1456  0.2004  0.4777
32952ION     NA49799   4.350   2.750  10.220  0.4319 -0.2502 -0.1115
32953ION     NA49800  11.041   0.753  15.500  0.3456  0.0372 -0.3464
32954ION     NA49801  13.781   3.439  10.261 -0.2308  0.4531  0.3728
32955ION     NA49802   5.216   2.222  10.353 -0.1746  0.0605  0.0358
32956ION     NA49803   3.996   8.327  10.730  0.1815  0.0877  0.2074
32957ION     NA49804  13.820  10.724  14.876  0.0022  0.1631  0.1522
32958ION     NA49805   8.761   1.555   9.918  0.0975  0.2943  0.0431
32959ION     NA49806   6.546   9.883  12.389 -0.0081 -0.0973  0.1914
32960ION     NA49807   7.578  11.577  10.355  0.1159 -0.2174 -0.0331
32961ION     NA49808   9.293  17.224   0.758 -0.0426  0.1574  0.2410
32962ION     NA49809   2.996  10.220   6.149 -0.0357 -0.1497 -0.1854
32963ION     NA49810  14.923  11.229  11.333  0.1619 -0.1247 -0.0469
32964ION     NA49811   3.371   8.994  13.332  0.1273  0.1787  0.2326
32965ION     NA49812   0.576   7.585  13.954  0.2252 -0.0419  0.1069
32966ION     NA49813   4.689   4.265   0.281  0.3657  0.0059 -0.0831
32967ION     NA49814   2.902  17.624   0.310 -0.0172 -0.3997 -0.1259
32968ION     NA49815   5.180   5.547  10.258  0.1112 -0.1741  0.0340
32969ION     NA49816   8.784  11.119  10.784 -0.0051 -0.0739  0.1224
32970ION     NA49817  16.550  16.676   3.942 -0.2259 -0.0205  0.0148
32971ION     NA49818   6.789  10.315   4.297  0.3000 -0.0601  0.2013
32972ION     NA49819   7.052   2.206   2.849  0.0905 -0.2057 -0.0278
32973ION     NA49820   7.040   4.115   1.843 -0.2954 -0.0481  0.0060
32974ION     NA49821  17.839  10.795  10.561  0.2107  0.1135  0.4042
32975ION     NA49822   7.802   1.649  15.096  0.0152  0.3005 -0.0432
32976ION     NA49823  12.661   6.940   9.668  0.2959 -0.2543  0.1837
32977ION     NA49824   1.692  10.299   5.481 -0.2095 -0.1054 -0.0449
32978ION     NA49825   0.540   9.928   4.964  0.3360  0.0167 -0.0760
32979ION     NA49826   2.565  15.832   2.101 -0.1301 -0.3563  0.2338
32980ION     NA49827  12.790   1.526   4.271 -0.0035 -0.1019 -0.0318
32981ION     NA49828  11.404  14.712  10.545  0.1041 -0.0209 -0.0112
32982ION     NA49829   6.286   9.275  10.273  0.1159  0.1528 -0.0243
32983ION     NA49830   9.681   4.852   5.458 -0.2419  0.0803 -0.1834
32984ION     NA49831   8.356   8.323   5.762 -0.3440 -0.1980 -0.1607
32985ION     NA49832   9.730   2.489   1.761  0.2280 -0.1343 -0.0263
32986ION     NA49833  12.253  14.975   5.954  0.1669  0.0160 -0.1759
32987ION     NA49834  17.185   2.291  13.765  0.0287  0.3878 -0.0443
32988ION     NA49835   0.283  13.224   4.875 -0.1786  0.0435 -0.3122
32989ION     NA49836   1.761  12.091  11.420  0.1744 -0.0285  0.0413
32990ION     NA49837   3.919   0.552  10.115 -0.1253 -0.1668 -0.1198
32991ION     NA49838  16.734   6.079  10.489 -0.4074 -0.0156  0.2946
32992ION     NA49839   1.210   5.835   2.045  0.2849  0.0852  0.0744
32993ION     NA49840   8.057  15.394  10.556 -0.1374 -0.2684 -0.2024
32994ION     NA49841   8.299  10.239  10.912  0.1550  0.6520  0.0438
32995ION     NA49842   9.403  12.991   5.028  0.1972  0.0328 -0.0361
32996ION     NA49843   8.554  12.272   1.161  0.0316 -0.0782  0.1017
32997ION     NA49844  17.582  17.019   0.098  0.0500 -0.1985 -0.1925
32998ION     NA49845  10.002   6.934   9.880 -0.2997 -0.2311 -0.1370
32999ION     NA49846  11.599  11.430  10.649  0.0863  0.0225 -0.0811
33000ION     NA49847   0.195  18.151   5.662  0.1121  0.0172 -0.1670
33001ION     NA49848   8.483  12.551   2.702  0.1273  0.3332  0.0218
33002ION     NA49849   9.592   0.576   2.633  0.2513  0.3771  0.4490
33003ION     NA49850   3.870   9.755   5.852 -0.0329 -0.0869 -0.2570
33004ION     NA49851  13.274  11.645  12.566  0.1574 -0.1554  0.4144
33005ION     NA49852  14.144  10.514   3.926  0.0528  0.2018 -0.0870
33006ION     NA49853   2.623   6.190   3.559  0.1902 -0.4497 -0.3934
33007ION     NA49854   3.875   4.120  10.370  0.1195  0.0955 -0.1095
33008ION     NA49855  14.617  17.802  10.520 -0.0142 -0.2398 -0.1894
33009ION     NA49856   6.404   0.361  14.291 -0.2183 -0.2842  0.0032
33010ION     NA49857   6.907   8.988   5.767 -0.0974  0.1388  0.1921
33011ION     NA49858   0.305  14.577   1.527  0.0622 -0.0220 -0.2056
33012ION     NA49859  14.772   7.776  10.170  0.0958 -0.0585  0.0360
33013ION     NA49860   4.360  12.325   4.386  0.0932  0.0054 -0.1129
33014ION     NA49861  16.882  15.117  10.601 -0.0175 -0.0805 -0.1885
33015ION     NA49862   2.955   2.559  10.541 -0.1615  0.2246 -0.0458
33016ION     NA49863   5.464   8.802   1.135 -0.1132 -0.2112 -0.1264
33017ION     NA49864  12.594  11.090   4.367 -0.0893 -0.3079  0.1376
33018ION     NA49865  11.318  18.295  10.294 -0.1612 -0.1242  0.4182
33019ION     NA49866   0.346   9.211   1.053 -0.0279  0.0577 -0.1334
33020ION     NA49867  17.774   5.902  10.352  0.0345  0.1318 -0.3013
33021ION     NA49868   3.371  15.809  10.548  0.0636  0.0213  0.3238
33022ION     NA49869  11.872  12.243  15.232 -0.2672  0.1677  0.1334
33023ION     NA49870  14.024   9.389   2.234  0.1117 -0.0219 -0.2161
33024ION     NA49871  15.734   2.572  10.373 -0.0814  0.1711  0.3407
33025ION     NA49872   7.855   3.147  14.581 -0.0177 -0.1634  0.0075
33026ION     NA49873   6.579   0.830  11.540 -0.0385  0.2774  0.3295
33027ION     NA49874   5.688   9.437  14.568  0.3403  0.2744 -0.0933
33028ION     NA49875   8.521  13.005  10.641 -0.1700  0.2137  0.0163
33029ION     NA49876  15.257   8.567   4.670  0.1231  0.0823 -0.0147
33030ION     NA49877   2.392  16.466   1.027 -0.1146  0.3310 -0.0828
  18.53958  18.53958  15.94725
