INSANE! Membrane UpperLeaflet>loPI=1.0 LowerLeaflet>PSPI:POPI:POPS:YOPS:POPE:YOPE:POPC:YOPC:ERGO=6.0:14.0:21.0:9.0:9.0:21.0:12.0:48.0:60.0
49877
    1loPI    C1    1   0.307  14.725   9.879  0.2110  0.1691 -0.2336
    1loPI    C2    2   0.012  14.860  10.114  0.0312 -0.1435 -0.2749
    1loPI    C3    3   0.392  14.961  10.191 -0.0469 -0.0645  0.0186
    1loPI   PO4    4   0.198  14.889   9.634  0.4134  0.2164  0.1223
    1loPI   GL1    5  -0.015  15.150   9.290 -0.0175  0.2216  0.2058
    1loPI   GL2    6   0.338  15.181   9.194 -0.0130  0.2904 -0.3665
    1loPI   C1A    7   0.002  15.206   8.810 -0.3151 -0.1410  0.0614
    1loPI   C2A    8   0.044  15.125   8.415 -0.1087 -0.1831  0.4720
    1loPI   C3A    9   0.007  15.117   7.944  0.0394  0.0970  0.0468
    1loPI   C4A   10   0.079  14.952   7.588  0.2606 -0.0907  0.2999
    1loPI   C5A   11   0.395  14.800   7.379 -0.1703  0.1234  0.2229
    1loPI   C6A   12   0.549  14.397   7.262 -0.1679 -0.0228 -0.1390
    1loPI   C1B   13   0.430  14.928   8.803 -0.2108 -0.0139  0.1554
    1loPI   C2B   14   0.433  14.748   8.382  0.0861 -0.3496 -0.0718
    1loPI   C3B   15   0.434  14.737   7.916  0.1293 -0.2935  0.0934
    1loPI   C4B   16   0.225  14.419   7.665  0.0204  0.0606 -0.2499
    2loPI    C1   17  15.308  12.215   9.757 -0.0242  0.1386 -0.4862
    2loPI    C2   18  15.093  11.889   9.844 -0.1301  0.3155 -0.0618
    2loPI    C3   19  15.488  11.859   9.789 -0.1509  0.1047 -0.1053
    2loPI   PO4   20  15.105  12.381   9.595  0.2902  0.1229  0.2400
    2loPI   GL1   21  14.804  12.480   9.243 -0.0319  0.1769 -0.3288
    2loPI   GL2   22  15.126  12.476   9.124 -0.1278  0.2577 -0.1164
    2loPI   C1A   23  14.467  12.319   8.910 -0.0239 -0.1426 -0.0095
    2loPI   C2A   24  14.097  12.211   8.627  0.2274 -0.1349  0.0270
    2loPI   C3A   25  13.643  12.388   8.433  0.3854 -0.2080 -0.1014
    2loPI   C4A   26  13.430  12.433   8.102  0.1188 -0.0109 -0.2351
    2loPI   C5A   27  13.548  12.429   7.606 -0.1826  0.2285  0.0231
    2loPI   C6A   28  13.272  12.447   7.221 -0.4076 -0.3698  0.0231
    2loPI   C1B   29  14.877  12.563   8.709  0.1293  0.2929  0.0769
    2loPI   C2B   30  14.448  12.650   8.519  0.0092  0.0790 -0.2485
    2loPI   C3B   31  14.064  12.501   8.141  0.3351 -0.2060 -0.0999
    2loPI   C4B   32  13.851  12.073   7.977 -0.2741  0.3007 -0.1589
    3loPI    C1   33  10.135  12.646  10.009  0.1504  0.0724  0.2863
    3loPI    C2   34   9.869  12.919  10.131 -0.0927 -0.0430  0.0263
    3loPI    C3   35  10.123  12.757  10.393 -0.0280  0.3395  0.2072
    3loPI   PO4   36  10.141  12.697   9.743 -0.0726 -0.0190  0.0265
    3loPI   GL1   37  10.350  12.978   9.405 -0.0972 -0.1343 -0.1975
    3loPI   GL2   38  10.399  12.623   9.286  0.0067 -0.2020  0.1650
    3loPI   C1A   39  10.440  13.045   8.971 -0.0055  0.1895 -0.3182
    3loPI   C2A   40  10.162  13.065   8.610 -0.2090  0.1090  0.1341
    3loPI   C3A   41  10.038  12.989   8.232 -0.2451  0.0461 -0.1223
    3loPI   C4A   42  10.056  12.623   7.944  0.0951 -0.0916  0.0426
    3loPI   C5A   43  10.104  12.530   7.582  0.4521  0.1065  0.4207
    3loPI   C6A   44  10.354  12.465   7.283 -0.0300 -0.2517  0.1250
    3loPI   C1B   45  10.127  12.526   8.910  0.2496  0.0904  0.2569
    3loPI   C2B   46   9.790  12.764   8.777 -0.0016 -0.0732  0.1353
    3loPI   C3B   47   9.615  13.118   8.631 -0.2342  0.0864 -0.0460
    3loPI   C4B   48   9.497  13.139   8.276 -0.0555  0.2932  0.2284
    4loPI    C1   49   3.149   8.733  10.099 -0.0312 -0.2487 -0.2632
    4loPI    C2   50   3.429   8.856   9.841 -0.0222  0.1195 -0.0838
    4loPI    C3   51   3.536   8.703  10.195 -0.0440  0.0384 -0.1120
    4loPI   PO4   52   2.941   8.709   9.877  0.0780  0.0295  0.2922
    4loPI   GL1   53   2.708   8.684   9.488  0.0392 -0.1771  0.3782
    4loPI   GL2   54   2.357   8.676   9.683 -0.1101 -0.0812 -0.0849
    4loPI   C1A   55   2.445   8.792   9.129  0.3522 -0.1177  0.1238
    4loPI   C2A   56   2.442   8.908   8.670  0.1968  0.3542 -0.0446
    4loPI   C3A   57   2.551   8.925   8.214  0.3196 -0.2094 -0.2747
    4loPI   C4A   58   2.694   8.752   7.755 -0.0447 -0.0470 -0.0370
    4loPI   C5A   59   2.500   8.688   7.329 -0.2093 -0.1888 -0.0124
    4loPI   C6A   60   2.294   8.671   6.992 -0.0349  0.0142 -0.1505
    4loPI   C1B   61   2.056   8.627   9.324 -0.3133 -0.0422  0.0569
    4loPI   C2B   62   1.729   8.593   8.980 -0.0311 -0.1184  0.4249
    4loPI   C3B   63   1.537   8.351   8.685 -0.0447  0.2479 -0.0405
    4loPI   C4B   64   1.076   8.115   8.651 -0.2251  0.3908 -0.1118
    5loPI    C1   65   6.207   8.617   9.751 -0.1732  0.2112  0.1219
    5loPI    C2   66   6.569   8.729   9.877  0.0296 -0.0824 -0.1819
    5loPI    C3   67   6.455   8.348   9.913 -0.1239 -0.0564 -0.3774
    5loPI   PO4   68   6.143   8.813   9.545 -0.1330  0.0105 -0.1060
    5loPI   GL1   69   6.007   8.845   9.097  0.2531 -0.2131  0.0247
    5loPI   GL2   70   5.662   8.730   9.032  0.2257 -0.3635 -0.0744
    5loPI   C1A   71   5.932   9.074   8.761  0.1483  0.0632  0.0062
    5loPI   C2A   72   5.908   9.049   8.291  0.1155 -0.1079 -0.0144
    5loPI   C3A   73   5.974   9.132   7.863 -0.1295 -0.1683 -0.5475
    5loPI   C4A   74   5.881   9.395   7.564 -0.0449 -0.0268  0.3010
    5loPI   C5A   75   5.861   9.530   7.184  0.0435  0.1045  0.0091
    5loPI   C6A   76   5.525   9.602   6.914 -0.1063  0.2595 -0.1171
    5loPI   C1B   77   5.950   8.627   8.608  0.2776 -0.0806 -0.0578
    5loPI   C2B   78   6.134   8.556   8.250 -0.3584  0.0756  0.1780
    5loPI   C3B   79   6.195   8.611   7.821 -0.0540  0.1969  0.1356
    5loPI   C4B   80   6.246   8.445   7.513  0.1170 -0.1328 -0.2317
    6loPI    C1   81   3.805   4.650   9.908  0.0809 -0.2111  0.1733
    6loPI    C2   82   4.004   4.668  10.254  0.1346  0.3527  0.1223
    6loPI    C3   83   3.948   5.000  10.039 -0.1386  0.0559 -0.2777
    6loPI   PO4   84   3.886   4.434   9.806 -0.1292 -0.0855 -0.1090
    6loPI   GL1   85   3.849   4.286   9.432 -0.3039 -0.2698 -0.0271
    6loPI   GL2   86   4.154   4.442   9.169  0.1061 -0.1881  0.0377
    6loPI   C1A   87   3.574   4.321   8.979 -0.1232  0.2559 -0.2516
    6loPI   C2A   88   3.551   4.322   8.577 -0.1393 -0.3599  0.0116
    6loPI   C3A   89   3.359   4.277   8.120  0.0962 -0.1075 -0.0043
    6loPI   C4A   90   3.492   4.257   7.732 -0.0359 -0.0863  0.3016
    6loPI   C5A   91   3.385   4.474   7.379  0.0607  0.1087 -0.2417
    6loPI   C6A   92   3.172   4.815   7.220 -0.0346  0.1290  0.1680
    6loPI   C1B   93   4.012   4.309   8.744 -0.3158 -0.1736 -0.2620
    6loPI   C2B   94   4.021   4.236   8.324  0.2622  0.1467 -0.1768
    6loPI   C3B   95   4.011   4.298   7.941 -0.3241 -0.1939 -0.0578
    6loPI   C4B   96   3.955   4.102   7.519  0.1557  0.1540 -0.4108
    7loPI    C1   97   4.540  16.816  10.086 -0.1557 -0.0692 -0.0079
    7loPI    C2   98   4.291  16.527  10.206 -0.1415  0.0765  0.3844
    7loPI    C3   99   4.561  16.677  10.460  0.0707  0.2094  0.0862
    7loPI   PO4  100   4.660  16.615   9.830  0.0127 -0.5147 -0.2494
    7loPI   GL1  101   4.730  16.692   9.291 -0.1070  0.1280  0.0602
    7loPI   GL2  102   4.453  16.534   9.062  0.0345 -0.1563 -0.0609
    7loPI   C1A  103   4.872  16.725   8.907 -0.1341  0.1688 -0.0819
    7loPI   C2A  104   4.831  16.960   8.543  0.1692  0.1663 -0.0015
    7loPI   C3A  105   4.537  17.089   8.120  0.5250 -0.0644 -0.1928
    7loPI   C4A  106   4.607  17.241   7.701  0.3337  0.0671  0.3498
    7loPI   C5A  107   4.519  17.530   7.329 -0.0388 -0.2716  0.2787
    7loPI   C6A  108   4.197  17.419   6.988  0.1426  0.1365 -0.0762
    7loPI   C1B  109   4.632  16.458   8.575  0.2706 -0.1948  0.0780
    7loPI   C2B  110   4.800  16.552   8.142 -0.0798  0.1072 -0.0415
    7loPI   C3B  111   4.816  16.749   7.685  0.0722 -0.2522  0.0558
    7loPI   C4B  112   4.904  16.929   7.357  0.0931  0.0536 -0.0202
    8loPI    C1  113  12.812  11.583   9.963 -0.1787 -0.0362 -0.0663
    8loPI    C2  114  12.666  11.361  10.262 -0.1304 -0.0765 -0.0725
    8loPI    C3  115  12.566  11.747  10.232 -0.0354 -0.0407  0.0682
    8loPI   PO4  116  12.709  11.480   9.671  0.0876 -0.1843  0.1321
    8loPI   GL1  117  12.665  11.515   9.222  0.1388 -0.1518 -0.0189
    8loPI   GL2  118  12.491  11.290   9.229 -0.1343 -0.2302  0.0357
    8loPI   C1A  119  12.662  11.499   8.756  0.0858 -0.0101  0.0548
    8loPI   C2A  120  12.507  11.489   8.419 -0.2907  0.1724  0.0641
    8loPI   C3A  121  12.708  11.316   7.987  0.2182 -0.0510  0.1725
    8loPI   C4A  122  12.479  11.132   7.496  0.1240  0.4098 -0.2872
    8loPI   C5A  123  12.333  10.688   7.398  0.0905 -0.1276 -0.0645
    8loPI   C6A  124  12.286  10.486   6.996  0.1273 -0.1445 -0.1283
    8loPI   C1B  125  12.469  11.064   8.774  0.1729 -0.5600 -0.2896
    8loPI   C2B  126  12.677  10.924   8.409  0.2654  0.2989  0.1815
    8loPI   C3B  127  12.799  10.777   8.013  0.3438 -0.0970 -0.0032
    8loPI   C4B  128  12.606  10.442   7.806  0.0471 -0.3200  0.1707
    9loPI    C1  129  10.266  12.005   9.865  0.2993  0.1911  0.0515
    9loPI    C2  130  10.453  12.240   9.601  0.3939 -0.2002 -0.2392
    9loPI    C3  131  10.664  12.043   9.878  0.2970  0.1929  0.1257
    9loPI   PO4  132  10.078  11.841   9.661 -0.1146  0.1348  0.2409
    9loPI   GL1  133   9.918  11.707   9.364  0.1900 -0.0714  0.4180
    9loPI   GL2  134  10.108  11.522   9.206 -0.1091 -0.0550  0.0826
    9loPI   C1A  135   9.653  11.777   9.056  0.1719 -0.1020  0.2891
    9loPI   C2A  136   9.236  11.930   8.830  0.2349  0.0487 -0.0924
    9loPI   C3A  137   8.852  11.984   8.501  0.1643 -0.2524 -0.0951
    9loPI   C4A  138   8.793  12.089   8.107  0.0570 -0.2999  0.2143
    9loPI   C5A  139   8.780  12.084   7.663 -0.2154 -0.2982  0.0355
    9loPI   C6A  140   8.354  12.064   7.448 -0.1232  0.0769 -0.0430
    9loPI   C1B  141  10.467  11.807   9.202 -0.2365  0.0473 -0.0219
    9loPI   C2B  142  10.595  12.197   9.115 -0.0412 -0.1026 -0.2462
    9loPI   C3B  143  10.673  12.582   8.838 -0.0226 -0.2677  0.2249
    9loPI   C4B  144  10.656  12.871   8.493  0.2818  0.0994 -0.3156
   10loPI    C1  145  15.569  14.363  10.059 -0.2341 -0.1003  0.0842
   10loPI    C2  146  15.734  14.544  10.375 -0.0808 -0.1933  0.0587
   10loPI    C3  147  15.422  14.300  10.425 -0.1672 -0.0723  0.1161
   10loPI   PO4  148  15.556  14.540   9.896 -0.0312  0.0303  0.0817
   10loPI   GL1  149  15.741  14.689   9.610 -0.3313  0.2276  0.0945
   10loPI   GL2  150  15.683  14.379   9.420  0.2547 -0.1092  0.2654
   10loPI   C1A  151  15.955  14.801   9.223 -0.1747  0.2138 -0.1400
   10loPI   C2A  152  15.674  14.967   8.822 -0.4549  0.1150  0.0574
   10loPI   C3A  153  15.661  15.026   8.337 -0.0558 -0.1324  0.2412
   10loPI   C4A  154  15.879  14.990   7.910  0.1407 -0.3480 -0.1532
   10loPI   C5A  155  16.030  14.764   7.524  0.1096  0.1364  0.2226
   10loPI   C6A  156  16.097  14.995   7.109 -0.0634  0.1806  0.0873
   10loPI   C1B  157  15.957  14.370   9.012 -0.1805 -0.2886 -0.2507
   10loPI   C2B  158  16.082  14.318   8.649 -0.1741 -0.1716  0.0942
   10loPI   C3B  159  15.795  14.466   8.262  0.1112 -0.2094  0.1003
   10loPI   C4B  160  15.657  14.445   7.786 -0.1403 -0.3934 -0.0256
   11loPI    C1  161  18.370   0.388  10.544  0.0481 -0.0967 -0.1772
   11loPI    C2  162  18.230   0.016  10.500  0.0650 -0.1384  0.1012
   11loPI    C3  163  18.581   0.078  10.682  0.0457  0.0165  0.0875
   11loPI   PO4  164  18.459   0.449  10.265 -0.1611  0.0592 -0.0192
   11loPI   GL1  165  18.258   0.502   9.794 -0.0809 -0.3395 -0.2468
   11loPI   GL2  166  18.009   0.304   9.691  0.0867  0.0595 -0.2040
   11loPI   C1A  167  18.359   0.319   9.377 -0.0744  0.0534  0.0594
   11loPI   C2A  168  18.330   0.349   8.972 -0.1475 -0.0716 -0.1307
   11loPI   C3A  169  18.310   0.270   8.477 -0.0028 -0.0557  0.0928
   11loPI   C4A  170  18.268   0.185   8.055 -0.2130  0.1565  0.3793
   11loPI   C5A  171  17.985   0.346   7.707 -0.1014 -0.2802 -0.0381
   11loPI   C6A  172  17.881   0.336   7.254  0.0231 -0.0399  0.3813
   11loPI   C1B  173  17.870   0.206   9.237  0.2676 -0.0647  0.2584
   11loPI   C2B  174  17.874   0.037   8.810 -0.2062 -0.1894  0.1991
   11loPI   C3B  175  17.823   0.130   8.294  0.1961  0.0702 -0.2016
   11loPI   C4B  176  17.489   0.319   8.025  0.0405 -0.3619 -0.2164
   12loPI    C1  177   3.598   9.342  10.006 -0.0354  0.1957 -0.1161
   12loPI    C2  178   3.360   9.542  10.258 -0.2347 -0.0984 -0.0655
   12loPI    C3  179   3.405   9.147  10.297 -0.3226 -0.1598 -0.5331
   12loPI   PO4  180   3.557   9.464   9.797 -0.0851 -0.1705 -0.0053
   12loPI   GL1  181   3.698   9.655   9.397 -0.4768 -0.1617 -0.3333
   12loPI   GL2  182   3.632   9.287   9.345 -0.1082  0.2613 -0.0917
   12loPI   C1A  183   3.696   9.674   8.918  0.1297  0.0183 -0.2566
   12loPI   C2A  184   3.718   9.617   8.498 -0.0476 -0.4231 -0.0126
   12loPI   C3A  185   3.607   9.440   8.126 -0.6551 -0.1318  0.0723
   12loPI   C4A  186   3.512   9.418   7.722  0.0875  0.0270  0.2258
   12loPI   C5A  187   3.174   9.487   7.439  0.1938  0.3405  0.0112
   12loPI   C6A  188   3.176   9.306   7.059  0.1155 -0.0104  0.1960
   12loPI   C1B  189   3.268   9.317   9.091 -0.0582 -0.0624 -0.0019
   12loPI   C2B  190   3.274   9.299   8.685  0.0402  0.0031  0.0537
   12loPI   C3B  191   3.110   9.148   8.228 -0.4118  0.1445  0.1959
   12loPI   C4B  192   2.982   9.203   7.841 -0.1774 -0.0015 -0.0419
   13loPI    C1  193  12.663  11.947   9.667 -0.1658 -0.1679 -0.0929
   13loPI    C2  194  12.323  12.068   9.840 -0.0633  0.0067 -0.0101
   13loPI    C3  195  12.675  12.161  10.005  0.0284 -0.0663 -0.1625
   13loPI   PO4  196  12.604  12.008   9.347 -0.1267 -0.1405 -0.2206
   13loPI   GL1  197  12.233  11.910   9.041 -0.0720 -0.0001 -0.1187
   13loPI   GL2  198  12.162  11.645   8.891 -0.0605  0.1569  0.2276
   13loPI   C1A  199  12.402  11.962   8.612  0.0707  0.0913 -0.2335
   13loPI   C2A  200  12.183  12.006   8.263  0.1413 -0.4548  0.0126
   13loPI   C3A  201  12.149  12.184   7.829  0.2123  0.2271  0.4798
   13loPI   C4A  202  12.151  12.303   7.396  0.1843 -0.0209 -0.0819
   13loPI   C5A  203  11.869  12.560   7.083  0.3078 -0.1101  0.2956
   13loPI   C6A  204  11.743  12.837   6.832  0.1901 -0.2381  0.2719
   13loPI   C1B  205  12.041  11.578   8.482  0.0037  0.1090 -0.0705
   13loPI   C2B  206  12.157  11.555   8.063  0.5610  0.2108  0.1148
   13loPI   C3B  207  11.966  11.351   7.661  0.1278 -0.0734  0.3170
   13loPI   C4B  208  12.210  11.471   7.241  0.1918  0.1190  0.1175
   14loPI    C1  209  15.775  12.246  10.034 -0.0329  0.2437  0.0254
   14loPI    C2  210  15.499  12.508  10.157 -0.2153  0.0446  0.0439
   14loPI    C3  211  15.758  12.352  10.419 -0.1885  0.1100  0.0563
   14loPI   PO4  212  15.830  12.352   9.757 -0.1324 -0.0807 -0.2809
   14loPI   GL1  213  15.629  12.343   9.337 -0.1612 -0.1654  0.1325
   14loPI   GL2  214  15.400  12.047   9.340  0.0644 -0.6118  0.0769
   14loPI   C1A  215  15.784  12.247   8.912  0.1109 -0.0582  0.1093
   14loPI   C2A  216  15.740  12.207   8.455 -0.3532 -0.0527  0.0934
   14loPI   C3A  217  15.967  12.260   7.994 -0.0184 -0.1405 -0.1657
   14loPI   C4A  218  15.816  12.165   7.621 -0.0308  0.2383 -0.0034
   14loPI   C5A  219  15.723  12.210   7.310 -0.1866 -0.0461 -0.1047
   14loPI   C6A  220  15.689  12.136   6.862  0.1025 -0.0087  0.0658
   14loPI   C1B  221  15.305  12.183   8.824 -0.0607 -0.2183 -0.2324
   14loPI   C2B  222  15.160  12.398   8.375  0.3088  0.1718 -0.2643
   14loPI   C3B  223  14.992  12.754   8.147  0.0228 -0.1523 -0.1041
   14loPI   C4B  224  15.151  13.147   7.997 -0.2327 -0.2610 -0.0887
   15loPI    C1  225   8.326   1.202   9.824  0.1039 -0.0783  0.0528
   15loPI    C2  226   8.129   1.443  10.075  0.1113  0.0984 -0.1086
   15loPI    C3  227   8.373   1.161  10.219  0.1861  0.2575  0.0813
   15loPI   PO4  228   8.190   1.229   9.646  0.3106 -0.2430  0.2062
   15loPI   GL1  229   8.207   1.029   9.253  0.1942  0.0322 -0.0370
   15loPI   GL2  230   8.484   1.185   9.005  0.3892  0.2299 -0.0819
   15loPI   C1A  231   8.400   0.714   9.059  0.0417 -0.1429 -0.3045
   15loPI   C2A  232   8.730   0.613   8.884 -0.0959  0.1607  0.3000
   15loPI   C3A  233   8.948   0.559   8.525 -0.0203  0.2001 -0.2247
   15loPI   C4A  234   8.881   0.557   8.060 -0.0277 -0.0595  0.1200
   15loPI   C5A  235   8.706   0.404   7.746 -0.1551  0.2890 -0.0695
   15loPI   C6A  236   8.828   0.268   7.412 -0.1879 -0.0981 -0.0954
   15loPI   C1B  237   8.525   1.096   8.586 -0.2011 -0.2395  0.1745
   15loPI   C2B  238   8.522   0.821   8.273 -0.2174 -0.3575  0.3824
   15loPI   C3B  239   8.408   0.832   7.829  0.1592 -0.0086 -0.2590
   15loPI   C4B  240   8.326   0.661   7.423  0.3776  0.0139 -0.0964
   16loPI    C1  241  11.444  13.705   9.733  0.0206  0.1007 -0.0335
   16loPI    C2  242  11.228  13.476   9.486 -0.1336 -0.0644  0.2484
   16loPI    C3  243  11.056  13.642   9.806  0.0614  0.1567  0.2418
   16loPI   PO4  244  11.651  13.937   9.533  0.1554 -0.0449 -0.2235
   16loPI   GL1  245  11.818  14.027   9.124 -0.0821 -0.3178 -0.3808
   16loPI   GL2  246  11.633  14.338   9.232 -0.0564 -0.3072  0.1627
   16loPI   C1A  247  11.866  13.852   8.741 -0.2552 -0.1818 -0.2168
   16loPI   C2A  248  12.122  13.877   8.338 -0.1716  0.0428  0.2394
   16loPI   C3A  249  12.203  13.737   7.876 -0.2386 -0.0146 -0.2701
   16loPI   C4A  250  12.610  13.763   7.764 -0.0923  0.0874 -0.1426
   16loPI   C5A  251  12.962  14.096   7.586 -0.3100 -0.1638  0.1701
   16loPI   C6A  252  13.339  14.338   7.741 -0.0160 -0.0752 -0.1303
   16loPI   C1B  253  11.627  14.396   8.772  0.0294 -0.0451 -0.1380
   16loPI   C2B  254  11.590  14.098   8.390  0.1233  0.0723  0.0212
   16loPI   C3B  255  11.788  14.027   8.002  0.1488 -0.2965  0.1197
   16loPI   C4B  256  11.890  13.999   7.528  0.3763  0.0520 -0.1533
   17loPI    C1  257  10.269   9.480  10.057  0.1835 -0.2984  0.0335
   17loPI    C2  258   9.892   9.348  10.067  0.0916 -0.0343  0.1250
   17loPI    C3  259  10.066   9.483  10.401 -0.0292  0.6496 -0.0730
   17loPI   PO4  260  10.399   9.360   9.944  0.2047  0.1304  0.1465
   17loPI   GL1  261  10.470   9.242   9.569 -0.2732  0.0741  0.0162
   17loPI   GL2  262  10.732   9.213   9.374 -0.0524 -0.0168 -0.0094
   17loPI   C1A  263  10.297   9.172   9.137  0.0602 -0.0671  0.0490
   17loPI   C2A  264  10.203   9.153   8.759  0.2533 -0.0045 -0.1300
   17loPI   C3A  265  10.296   9.081   8.268 -0.0045 -0.1463  0.0538
   17loPI   C4A  266  10.307   9.037   7.853 -0.0209  0.0543 -0.0848
   17loPI   C5A  267  10.437   8.895   7.402  0.2164  0.1000 -0.0043
   17loPI   C6A  268  10.556   8.807   7.006  0.0206 -0.0267  0.0988
   17loPI   C1B  269  10.684   9.252   8.857  0.2623  0.0614 -0.1058
   17loPI   C2B  270  10.743   9.272   8.369  0.0048  0.1437 -0.0618
   17loPI   C3B  271  10.801   9.230   7.964 -0.1250 -0.1759  0.2548
   17loPI   C4B  272  11.173   9.290   7.652  0.1600 -0.1669  0.1868
   18loPI    C1  273   0.068  11.375  10.072 -0.1429  0.0786  0.1161
   18loPI    C2  274   0.134  11.749  10.199 -0.0826  0.1206 -0.0366
   18loPI    C3  275   0.251  11.438  10.422  0.1692  0.1942 -0.0636
   18loPI   PO4  276   0.237  11.321   9.831  0.1677 -0.1619  0.0364
   18loPI   GL1  277   0.165  11.481   9.369  0.1136  0.2354  0.0799
   18loPI   GL2  278   0.507  11.383   9.411 -0.3251  0.0017  0.1585
   18loPI   C1A  279   0.056  11.727   8.981  0.2511 -0.2796 -0.1285
   18loPI   C2A  280  -0.017  11.918   8.600 -0.2799 -0.0543 -0.0180
   18loPI   C3A  281  -0.245  12.151   8.322  0.2016  0.0504  0.1200
   18loPI   C4A  282  -0.219  12.520   8.000 -0.0173 -0.1775  0.2410
   18loPI   C5A  283  -0.268  12.633   7.544 -0.1476  0.0042 -0.3832
   18loPI   C6A  284   0.017  12.606   7.182 -0.1972 -0.0118  0.2719
   18loPI   C1B  285   0.536  11.642   9.079  0.1235 -0.3034 -0.2396
   18loPI   C2B  286   0.641  11.692   8.742  0.1344 -0.0304 -0.3671
   18loPI   C3B  287   0.487  11.849   8.319  0.0498  0.2325 -0.0595
   18loPI   C4B  288   0.131  11.858   8.096 -0.2564 -0.1423 -0.1801
   19loPI    C1  289  12.775  14.486  10.339 -0.0758  0.0378 -0.0169
   19loPI    C2  290  13.069  14.726  10.467 -0.0077  0.0015 -0.1044
   19loPI    C3  291  13.129  14.331  10.442 -0.0453  0.0001 -0.1754
   19loPI   PO4  292  12.697  14.654  10.137  0.3979 -0.0703 -0.1136
   19loPI   GL1  293  12.695  14.783   9.735 -0.1700  0.1945 -0.1076
   19loPI   GL2  294  12.375  14.693   9.791 -0.0646 -0.0815  0.2359
   19loPI   C1A  295  12.823  14.731   9.309 -0.0669 -0.0794 -0.0913
   19loPI   C2A  296  12.867  14.757   8.786  0.1979 -0.4218 -0.0145
   19loPI   C3A  297  12.951  14.840   8.357  0.2144  0.1650 -0.0935
   19loPI   C4A  298  13.106  15.065   8.031 -0.1074  0.0482  0.2552
   19loPI   C5A  299  13.076  15.444   7.840 -0.0652  0.1478  0.0289
   19loPI   C6A  300  12.918  15.802   7.783  0.0639  0.0401  0.1543
   19loPI   C1B  301  12.350  14.771   9.367 -0.1388  0.2177  0.1184
   19loPI   C2B  302  12.384  14.783   8.967 -0.0631 -0.0873  0.0709
   19loPI   C3B  303  12.420  14.728   8.567  0.3669  0.1812 -0.1428
   19loPI   C4B  304  12.446  14.727   8.062  0.0111  0.2160 -0.0977
   20loPI    C1  305  15.784  17.814  10.414 -0.1317 -0.2047  0.0655
   20loPI    C2  306  15.804  17.620  10.764 -0.2478 -0.1799  0.0863
   20loPI    C3  307  15.958  17.988  10.730  0.2070 -0.3738 -0.0236
   20loPI   PO4  308  15.588  17.833  10.350  0.0769 -0.1990  0.2091
   20loPI   GL1  309  15.457  17.799   9.910  0.2769  0.1192  0.1213
   20loPI   GL2  310  15.259  17.608  10.054  0.0363 -0.1759 -0.0604
   20loPI   C1A  311  15.473  17.791   9.498 -0.1087 -0.1263 -0.0159
   20loPI   C2A  312  15.478  17.867   9.072  0.0162 -0.1664  0.2625
   20loPI   C3A  313  15.176  17.977   8.803  0.0750  0.1276  0.0695
   20loPI   C4A  314  14.997  18.285   8.482  0.3610 -0.1326 -0.0033
   20loPI   C5A  315  15.132  18.480   8.089 -0.0483 -0.0310  0.1517
   20loPI   C6A  316  15.573  18.627   7.891  0.4208 -0.1403  0.0127
   20loPI   C1B  317  15.371  17.361   9.697  0.0554  0.1154  0.1558
   20loPI   C2B  318  15.443  17.234   9.314 -0.2248 -0.0452  0.0057
   20loPI   C3B  319  15.529  17.235   8.790 -0.0489 -0.1253 -0.1107
   20loPI   C4B  320  15.532  17.159   8.405  0.0383 -0.1726 -0.0293
   21loPI    C1  321  18.837  11.833   9.693  0.0081  0.1264  0.2804
   21loPI    C2  322  19.196  11.656   9.708 -0.0545 -0.0838 -0.3790
   21loPI    C3  323  18.872  11.462   9.840  0.0320  0.0047 -0.0254
   21loPI   PO4  324  18.823  11.896   9.465 -0.1773 -0.0187  0.5777
   21loPI   GL1  325  18.875  11.602   9.173  0.0628 -0.1779  0.1706
   21loPI   GL2  326  19.037  11.300   9.105 -0.0998 -0.0407  0.0193
   21loPI   C1A  327  18.894  11.667   8.711 -0.1845  0.3825  0.1453
   21loPI   C2A  328  18.795  11.711   8.309 -0.1664  0.0424  0.5059
   21loPI   C3A  329  18.844  11.840   7.908  0.2118  0.0825 -0.2241
   21loPI   C4A  330  19.070  11.874   7.659 -0.0656  0.5080  0.1749
   21loPI   C5A  331  19.374  12.186   7.599  0.1128  0.1064 -0.0940
   21loPI   C6A  332  19.602  12.578   7.759 -0.1616  0.0794  0.2133
   21loPI   C1B  333  18.942  11.114   8.804 -0.0357  0.0580  0.3742
   21loPI   C2B  334  18.754  10.881   8.459  0.0153  0.1366 -0.0863
   21loPI   C3B  335  18.800  10.820   8.018  0.0525  0.3130 -0.0465
   21loPI   C4B  336  18.775  10.756   7.634  0.1066  0.1193 -0.1822
   22loPI    C1  337   9.065  10.371   9.901 -0.1049  0.0631  0.3773
   22loPI    C2  338   8.678  10.466   9.928 -0.1784 -0.0873 -0.0634
   22loPI    C3  339   8.791  10.083   9.939 -0.0407 -0.0439  0.0635
   22loPI   PO4  340   9.109  10.519   9.704 -0.0566  0.2633  0.0427
   22loPI   GL1  341   9.080  10.591   9.243  0.0553 -0.2423 -0.1937
   22loPI   GL2  342   9.113  10.261   9.167  0.1208  0.0164 -0.0166
   22loPI   C1A  343   9.088  10.915   9.028 -0.1963  0.0809  0.0736
   22loPI   C2A  344   9.221  11.020   8.595  0.0160  0.0707 -0.1685
   22loPI   C3A  345   9.146  11.083   8.171 -0.1175  0.0942  0.1899
   22loPI   C4A  346   9.396  11.335   7.799 -0.1787  0.1905  0.0089
   22loPI   C5A  347   9.426  11.496   7.432  0.0292 -0.2348 -0.2062
   22loPI   C6A  348   9.402  11.564   6.990 -0.1906  0.0077 -0.1342
   22loPI   C1B  349   9.353  10.203   8.740 -0.1495 -0.0914  0.2068
   22loPI   C2B  350   9.411  10.177   8.282  0.0920  0.0073 -0.2072
   22loPI   C3B  351   9.559  10.199   7.950  0.1301 -0.0325  0.0458
   22loPI   C4B  352   9.921  10.226   7.638 -0.0809 -0.1141 -0.1685
   23loPI    C1  353   9.370   1.843  10.114 -0.0567 -0.2756 -0.0754
   23loPI    C2  354   9.481   1.535  10.344 -0.3264 -0.2135  0.1444
   23loPI    C3  355   9.348   1.872  10.513  0.1036  0.0823 -0.0892
   23loPI   PO4  356   9.468   1.854   9.894 -0.2351 -0.3619 -0.2042
   23loPI   GL1  357   9.492   1.601   9.540 -0.1360  0.3641 -0.0541
   23loPI   GL2  358   9.778   1.583   9.409 -0.1339 -0.1746  0.1036
   23loPI   C1A  359   9.326   1.551   9.127  0.2620  0.0457  0.0947
   23loPI   C2A  360   9.492   1.188   8.890  0.4973  0.2678  0.0520
   23loPI   C3A  361   9.636   1.117   8.527  0.2789  0.2132  0.1274
   23loPI   C4A  362   9.632   1.155   8.172  0.0399  0.3238  0.0703
   23loPI   C5A  363   9.310   1.268   7.740 -0.1308 -0.3044  0.0087
   23loPI   C6A  364   8.981   1.555   7.482 -0.2396 -0.0222  0.0333
   23loPI   C1B  365   9.747   1.633   8.842  0.0296  0.3082 -0.4324
   23loPI   C2B  366   9.312   1.613   8.633  0.1784  0.3406  0.1261
   23loPI   C3B  367   9.284   1.591   8.196 -0.4016  0.1629  0.0445
   23loPI   C4B  368   9.025   1.825   7.900  0.2087 -0.1217 -0.0634
   24loPI    C1  369   6.077  19.010   9.633 -0.1799  0.0975 -0.0377
   24loPI    C2  370   6.157  19.189   9.981 -0.1712  0.2471 -0.1159
   24loPI    C3  371   6.446  19.146   9.707 -0.0957 -0.1574  0.0203
   24loPI   PO4  372   5.774  19.005   9.626 -0.0728 -0.0628 -0.1494
   24loPI   GL1  373   5.708  19.256   9.233 -0.0713  0.1847  0.0403
   24loPI   GL2  374   5.652  19.574   9.177 -0.0707  0.0470  0.1761
   24loPI   C1A  375   5.515  19.226   8.826  0.0810  0.2162  0.2373
   24loPI   C2A  376   5.183  19.474   8.729  0.2095 -0.4577  0.2070
   24loPI   C3A  377   4.785  19.397   8.627 -0.1134 -0.0065 -0.2532
   24loPI   C4A  378   4.613  19.122   8.409  0.1139  0.0279 -0.1921
   24loPI   C5A  379   4.278  19.286   8.165 -0.0376  0.0491 -0.1848
   24loPI   C6A  380   4.079  19.612   7.766  0.1620  0.1632 -0.2137
   24loPI   C1B  381   5.663  19.731   8.731  0.0756  0.0528 -0.2336
   24loPI   C2B  382   5.432  19.748   8.333  0.3283  0.0805  0.4391
   24loPI   C3B  383   5.304  19.922   7.852  0.0374  0.2977  0.2462
   24loPI   C4B  384   5.257  19.939   7.474  0.0236  0.0381  0.2689
   25loPI    C1  385   5.927  14.102   9.789 -0.0076  0.1044 -0.0678
   25loPI    C2  386   6.164  13.945  10.071 -0.1557 -0.0217 -0.0116
   25loPI    C3  387   5.847  14.166  10.176 -0.1512  0.0192 -0.0826
   25loPI   PO4  388   5.921  13.968   9.624  0.1353  0.1532 -0.1284
   25loPI   GL1  389   5.966  14.080   9.201  0.0059  0.0500 -0.0829
   25loPI   GL2  390   6.261  14.088   9.112 -0.0500 -0.1286 -0.4980
   25loPI   C1A  391   5.848  14.116   8.771 -0.2767  0.3385 -0.1724
   25loPI   C2A  392   6.055  14.127   8.326 -0.0212  0.1856  0.0116
   25loPI   C3A  393   5.969  14.326   7.880 -0.0369  0.0126 -0.1225
   25loPI   C4A  394   6.051  14.331   7.419  0.0276 -0.1404  0.0428
   25loPI   C5A  395   6.319  14.232   7.137 -0.1884  0.0649  0.2008
   25loPI   C6A  396   6.814  14.246   7.265  0.0268 -0.1160 -0.3398
   25loPI   C1B  397   6.375  14.251   8.749  0.3415 -0.0006  0.0043
   25loPI   C2B  398   6.536  14.435   8.341 -0.0211 -0.1416 -0.0474
   25loPI   C3B  399   6.817  14.519   7.932 -0.1599 -0.1552 -0.2327
   25loPI   C4B  400   6.977  14.742   7.631  0.3214 -0.0184  0.1553
   26loPI    C1  401  12.132   2.948  10.299  0.1849  0.0386  0.0636
   26loPI    C2  402  11.939   2.649  10.481 -0.0607  0.2344  0.1299
   26loPI    C3  403  12.334   2.690  10.528 -0.0016 -0.1587  0.0087
   26loPI   PO4  404  11.904   2.884  10.026 -0.0907 -0.0881 -0.0851
   26loPI   GL1  405  11.924   2.745   9.597 -0.0035 -0.0572  0.0137
   26loPI   GL2  406  12.014   2.938   9.395  0.0813  0.1424  0.3418
   26loPI   C1A  407  11.932   2.442   9.343 -0.0052 -0.1238 -0.0223
   26loPI   C2A  408  11.762   2.334   8.921  0.0427 -0.1075 -0.5018
   26loPI   C3A  409  11.722   2.221   8.489 -0.3131 -0.1568 -0.1379
   26loPI   C4A  410  11.712   2.096   8.004 -0.0352  0.1981  0.2405
   26loPI   C5A  411  11.397   2.002   7.736  0.1852 -0.1067  0.1261
   26loPI   C6A  412  11.033   1.813   7.681  0.1837 -0.0885 -0.2062
   26loPI   C1B  413  12.014   2.815   8.982 -0.1548 -0.2935 -0.1960
   26loPI   C2B  414  12.040   2.628   8.545 -0.1052  0.0327  0.3114
   26loPI   C3B  415  12.085   2.398   8.156  0.0278  0.0129 -0.2719
   26loPI   C4B  416  12.165   2.349   7.778 -0.0777  0.0601  0.0544
   27loPI    C1  417   4.256   7.118   9.830 -0.1882 -0.1863 -0.0042
   27loPI    C2  418   4.350   6.774  10.010  0.1596 -0.0366  0.1102
   27loPI    C3  419   4.339   7.113  10.222  0.0846  0.0656 -0.0551
   27loPI   PO4  420   4.085   7.072   9.641  0.1792 -0.0035  0.0181
   27loPI   GL1  421   3.986   7.074   9.213  0.3274 -0.3673  0.0751
   27loPI   GL2  422   3.904   6.714   9.274 -0.1270 -0.0921 -0.0742
   27loPI   C1A  423   4.115   6.972   8.804 -0.1441 -0.2535 -0.0350
   27loPI   C2A  424   4.171   7.122   8.383 -0.0636 -0.0376 -0.0339
   27loPI   C3A  425   4.418   7.129   8.050  0.3626 -0.1562 -0.0727
   27loPI   C4A  426   4.265   6.997   7.652 -0.0098 -0.4789  0.0914
   27loPI   C5A  427   4.318   6.854   7.231  0.2937  0.0896 -0.1287
   27loPI   C6A  428   4.459   6.880   6.755  0.3190  0.3140 -0.3019
   27loPI   C1B  429   3.832   6.599   8.908 -0.1228  0.1737  0.0883
   27loPI   C2B  430   3.814   6.718   8.492  0.0053 -0.0207  0.1339
   27loPI   C3B  431   3.980   6.705   8.033 -0.3675  0.4134  0.2278
   27loPI   C4B  432   3.995   6.553   7.589  0.4357 -0.3252  0.1304
   28loPI    C1  433  18.374  16.096  10.343 -0.0885  0.0288 -0.2851
   28loPI    C2  434  18.149  15.765  10.334 -0.0303 -0.0332  0.2452
   28loPI    C3  435  18.546  15.737  10.301 -0.0449  0.0120  0.0148
   28loPI   PO4  436  18.240  16.216  10.068  0.2487  0.0632 -0.1266
   28loPI   GL1  437  18.236  16.408   9.709 -0.0138  0.0707  0.0777
   28loPI   GL2  438  17.945  16.212   9.633 -0.2380 -0.0310  0.0077
   28loPI   C1A  439  18.351  16.752   9.401 -0.1744  0.0612  0.3719
   28loPI   C2A  440  18.404  16.775   8.964 -0.0235 -0.2394  0.0022
   28loPI   C3A  441  18.438  16.702   8.611  0.2814  0.3490 -0.3485
   28loPI   C4A  442  18.233  16.444   8.232  0.1860 -0.1400  0.4054
   28loPI   C5A  443  18.235  16.061   8.079 -0.0001 -0.1227 -0.3194
   28loPI   C6A  444  18.460  15.599   7.896 -0.0795  0.2058 -0.1268
   28loPI   C1B  445  17.679  15.982   9.297  0.0372  0.2603  0.2346
   28loPI   C2B  446  17.693  15.907   8.864 -0.0757  0.1391  0.1643
   28loPI   C3B  447  17.438  15.677   8.702 -0.0594 -0.0526 -0.0769
   28loPI   C4B  448  17.527  15.524   8.272  0.0059  0.0165 -0.1114
   29loPI    C1  449   2.575   5.228   9.613 -0.0771  0.1352 -0.0339
   29loPI    C2  450   2.379   4.892   9.520 -0.0354  0.0492  0.1819
   29loPI    C3  451   2.376   5.027   9.896  0.2436  0.0967  0.1688
   29loPI   PO4  452   2.622   5.276   9.393  0.0620  0.0992  0.3331
   29loPI   GL1  453   2.603   5.215   9.089 -0.1415 -0.0373 -0.2207
   29loPI   GL2  454   2.375   5.255   8.906 -0.1966 -0.1582  0.2303
   29loPI   C1A  455   2.862   5.034   8.767 -0.0664 -0.0570 -0.1325
   29loPI   C2A  456   2.910   4.895   8.358  0.1866  0.2752 -0.0430
   29loPI   C3A  457   2.782   4.971   7.876  0.3121  0.0620 -0.0301
   29loPI   C4A  458   2.787   5.094   7.454  0.2282  0.0972  0.0519
   29loPI   C5A  459   2.945   5.318   7.022 -0.0266 -0.0753 -0.2187
   29loPI   C6A  460   2.638   5.515   6.792 -0.5463 -0.3145  0.1690
   29loPI   C1B  461   2.247   5.155   8.336  0.1991  0.0192 -0.0406
   29loPI   C2B  462   2.252   5.126   7.886 -0.1410 -0.3808  0.2031
   29loPI   C3B  463   2.232   5.029   7.507  0.3716 -0.0804  0.1054
   29loPI   C4B  464   2.115   4.872   7.060 -0.2053 -0.0595 -0.1970
   30loPI    C1  465   6.047  15.314   9.777 -0.2189  0.1003  0.1125
   30loPI    C2  466   6.088  15.432  10.158  0.0122 -0.0245  0.1284
   30loPI    C3  467   5.964  15.061  10.075 -0.0250 -0.0018  0.0813
   30loPI   PO4  468   5.933  15.347   9.668  0.0645  0.1457  0.1528
   30loPI   GL1  469   5.959  15.642   9.311 -0.3400 -0.0269 -0.0191
   30loPI   GL2  470   5.704  15.434   9.245  0.1218 -0.1689  0.0807
   30loPI   C1A  471   6.110  15.674   8.976  0.0052  0.1158  0.0007
   30loPI   C2A  472   6.170  15.633   8.613 -0.0197  0.0609 -0.2195
   30loPI   C3A  473   6.266  15.709   8.072 -0.0934 -0.1418  0.1239
   30loPI   C4A  474   6.176  15.677   7.657  0.2349 -0.1809  0.1073
   30loPI   C5A  475   6.180  15.764   7.206 -0.0225  0.3292  0.1268
   30loPI   C6A  476   6.375  15.897   6.809  0.2033  0.0308 -0.3680
   30loPI   C1B  477   5.656  15.601   8.811 -0.0043  0.1634  0.0838
   30loPI   C2B  478   5.749  15.901   8.370  0.1402 -0.0485  0.3016
   30loPI   C3B  479   5.524  16.090   7.930 -0.0749 -0.1165  0.2624
   30loPI   C4B  480   5.673  16.094   7.572  0.0502 -0.1407 -0.4919
   31loPI    C1  481   5.860   7.720   9.847 -0.2588 -0.0100 -0.1474
   31loPI    C2  482   5.666   7.598  10.175  0.1896  0.1731  0.1986
   31loPI    C3  483   5.785   7.978  10.144  0.1822  0.1491 -0.1655
   31loPI   PO4  484   5.686   7.693   9.640  0.0781 -0.0678  0.1328
   31loPI   GL1  485   5.631   7.835   9.194 -0.0507  0.0421 -0.2319
   31loPI   GL2  486   5.960   8.010   9.019 -0.0367  0.1146 -0.2243
   31loPI   C1A  487   5.630   7.630   8.764 -0.0680 -0.5041  0.2423
   31loPI   C2A  488   5.606   7.857   8.298 -0.0546  0.0627  0.0216
   31loPI   C3A  489   5.376   8.052   8.012 -0.0922 -0.4094  0.1457
   31loPI   C4A  490   5.278   8.139   7.558 -0.0099  0.0239  0.0550
   31loPI   C5A  491   5.165   8.397   7.208 -0.0706 -0.2206  0.2349
   31loPI   C6A  492   5.292   8.344   6.696 -0.1134 -0.0716  0.1392
   31loPI   C1B  493   5.953   8.040   8.565  0.0053 -0.1313  0.1430
   31loPI   C2B  494   5.975   8.118   8.036 -0.0624 -0.0528 -0.2395
   31loPI   C3B  495   5.850   8.089   7.679 -0.0446 -0.0971 -0.2622
   31loPI   C4B  496   5.715   7.953   7.394  0.2608  0.3391  0.0876
   32loPI    C1  497   6.593   0.140  10.086  0.0414  0.0683  0.4044
   32loPI    C2  498   6.984   0.191  10.021  0.0467 -0.0055  0.3780
   32loPI    C3  499   6.859  -0.056  10.310  0.0177 -0.2439  0.1652
   32loPI   PO4  500   6.508   0.306   9.902  0.1834 -0.0678 -0.2276
   32loPI   GL1  501   6.655   0.304   9.493 -0.0910  0.1775  0.2661
   32loPI   GL2  502   6.896   0.036   9.383  0.1198  0.3206 -0.1296
   32loPI   C1A  503   6.562   0.383   9.071 -0.1537 -0.3979 -0.1570
   32loPI   C2A  504   6.556   0.413   8.692 -0.1435 -0.0109 -0.2587
   32loPI   C3A  505   6.491   0.728   8.361  0.0106  0.0811 -0.0687
   32loPI   C4A  506   6.524   1.007   8.015  0.1100  0.0941  0.3088
   32loPI   C5A  507   6.617   1.234   7.702 -0.1337  0.0437  0.3129
   32loPI   C6A  508   6.410   1.328   7.346  0.0010  0.1736 -0.0688
   32loPI   C1B  509   6.483  -0.176   9.143 -0.1478 -0.3085 -0.2115
   32loPI   C2B  510   6.430  -0.271   8.701 -0.0579  0.0382  0.1746
   32loPI   C3B  511   6.434  -0.278   8.335 -0.5463  0.0148  0.1890
   32loPI   C4B  512   6.414  -0.267   8.016  0.3198 -0.2194 -0.0307
   33loPI    C1  513  16.829   3.339   9.960 -0.0074 -0.0453 -0.2189
   33loPI    C2  514  17.025   3.682   9.899 -0.0030 -0.0110 -0.0207
   33loPI    C3  515  16.665   3.687  10.072 -0.0174 -0.1039 -0.0474
   33loPI   PO4  516  16.903   3.245   9.747 -0.1790  0.1810 -0.0085
   33loPI   GL1  517  16.873   3.065   9.397  0.0333  0.1495  0.0492
   33loPI   GL2  518  16.750   2.727   9.532 -0.3084 -0.0635  0.0206
   33loPI   C1A  519  17.233   3.029   9.048 -0.0542 -0.1409  0.1385
   33loPI   C2A  520  17.364   2.857   8.676 -0.0593  0.1687 -0.1574
   33loPI   C3A  521  17.506   2.985   8.285 -0.0628  0.1520 -0.0966
   33loPI   C4A  522  17.697   2.879   7.924 -0.0085  0.5400 -0.2591
   33loPI   C5A  523  17.661   2.438   7.739 -0.2405 -0.0698 -0.2243
   33loPI   C6A  524  17.979   2.113   7.787  0.1583 -0.0027  0.0385
   33loPI   C1B  525  16.930   2.632   9.114 -0.3814 -0.2545 -0.1320
   33loPI   C2B  526  16.707   2.610   8.787 -0.0298  0.0702  0.1036
   33loPI   C3B  527  16.728   2.704   8.298  0.2518 -0.1159 -0.2469
   33loPI   C4B  528  16.827   2.603   7.921  0.2037  0.0590 -0.2140
   34loPI    C1  529  18.308  18.352  10.527  0.1137  0.1136 -0.2612
   34loPI    C2  530  18.620  18.227  10.743 -0.0517  0.1557  0.0068
   34loPI    C3  531  18.328  18.437  10.917 -0.2303  0.1172 -0.2413
   34loPI   PO4  532  18.216  18.137  10.348 -0.3089  0.0738 -0.1331
   34loPI   GL1  533  18.061  18.031   9.947 -0.2032  0.2888  0.3207
   34loPI   GL2  534  17.936  17.793  10.066 -0.0210 -0.1430 -0.1471
   34loPI   C1A  535  18.190  17.664   9.644 -0.0354 -0.0652 -0.0486
   34loPI   C2A  536  18.065  17.598   9.173  0.1633  0.4687  0.2380
   34loPI   C3A  537  18.033  17.639   8.722  0.2792  0.1159 -0.2407
   34loPI   C4A  538  17.961  17.426   8.391  0.1706 -0.6945 -0.0623
   34loPI   C5A  539  17.739  17.368   8.052  0.2056 -0.3192 -0.3639
   34loPI   C6A  540  17.712  17.689   7.771  0.1868  0.2239  0.0616
   34loPI   C1B  541  17.663  17.547   9.781  0.2745  0.2676  0.0325
   34loPI   C2B  542  17.632  17.390   9.311  0.1781 -0.2810  0.0918
   34loPI   C3B  543  17.562  17.365   8.844 -0.2115  0.1841 -0.2171
   34loPI   C4B  544  17.494  17.275   8.466  0.0242 -0.1148  0.2770
   35loPI    C1  545  11.017  11.486   9.789  0.0969  0.0356  0.2153
   35loPI    C2  546  11.015  11.186  10.054  0.0707 -0.0082  0.1657
   35loPI    C3  547  10.835  11.141   9.700 -0.3564  0.2335  0.3446
   35loPI   PO4  548  11.262  11.495   9.710  0.0743  0.0536 -0.1688
   35loPI   GL1  549  11.424  11.687   9.350 -0.1053  0.1231 -0.3256
   35loPI   GL2  550  11.701  11.777   9.204 -0.3270  0.2114 -0.1589
   35loPI   C1A  551  11.022  11.631   9.081 -0.2656  0.0640 -0.0321
   35loPI   C2A  552  11.113  11.763   8.618  0.2148 -0.2803 -0.1417
   35loPI   C3A  553  10.998  11.761   8.223 -0.1105  0.0900  0.1924
   35loPI   C4A  554  11.017  11.813   7.709 -0.1863  0.1424 -0.0778
   35loPI   C5A  555  11.188  11.936   7.402 -0.2719  0.0888 -0.0537
   35loPI   C6A  556  11.588  12.064   7.452 -0.0409 -0.0140 -0.2585
   35loPI   C1B  557  11.560  11.589   8.821  0.2849 -0.1210  0.2086
   35loPI   C2B  558  11.517  11.491   8.327 -0.0081 -0.2078 -0.2461
   35loPI   C3B  559  11.811  11.152   8.091 -0.3977  0.0283 -0.1829
   35loPI   C4B  560  12.266  11.034   7.960 -0.2899 -0.3998 -0.2324
   36loPI    C1  561  19.128   7.528   9.740  0.1676 -0.1747  0.1186
   36loPI    C2  562  19.026   7.149   9.663 -0.3386 -0.0342  0.0630
   36loPI    C3  563  18.993   7.293  10.035 -0.0882 -0.0586  0.0963
   36loPI   PO4  564  19.344   7.555   9.667  0.1457 -0.1226  0.1459
   36loPI   GL1  565  19.481   7.712   9.385  0.0632  0.2437 -0.0735
   36loPI   GL2  566  19.746   7.510   9.265 -0.2474 -0.0075 -0.2848
   36loPI   C1A  567  19.358   7.815   9.009 -0.1117  0.0039 -0.1842
   36loPI   C2A  568  19.157   8.001   8.527 -0.1210 -0.0008 -0.1345
   36loPI   C3A  569  19.133   7.995   8.035 -0.3007 -0.1283  0.0079
   36loPI   C4A  570  18.990   8.003   7.673 -0.2881  0.2578 -0.0756
   36loPI   C5A  571  18.776   7.982   7.171 -0.0463  0.2122 -0.0050
   36loPI   C6A  572  18.555   8.163   6.802 -0.0408 -0.5192 -0.1248
   36loPI   C1B  573  19.762   7.338   8.801 -0.1466 -0.1085 -0.0602
   36loPI   C2B  574  19.600   7.056   8.648 -0.3839  0.0135 -0.1595
   36loPI   C3B  575  19.355   6.952   8.432 -0.0984 -0.0984  0.0178
   36loPI   C4B  576  19.065   6.579   8.310 -0.0436  0.2531  0.0068
   37loPI    C1  577  14.499   4.991  10.056  0.1545 -0.2536  0.1347
   37loPI    C2  578  14.776   5.247  10.191 -0.0525  0.1778 -0.2336
   37loPI    C3  579  14.421   5.221  10.374 -0.0203  0.1289 -0.1776
   37loPI   PO4  580  14.435   5.042   9.731  0.1433 -0.1906 -0.2363
   37loPI   GL1  581  14.311   4.860   9.301  0.0798  0.1946 -0.2517
   37loPI   GL2  582  14.683   4.913   9.339  0.0842 -0.2200 -0.2189
   37loPI   C1A  583  14.244   4.796   8.877  0.0044  0.0019  0.2360
   37loPI   C2A  584  14.263   5.061   8.481 -0.0591  0.4113  0.0763
   37loPI   C3A  585  14.460   4.946   8.081 -0.0035 -0.5529 -0.2163
   37loPI   C4A  586  14.365   5.036   7.558 -0.4643  0.2820 -0.0723
   37loPI   C5A  587  14.699   5.102   7.234 -0.2759 -0.0978 -0.1174
   37loPI   C6A  588  15.076   5.416   6.983 -0.1185  0.1938  0.1866
   37loPI   C1B  589  14.600   4.512   8.983  0.0593 -0.1733 -0.2618
   37loPI   C2B  590  14.636   4.176   8.657 -0.2145  0.2539 -0.2664
   37loPI   C3B  591  14.685   4.092   8.228  0.0755  0.0965  0.0733
   37loPI   C4B  592  14.803   4.249   7.792  0.0083 -0.3662  0.0672
   38loPI    C1  593   8.856   5.106   9.528 -0.1298  0.1080  0.2396
   38loPI    C2  594   9.136   5.147   9.812 -0.0218 -0.0443  0.1563
   38loPI    C3  595   9.123   5.403   9.505  0.1488 -0.1502  0.0590
   38loPI   PO4  596   8.918   4.796   9.455 -0.0284 -0.2301  0.0109
   38loPI   GL1  597   8.994   4.644   9.022 -0.3074 -0.0898 -0.0952
   38loPI   GL2  598   9.192   4.442   9.032 -0.1149 -0.1726 -0.0856
   38loPI   C1A  599   8.833   4.820   8.713  0.2679 -0.1891 -0.3843
   38loPI   C2A  600   8.747   4.917   8.378  0.2418  0.0912  0.3337
   38loPI   C3A  601   8.583   4.988   7.981  0.0561  0.0986 -0.1236
   38loPI   C4A  602   8.643   4.948   7.546 -0.3958 -0.1667  0.0547
   38loPI   C5A  603   8.496   5.139   7.095 -0.2869  0.1800  0.0972
   38loPI   C6A  604   8.326   4.985   6.722  0.3379  0.1219 -0.0963
   38loPI   C1B  605   9.233   4.543   8.606 -0.2107 -0.0481  0.3021
   38loPI   C2B  606   9.259   4.482   8.199 -0.0764  0.3426 -0.2913
   38loPI   C3B  607   9.326   4.363   7.823  0.3898 -0.2540 -0.1910
   38loPI   C4B  608   9.462   3.997   7.636  0.0127  0.0807  0.1120
   39loPI    C1  609  14.787  18.244  10.601  0.0884 -0.0462  0.0534
   39loPI    C2  610  14.544  18.345  10.902  0.0172 -0.0438 -0.0048
   39loPI    C3  611  14.891  18.161  10.979  0.0212 -0.0005  0.0820
   39loPI   PO4  612  14.630  18.164  10.426 -0.1488  0.3887 -0.0637
   39loPI   GL1  613  14.500  18.254  10.062 -0.0112 -0.0431  0.1135
   39loPI   GL2  614  14.650  18.075   9.889 -0.2802  0.0071  0.0387
   39loPI   C1A  615  14.280  18.476   9.812  0.0664  0.0214 -0.1039
   39loPI   C2A  616  14.086  18.639   9.456 -0.1980 -0.0040 -0.1042
   39loPI   C3A  617  13.848  18.527   9.104 -0.1512 -0.2293 -0.2211
   39loPI   C4A  618  13.758  18.372   8.669 -0.0956 -0.1896 -0.1215
   39loPI   C5A  619  13.592  18.415   8.412  0.0173  0.0687 -0.1691
   39loPI   C6A  620  13.281  18.134   8.220 -0.1998  0.0524  0.1473
   39loPI   C1B  621  14.665  18.032   9.424 -0.0087  0.2169 -0.0028
   39loPI   C2B  622  14.711  17.906   8.975 -0.0546 -0.1592  0.2458
   39loPI   C3B  623  14.717  17.891   8.554 -0.0832  0.0852 -0.1181
   39loPI   C4B  624  14.526  18.225   8.236 -0.1120  0.0087 -0.0895
   40loPI    C1  625  17.355  12.728   9.840  0.0784 -0.2802 -0.1028
   40loPI    C2  626  17.164  12.562  10.150  0.1131  0.0242  0.0861
   40loPI    C3  627  16.968  12.807   9.902  0.1255 -0.0925 -0.0403
   40loPI   PO4  628  17.460  12.439   9.727 -0.0438  0.1910 -0.2012
   40loPI   GL1  629  17.421  12.202   9.362  0.1092  0.2625 -0.0767
   40loPI   GL2  630  17.676  11.929   9.218 -0.1613 -0.0049  0.1201
   40loPI   C1A  631  17.195  12.240   9.060  0.1168  0.3254  0.3248
   40loPI   C2A  632  17.092  12.556   8.797  0.0553 -0.1342 -0.0915
   40loPI   C3A  633  17.173  12.522   8.377  0.0473 -0.0889  0.2110
   40loPI   C4A  634  16.874  12.640   8.026  0.2368  0.0135 -0.3149
   40loPI   C5A  635  16.924  12.496   7.610 -0.0488  0.3849  0.1534
   40loPI   C6A  636  17.306  12.520   7.274  0.1616 -0.3708  0.2215
   40loPI   C1B  637  17.669  11.696   8.833 -0.0149 -0.2010 -0.5713
   40loPI   C2B  638  17.808  11.877   8.419  0.0591  0.0177 -0.0120
   40loPI   C3B  639  17.880  11.940   7.976  0.1679  0.0597  0.2040
   40loPI   C4B  640  17.724  12.214   7.587 -0.0657  0.0306  0.4040
   41loPI    C1  641   4.908  18.630   9.697 -0.0217  0.0242 -0.1511
   41loPI    C2  642   4.688  18.635  10.031 -0.1904  0.0413 -0.2609
   41loPI    C3  643   4.995  18.888   9.990 -0.1828  0.0540 -0.1283
   41loPI   PO4  644   4.765  18.603   9.536 -0.0040  0.0844 -0.1196
   41loPI   GL1  645   4.423  18.885   9.278 -0.1442 -0.0473  0.1627
   41loPI   GL2  646   4.110  19.034   9.187 -0.0414  0.1891  0.0622
   41loPI   C1A  647   4.529  18.795   8.755 -0.1555  0.0814 -0.0807
   41loPI   C2A  648   4.531  18.664   8.285  0.2123  0.1840  0.0166
   41loPI   C3A  649   4.500  18.749   7.809 -0.2360  0.1394 -0.0900
   41loPI   C4A  650   4.536  18.642   7.365 -0.1170 -0.1366 -0.3525
   41loPI   C5A  651   4.731  18.633   6.988 -0.0571 -0.2427 -0.0558
   41loPI   C6A  652   5.097  18.334   6.946 -0.0870 -0.0704 -0.1874
   41loPI   C1B  653   4.031  18.864   8.954  0.0194 -0.4858  0.0154
   41loPI   C2B  654   3.983  18.944   8.463 -0.2115  0.3415  0.1438
   41loPI   C3B  655   3.997  18.744   8.055  0.3714 -0.0861  0.2957
   41loPI   C4B  656   4.099  18.580   7.622  0.2844  0.0811 -0.2379
   42loPI    C1  657  11.205   2.814   9.582 -0.0573 -0.0678 -0.0864
   42loPI    C2  658  11.031   3.109   9.790  0.0421  0.0183 -0.1246
   42loPI    C3  659  10.881   2.738   9.804  0.0124  0.0364  0.0522
   42loPI   PO4  660  11.444   2.903   9.542  0.1433 -0.0308 -0.2583
   42loPI   GL1  661  11.535   2.839   9.173 -0.1176 -0.0698 -0.1830
   42loPI   GL2  662  11.335   2.526   9.164 -0.0714 -0.0243  0.5637
   42loPI   C1A  663  11.537   2.720   8.698 -0.2013 -0.1303 -0.0616
   42loPI   C2A  664  11.595   2.728   8.275  0.1711  0.0882 -0.1516
   42loPI   C3A  665  11.651   2.559   7.867  0.2244  0.0590 -0.1990
   42loPI   C4A  666  11.579   2.419   7.433 -0.0947 -0.1807  0.0930
   42loPI   C5A  667  11.666   2.575   7.020 -0.0858  0.2630 -0.0535
   42loPI   C6A  668  11.394   2.920   6.871 -0.0211  0.0238 -0.1521
   42loPI   C1B  669  11.232   2.136   8.863 -0.0064  0.1306 -0.0576
   42loPI   C2B  670  10.971   1.901   8.575 -0.0431 -0.2035 -0.1547
   42loPI   C3B  671  10.882   2.061   8.078  0.0555  0.3099 -0.3231
   42loPI   C4B  672  10.856   2.260   7.649  0.2226 -0.0165  0.6464
   43loPI    C1  673  12.755   3.841  10.160 -0.0200  0.0279  0.1241
   43loPI    C2  674  13.054   4.030  10.347 -0.0906  0.1619  0.1024
   43loPI    C3  675  12.727   3.921  10.551  0.0708 -0.1960  0.1785
   43loPI   PO4  676  12.844   3.934   9.891  0.1095  0.1744 -0.1430
   43loPI   GL1  677  12.612   4.027   9.445  0.1551  0.1506  0.1441
   43loPI   GL2  678  12.310   3.967   9.262  0.0069  0.0895 -0.0772
   43loPI   C1A  679  12.813   4.151   9.051  0.0277 -0.1099  0.0264
   43loPI   C2A  680  13.198   4.285   8.824  0.0548 -0.3797  0.0790
   43loPI   C3A  681  13.255   4.340   8.464 -0.2146  0.0834 -0.3152
   43loPI   C4A  682  13.607   4.259   8.180  0.3183 -0.1224 -0.1550
   43loPI   C5A  683  13.834   4.063   7.857  0.0620  0.0952  0.2064
   43loPI   C6A  684  13.800   3.870   7.491  0.1506  0.0330  0.0196
   43loPI   C1B  685  12.372   3.898   8.838 -0.3150  0.0697  0.1551
   43loPI   C2B  686  12.407   3.814   8.431  0.2251  0.1961 -0.0910
   43loPI   C3B  687  12.259   3.569   8.117 -0.1698 -0.0023  0.1974
   43loPI   C4B  688  12.001   3.421   7.859 -0.1266 -0.1478  0.1394
   44loPI    C1  689   6.024   2.323   9.794 -0.0742  0.1785 -0.0937
   44loPI    C2  690   6.389   2.428   9.918  0.0451 -0.1351 -0.1676
   44loPI    C3  691   6.110   2.322  10.184  0.0300  0.0315 -0.1159
   44loPI   PO4  692   5.905   2.467   9.579 -0.3214  0.1112  0.2296
   44loPI   GL1  693   5.844   2.412   9.149 -0.1040  0.1111  0.0853
   44loPI   GL2  694   5.463   2.455   9.100 -0.1726  0.0462 -0.0904
   44loPI   C1A  695   5.962   2.227   8.768 -0.1914  0.0783 -0.1282
   44loPI   C2A  696   5.889   2.272   8.334 -0.2797 -0.0338 -0.3103
   44loPI   C3A  697   5.857   2.131   7.995  0.1811  0.1279 -0.2893
   44loPI   C4A  698   5.976   2.215   7.565  0.0956  0.0025  0.0268
   44loPI   C5A  699   6.004   2.210   7.149  0.1743 -0.3275 -0.0638
   44loPI   C6A  700   5.586   2.187   6.883 -0.0660 -0.0152 -0.0305
   44loPI   C1B  701   5.453   2.367   8.731 -0.0580 -0.1785  0.2669
   44loPI   C2B  702   5.360   2.281   8.297 -0.0603  0.1227  0.1896
   44loPI   C3B  703   5.006   2.076   8.051  0.0030  0.0291 -0.0256
   44loPI   C4B  704   4.930   1.898   7.670 -0.0972  0.0278  0.0314
   45loPI    C1  705   2.515  12.778  10.149 -0.2227  0.1463 -0.0582
   45loPI    C2  706   2.872  12.725   9.975 -0.2684 -0.1367 -0.0705
   45loPI    C3  707   2.836  12.974  10.286 -0.0748 -0.0551 -0.1119
   45loPI   PO4  708   2.380  12.910   9.872  0.0266 -0.3091  0.1946
   45loPI   GL1  709   2.666  13.061   9.412 -0.2116  0.1136  0.0320
   45loPI   GL2  710   2.797  13.036   9.097  0.2724  0.2352 -0.1956
   45loPI   C1A  711   3.210  13.258   9.324  0.2001 -0.3712  0.3280
   45loPI   C2A  712   3.603  13.273   9.070 -0.2665  0.0540 -0.3233
   45loPI   C3A  713   3.951  13.352   8.739 -0.2592  0.1122 -0.2251
   45loPI   C4A  714   4.006  13.155   8.322 -0.2625  0.0573  0.2271
   45loPI   C5A  715   3.991  12.978   7.908 -0.2749  0.1086 -0.0206
   45loPI   C6A  716   3.857  12.676   7.646  0.0508 -0.1449 -0.1139
   45loPI   C1B  717   2.757  13.074   8.739  0.0267 -0.2256  0.2017
   45loPI   C2B  718   2.946  13.010   8.365 -0.0802 -0.3118  0.1026
   45loPI   C3B  719   2.995  13.098   7.994  0.2521 -0.2832 -0.2333
   45loPI   C4B  720   2.972  13.225   7.579  0.0165 -0.1004  0.0634
   46loPI    C1  721   9.672  14.458   9.894  0.0609 -0.0954 -0.0257
   46loPI    C2  722   9.646  14.387  10.287  0.3020 -0.6750 -0.1051
   46loPI    C3  723  10.001  14.466  10.122  0.1558 -0.0893 -0.1619
   46loPI   PO4  724   9.486  14.658   9.833  0.1555 -0.0307 -0.2660
   46loPI   GL1  725   9.418  15.029   9.514 -0.1042 -0.1210  0.2484
   46loPI   GL2  726   9.383  14.743   9.210 -0.0733 -0.1106 -0.0812
   46loPI   C1A  727   9.461  15.194   9.145 -0.0498 -0.3116 -0.0005
   46loPI   C2A  728   9.599  15.329   8.767 -0.2968 -0.0164  0.3778
   46loPI   C3A  729   9.745  15.504   8.540 -0.2329  0.0187  0.0257
   46loPI   C4A  730   9.963  15.675   8.128  0.0099  0.0784  0.0941
   46loPI   C5A  731  10.100  15.729   7.733 -0.1805 -0.3451 -0.0166
   46loPI   C6A  732  10.253  15.810   7.365 -0.2733 -0.1108  0.1683
   46loPI   C1B  733   9.273  14.764   8.846 -0.3041 -0.0584  0.0451
   46loPI   C2B  734   8.912  14.749   8.625 -0.1791  0.1328 -0.1907
   46loPI   C3B  735   9.023  14.819   8.175  0.2081 -0.0830 -0.5429
   46loPI   C4B  736   9.086  14.523   7.780  0.1063  0.1471 -0.3835
   47loPI    C1  737  13.067  11.121   9.598  0.0735  0.2730  0.0367
   47loPI    C2  738  12.719  10.923   9.591  0.2704 -0.0807  0.0267
   47loPI    C3  739  12.897  11.005   9.941  0.2388 -0.0094  0.0262
   47loPI   PO4  740  13.052  11.259   9.371  0.0588  0.1871  0.0334
   47loPI   GL1  741  13.230  11.501   9.028  0.2474  0.2001 -0.1038
   47loPI   GL2  742  13.525  11.669   9.123 -0.2473 -0.1128  0.0058
   47loPI   C1A  743  13.223  11.575   8.557 -0.2019  0.0713 -0.0748
   47loPI   C2A  744  13.295  11.717   8.089  0.0908  0.1384 -0.1319
   47loPI   C3A  745  13.411  11.963   7.785  0.1816  0.4658  0.4364
   47loPI   C4A  746  13.418  11.901   7.324  0.0958 -0.0012 -0.1326
   47loPI   C5A  747  13.635  12.175   7.145 -0.0510  0.0214  0.3240
   47loPI   C6A  748  13.987  12.479   7.371 -0.1569  0.4744  0.0429
   47loPI   C1B  749  13.603  11.948   8.768  0.0725  0.2188  0.2170
   47loPI   C2B  750  13.655  11.826   8.433 -0.0082  0.2263  0.4484
   47loPI   C3B  751  13.875  11.581   7.947  0.0477 -0.2352  0.1150
   47loPI   C4B  752  13.859  11.643   7.519  0.1412 -0.1507  0.0563
   48loPI    C1  753   0.586   6.064   9.642 -0.1415  0.1477  0.0281
   48loPI    C2  754   0.693   6.332   9.919  0.3661  0.1732 -0.1819
   48loPI    C3  755   0.549   5.976  10.031  0.0642  0.3787  0.1022
   48loPI   PO4  756   0.757   6.243   9.418 -0.4108  0.1194 -0.1761
   48loPI   GL1  757   0.671   5.962   9.135  0.0282 -0.0761 -0.0644
   48loPI   GL2  758   1.059   5.894   9.027  0.0280  0.2556  0.0687
   48loPI   C1A  759   0.361   5.734   8.885  0.1022 -0.0763  0.0477
   48loPI   C2A  760   0.199   5.729   8.386 -0.3823  0.3297 -0.1204
   48loPI   C3A  761  -0.004   5.848   7.970 -0.2134 -0.2624  0.2556
   48loPI   C4A  762  -0.153   6.176   7.749  0.0910 -0.0336  0.0042
   48loPI   C5A  763  -0.289   6.615   7.708 -0.0853  0.1898  0.3451
   48loPI   C6A  764   0.004   6.978   7.489  0.1723 -0.3680  0.2546
   48loPI   C1B  765   0.972   5.612   8.717  0.2961 -0.1713  0.1370
   48loPI   C2B  766   0.950   5.326   8.398  0.0757 -0.2718  0.1918
   48loPI   C3B  767   1.153   5.307   8.000  0.3482 -0.3180 -0.2082
   48loPI   C4B  768   1.193   5.387   7.583 -0.3033 -0.0261  0.1515
   49loPI    C1  769  13.616  12.353   9.671  0.1011  0.2141  0.1113
   49loPI    C2  770  13.661  12.117   9.990  0.0603  0.0967  0.0307
   49loPI    C3  771  13.479  11.978   9.663  0.0690  0.2285 -0.0306
   49loPI   PO4  772  13.928  12.439   9.611  0.1166 -0.4124 -0.1769
   49loPI   GL1  773  14.098  12.546   9.226  0.0863  0.2201  0.0021
   49loPI   GL2  774  14.363  12.774   9.352  0.0903 -0.0897  0.0315
   49loPI   C1A  775  13.952  12.704   8.870  0.1140 -0.3764 -0.2441
   49loPI   C2A  776  13.619  12.831   8.687 -0.3160  0.1458  0.2293
   49loPI   C3A  777  13.486  12.944   8.235 -0.2515  0.2003  0.3551
   49loPI   C4A  778  13.409  12.934   7.791 -0.0023 -0.3948  0.2969
   49loPI   C5A  779  13.565  12.947   7.323 -0.0716 -0.3858 -0.2694
   49loPI   C6A  780  13.328  12.857   6.963  0.3676 -0.1234 -0.1558
   49loPI   C1B  781  14.426  12.885   8.974  0.0935 -0.0493  0.1990
   49loPI   C2B  782  14.573  13.136   8.651 -0.4261 -0.2126  0.1403
   49loPI   C3B  783  14.678  13.101   8.216 -0.0294 -0.1934 -0.1212
   49loPI   C4B  784  14.510  12.764   8.001  0.1102 -0.0672  0.0845
   50loPI    C1  785   2.496  18.455  10.107 -0.0263 -0.2148  0.0223
   50loPI    C2  786   2.113  18.537  10.188 -0.0504 -0.3604  0.0587
   50loPI    C3  787   2.341  18.356  10.463  0.1002 -0.0948  0.1114
   50loPI   PO4  788   2.535  18.400   9.841 -0.2521 -0.2184  0.0709
   50loPI   GL1  789   2.514  18.724   9.516 -0.1874 -0.0413 -0.0928
   50loPI   GL2  790   2.822  18.429   9.472 -0.2589 -0.1446  0.2764
   50loPI   C1A  791   2.410  18.721   9.150 -0.2269  0.0520 -0.0327
   50loPI   C2A  792   2.180  18.916   8.842 -0.3347  0.0428  0.0861
   50loPI   C3A  793   2.028  18.899   8.422 -0.0511 -0.1565 -0.2638
   50loPI   C4A  794   2.105  18.870   8.051  0.0278  0.0742  0.0630
   50loPI   C5A  795   2.082  19.023   7.560  0.2265 -0.0498  0.2142
   50loPI   C6A  796   2.057  19.515   7.489 -0.1763  0.0670 -0.1651
   50loPI   C1B  797   2.884  18.600   9.055  0.1992 -0.1521  0.2212
   50loPI   C2B  798   2.577  18.568   8.696 -0.0777 -0.2121  0.1887
   50loPI   C3B  799   2.514  18.524   8.197  0.0481 -0.0364 -0.2798
   50loPI   C4B  800   2.466  18.578   7.736 -0.1181  0.2367 -0.1206
   51loPI    C1  801   3.476  14.447  10.126  0.1019 -0.4166 -0.0517
   51loPI    C2  802   3.153  14.493  10.357  0.0797 -0.0467 -0.1507
   51loPI    C3  803   3.280  14.126  10.263 -0.2522 -0.1967 -0.0304
   51loPI   PO4  804   3.400  14.677   9.913 -0.0037 -0.0652 -0.1352
   51loPI   GL1  805   3.303  14.636   9.412 -0.2014 -0.0827  0.0294
   51loPI   GL2  806   2.985  14.538   9.506  0.1298  0.0429  0.0158
   51loPI   C1A  807   3.550  14.667   8.964 -0.0755  0.1226 -0.0838
   51loPI   C2A  808   3.862  14.705   8.523 -0.3604 -0.5300 -0.0575
   51loPI   C3A  809   3.829  14.834   8.113 -0.2093  0.0349 -0.0169
   51loPI   C4A  810   3.947  14.843   7.842  0.0545 -0.3339 -0.3617
   51loPI   C5A  811   4.165  14.773   7.568  0.0427  0.0138  0.0779
   51loPI   C6A  812   4.414  14.740   7.146 -0.2138  0.0173 -0.1869
   51loPI   C1B  813   2.911  14.468   9.085 -0.3516 -0.2818  0.1073
   51loPI   C2B  814   2.943  14.611   8.727 -0.0953 -0.1868 -0.1957
   51loPI   C3B  815   3.252  14.910   8.479 -0.0411 -0.1183 -0.0982
   51loPI   C4B  816   3.318  14.883   8.001 -0.0240  0.1493  0.3704
   52loPI    C1  817  14.211   0.043  11.017 -0.1313 -0.0985 -0.0901
   52loPI    C2  818  14.263  -0.155  11.361  0.0578  0.0496 -0.0313
   52loPI    C3  819  14.441   0.199  11.305 -0.0007  0.0434 -0.2684
   52loPI   PO4  820  14.016   0.130  10.899  0.0901  0.0366  0.0849
   52loPI   GL1  821  13.744  -0.101  10.478 -0.1553  0.1876  0.1407
   52loPI   GL2  822  13.733  -0.380  10.328  0.3824  0.1890  0.1915
   52loPI   C1A  823  13.654   0.039  10.082 -0.2539 -0.1903 -0.0107
   52loPI   C2A  824  13.620   0.136   9.679 -0.3347 -0.2008  0.0296
   52loPI   C3A  825  13.519   0.141   9.241  0.3966 -0.1800  0.2797
   52loPI   C4A  826  13.349   0.117   8.806 -0.0376 -0.0487  0.0136
   52loPI   C5A  827  13.346   0.177   8.342 -0.1105 -0.1618 -0.1498
   52loPI   C6A  828  13.512  -0.077   7.975 -0.1092  0.0224 -0.1996
   52loPI   C1B  829  13.883  -0.433   9.975 -0.1515 -0.0633 -0.3214
   52loPI   C2B  830  14.076  -0.189   9.655 -0.0571 -0.0437 -0.0528
   52loPI   C3B  831  14.024   0.086   9.259 -0.3844 -0.0434 -0.0113
   52loPI   C4B  832  13.851   0.362   8.936 -0.0583  0.1460  0.2527
   53loPI    C1  833  12.479   5.992   9.665 -0.1856 -0.1418 -0.1724
   53loPI    C2  834  12.678   5.681   9.818 -0.0253  0.0407 -0.0027
   53loPI    C3  835  12.447   5.906  10.055 -0.1672  0.0326 -0.1312
   53loPI   PO4  836  12.394   6.063   9.461  0.0132  0.1869 -0.2378
   53loPI   GL1  837  12.206   5.915   9.212 -0.4670  0.1710  0.0258
   53loPI   GL2  838  12.125   6.235   9.037  0.0194  0.1001 -0.1723
   53loPI   C1A  839  12.409   5.848   8.784  0.0251 -0.1355  0.3168
   53loPI   C2A  840  12.232   5.828   8.273  0.2630 -0.2451  0.3236
   53loPI   C3A  841  12.377   5.730   7.815 -0.1873 -0.3648  0.1549
   53loPI   C4A  842  12.281   5.592   7.390  0.1612 -0.2752  0.1209
   53loPI   C5A  843  12.140   5.208   7.141  0.2513 -0.1623 -0.0743
   53loPI   C6A  844  11.945   5.016   6.874 -0.0943  0.0660  0.0480
   53loPI   C1B  845  11.840   6.470   8.739 -0.1932  0.0954 -0.3197
   53loPI   C2B  846  11.696   6.241   8.374 -0.0615 -0.5319 -0.0826
   53loPI   C3B  847  11.586   6.306   7.954  0.0658 -0.1916  0.0001
   53loPI   C4B  848  11.595   6.422   7.493 -0.1271  0.0654  0.1135
   54loPI    C1  849   7.822   4.525   9.574 -0.0446 -0.3995  0.0562
   54loPI    C2  850   8.122   4.415   9.815  0.0583 -0.0645  0.0870
   54loPI    C3  851   7.823   4.638   9.958  0.0088 -0.0461 -0.0436
   54loPI   PO4  852   7.911   4.456   9.382 -0.1383 -0.0668  0.3056
   54loPI   GL1  853   8.126   4.478   9.020  0.1939  0.0995 -0.0234
   54loPI   GL2  854   8.097   4.850   9.022 -0.3756  0.1466 -0.1960
   54loPI   C1A  855   8.381   4.603   8.659 -0.0137  0.1058  0.1160
   54loPI   C2A  856   8.168   4.781   8.218 -0.1430  0.0965  0.2537
   54loPI   C3A  857   8.123   4.920   7.819  0.1510 -0.1923 -0.0699
   54loPI   C4A  858   8.069   5.205   7.514 -0.4579 -0.0909 -0.0289
   54loPI   C5A  859   8.116   5.550   7.263 -0.1311  0.0231 -0.1168
   54loPI   C6A  860   8.288   5.630   6.840  0.1131  0.1478  0.0232
   54loPI   C1B  861   7.908   4.802   8.664 -0.2382 -0.2625  0.3522
   54loPI   C2B  862   7.623   4.621   8.322 -0.2025  0.1488  0.1604
   54loPI   C3B  863   7.667   4.710   7.912  0.1119  0.0211  0.0703
   54loPI   C4B  864   7.682   4.821   7.450 -0.1259 -0.0854  0.0202
   55loPI    C1  865  18.502  15.328   9.990 -0.0315  0.1757 -0.1996
   55loPI    C2  866  18.191  15.199   9.773 -0.1388  0.1810 -0.0514
   55loPI    C3  867  18.180  15.174  10.172  0.0661  0.1501 -0.0467
   55loPI   PO4  868  18.623  15.431   9.797  0.0619  0.1986  0.1139
   55loPI   GL1  869  18.500  15.379   9.391  0.0160  0.0548 -0.0587
   55loPI   GL2  870  18.495  15.655   9.373  0.2861  0.0348 -0.0137
   55loPI   C1A  871  18.867  15.405   9.106 -0.0510 -0.0230 -0.0667
   55loPI   C2A  872  18.925  15.500   8.612  0.0486  0.1852  0.1650
   55loPI   C3A  873  18.842  15.496   8.212  0.0330 -0.0497  0.1980
   55loPI   C4A  874  18.979  15.468   7.736  0.1228 -0.4460  0.0062
   55loPI   C5A  875  19.197  15.427   7.392  0.0563 -0.0013 -0.0519
   55loPI   C6A  876  19.176  15.009   7.102 -0.0868 -0.0944 -0.4755
   55loPI   C1B  877  18.391  16.068   9.339  0.0331  0.2444  0.2994
   55loPI   C2B  878  18.241  16.279   9.002  0.1835  0.0543  0.1384
   55loPI   C3B  879  18.133  16.136   8.591  0.2647 -0.0750 -0.4143
   55loPI   C4B  880  17.781  16.041   8.280 -0.0874 -0.2269  0.1015
   56loPI    C1  881   0.897   3.534   9.997  0.1923 -0.1851 -0.0274
   56loPI    C2  882   1.176   3.344  10.212  0.0867 -0.2456  0.0572
   56loPI    C3  883   0.803   3.378  10.353  0.0546 -0.1518 -0.0486
   56loPI   PO4  884   0.865   3.472   9.760  0.1833 -0.0904 -0.0234
   56loPI   GL1  885   1.049   3.570   9.307  0.0162 -0.0025 -0.0551
   56loPI   GL2  886   1.238   3.451   9.208  0.1236 -0.0759  0.0486
   56loPI   C1A  887   0.914   3.724   8.904  0.3365  0.2762  0.4484
   56loPI   C2A  888   1.143   3.803   8.494  0.0705  0.2674  0.1973
   56loPI   C3A  889   1.153   3.989   7.990  0.2105 -0.0824 -0.1870
   56loPI   C4A  890   1.049   4.030   7.573  0.0369 -0.1944 -0.0864
   56loPI   C5A  891   0.998   4.383   7.266 -0.0579 -0.1374 -0.1289
   56loPI   C6A  892   0.613   4.511   7.088 -0.2455 -0.1075  0.1125
   56loPI   C1B  893   1.458   3.541   8.900  0.0486  0.2244  0.2429
   56loPI   C2B  894   1.515   3.465   8.514 -0.2168  0.1502  0.0808
   56loPI   C3B  895   1.488   3.520   8.063 -0.0826  0.2635 -0.1315
   56loPI   C4B  896   1.318   3.433   7.623 -0.0725 -0.0257  0.0791
   57loPI    C1  897   1.140  11.848   9.988 -0.0779 -0.0318  0.0757
   57loPI    C2  898   1.161  12.247   9.970 -0.1666 -0.0337 -0.0926
   57loPI    C3  899   0.825  12.059   9.860 -0.1566 -0.1501  0.0725
   57loPI   PO4  900   1.367  11.719   9.785  0.2262  0.1567 -0.0761
   57loPI   GL1  901   1.423  11.729   9.279 -0.0161  0.1190 -0.2424
   57loPI   GL2  902   1.777  11.636   9.374 -0.0168  0.1105 -0.2852
   57loPI   C1A  903   1.081  11.805   8.826 -0.3472  0.2862 -0.0496
   57loPI   C2A  904   0.976  11.754   8.433  0.1904 -0.0552 -0.0240
   57loPI   C3A  905   0.888  11.664   8.072  0.1439  0.1444  0.2796
   57loPI   C4A  906   0.836  11.567   7.629  0.2437 -0.1933 -0.2478
   57loPI   C5A  907   1.198  11.380   7.511 -0.1636  0.1011  0.1594
   57loPI   C6A  908   1.547  11.095   7.442 -0.1794  0.0778  0.1552
   57loPI   C1B  909   1.890  11.608   9.013  0.0755  0.1654  0.1698
   57loPI   C2B  910   1.953  11.590   8.556 -0.0530 -0.2353  0.0825
   57loPI   C3B  911   1.909  11.451   8.199  0.1752 -0.3393 -0.0272
   57loPI   C4B  912   2.057  11.150   7.817 -0.1432  0.0464  0.2617
   58loPI    C1  913   9.038  11.731   9.633 -0.2277 -0.1219  0.0149
   58loPI    C2  914   8.825  11.486   9.867 -0.0643 -0.1469  0.1393
   58loPI    C3  915   9.181  11.621   9.990 -0.0254 -0.0733 -0.0498
   58loPI   PO4  916   9.098  11.566   9.359  0.2091 -0.2602  0.1907
   58loPI   GL1  917   9.096  11.450   9.000 -0.2286 -0.1078  0.0451
   58loPI   GL2  918   8.825  11.719   9.018 -0.3160 -0.1461 -0.1501
   58loPI   C1A  919   9.488  11.406   8.758 -0.0002 -0.0181  0.2074
   58loPI   C2A  920   9.445  11.508   8.324  0.0763  0.4382  0.0393
   58loPI   C3A  921   9.721  11.743   8.010  0.0058 -0.2469  0.2296
   58loPI   C4A  922   9.909  11.753   7.696 -0.4565  0.2119  0.0557
   58loPI   C5A  923  10.209  12.027   7.571  0.0519  0.0085  0.0584
   58loPI   C6A  924  10.633  12.052   7.465 -0.0800 -0.0890 -0.0172
   58loPI   C1B  925   8.474  11.729   8.747  0.0843  0.0750  0.1396
   58loPI   C2B  926   8.366  11.658   8.297 -0.1168  0.3423  0.0461
   58loPI   C3B  927   8.375  11.705   7.913 -0.2420 -0.3246  0.2854
   58loPI   C4B  928   8.319  11.411   7.534 -0.3333 -0.1700 -0.0261
   59loPI    C1  929  14.586  13.644  10.581 -0.0703  0.2388  0.1110
   59loPI    C2  930  14.760  13.997  10.655 -0.0298  0.2482 -0.0263
   59loPI    C3  931  14.751  13.714  10.938  0.2856  0.2165 -0.0451
   59loPI   PO4  932  14.666  13.635  10.273 -0.1368  0.2135 -0.2375
   59loPI   GL1  933  14.859  13.619   9.786  0.0020  0.1742  0.0059
   59loPI   GL2  934  14.888  13.860   9.649 -0.1720  0.2434  0.0362
   59loPI   C1A  935  14.856  13.479   9.358  0.1910 -0.1496 -0.4941
   59loPI   C2A  936  14.902  13.096   9.060 -0.0404  0.1592  0.0270
   59loPI   C3A  937  15.225  12.917   8.931 -0.5035 -0.1018  0.1049
   59loPI   C4A  938  15.561  12.749   8.625 -0.2088  0.1179 -0.0643
   59loPI   C5A  939  15.488  12.790   8.200  0.0746  0.3523 -0.3355
   59loPI   C6A  940  15.458  12.516   7.941 -0.0676 -0.3316 -0.0811
   59loPI   C1B  941  14.725  13.907   9.193 -0.2855  0.0793 -0.0329
   59loPI   C2B  942  14.592  13.904   8.745  0.3285  0.0294  0.1383
   59loPI   C3B  943  14.724  13.654   8.471  0.0601 -0.1104 -0.2618
   59loPI   C4B  944  15.131  13.281   8.587 -0.1450  0.1127  0.5855
   60loPI    C1  945   0.203  16.713  10.017 -0.0631 -0.2432 -0.1030
   60loPI    C2  946   0.164  17.108  10.067  0.1357 -0.1938 -0.3162
   60loPI    C3  947   0.181  16.866  10.385  0.2078 -0.0109 -0.1794
   60loPI   PO4  948   0.090  16.690   9.793  0.1919  0.0278  0.0967
   60loPI   GL1  949   0.245  16.765   9.396  0.0230  0.2583  0.0567
   60loPI   GL2  950   0.423  16.966   9.592 -0.2570 -0.1926  0.0300
   60loPI   C1A  951   0.516  16.823   9.050  0.1349 -0.2008 -0.1850
   60loPI   C2A  952   0.486  16.805   8.593 -0.1860 -0.0689 -0.0818
   60loPI   C3A  953   0.418  16.713   8.146  0.4786 -0.0580  0.1002
   60loPI   C4A  954   0.314  16.598   7.705  0.4186 -0.1421  0.0443
   60loPI   C5A  955   0.023  16.733   7.376 -0.1578 -0.3583 -0.1997
   60loPI   C6A  956  -0.347  16.761   7.091  0.2734  0.2321  0.0931
   60loPI   C1B  957   0.268  17.239   9.236 -0.2856 -0.0505  0.0071
   60loPI   C2B  958   0.086  17.105   8.818  0.1838  0.1359  0.5610
   60loPI   C3B  959  -0.002  17.121   8.374 -0.0273  0.1310 -0.0652
   60loPI   C4B  960  -0.069  17.116   7.922  0.1233 -0.2106 -0.0085
   61loPI    C1  961   2.737   9.148   9.889 -0.0581  0.2020 -0.3252
   61loPI    C2  962   3.118   9.266   9.859  0.0191  0.0394 -0.0287
   61loPI    C3  963   2.927   9.294  10.209 -0.2127  0.0304 -0.1524
   61loPI   PO4  964   2.637   9.280   9.680  0.2294  0.2258 -0.1436
   61loPI   GL1  965   2.426   9.261   9.319 -0.2876  0.2085  0.1274
   61loPI   GL2  966   2.826   9.427   9.223  0.0872  0.1862  0.0591
   61loPI   C1A  967   2.388   9.400   8.930  0.0273  0.1479  0.1272
   61loPI   C2A  968   2.651   9.475   8.596  0.1777  0.3631 -0.0437
   61loPI   C3A  969   2.701   9.492   8.191  0.1552 -0.2123  0.1155
   61loPI   C4A  970   2.427   9.414   7.798 -0.7214 -0.0270 -0.0988
   61loPI   C5A  971   2.636   9.219   7.463 -0.0435 -0.1350 -0.0152
   61loPI   C6A  972   2.618   9.068   6.961  0.0449 -0.1891 -0.1743
   61loPI   C1B  973   2.862   9.028   9.006  0.2135 -0.2383  0.0702
   61loPI   C2B  974   2.986   8.874   8.602 -0.0235 -0.0449  0.5424
   61loPI   C3B  975   2.955   8.681   8.157  0.1522  0.1346 -0.1227
   61loPI   C4B  976   3.225   8.581   7.834 -0.0156  0.1092 -0.0152
   62loPI    C1  977   8.832  13.529   9.890  0.0933  0.0816 -0.1177
   62loPI    C2  978   9.126  13.277   9.788  0.3419  0.3364 -0.0444
   62loPI    C3  979   9.050  13.351  10.174  0.1135  0.1968 -0.0605
   62loPI   PO4  980   8.752  13.616   9.620  0.0394  0.3309  0.3335
   62loPI   GL1  981   8.737  13.758   9.232  0.0057  0.2043 -0.1110
   62loPI   GL2  982   8.679  14.017   9.076 -0.1580 -0.3009  0.2870
   62loPI   C1A  983   8.689  13.599   8.844 -0.0668 -0.1193  0.0974
   62loPI   C2A  984   8.758  13.469   8.576  0.1850  0.1594 -0.0434
   62loPI   C3A  985   9.018  13.434   8.150  0.1670  0.2020 -0.2923
   62loPI   C4A  986   8.894  13.363   7.758 -0.1800 -0.3832  0.2809
   62loPI   C5A  987   8.975  13.456   7.260  0.0566 -0.0123  0.1578
   62loPI   C6A  988   9.207  13.304   6.868 -0.0271 -0.0463  0.0862
   62loPI   C1B  989   8.605  14.265   8.644  0.0246 -0.1426 -0.2710
   62loPI   C2B  990   8.746  14.415   8.190  0.2966 -0.3836 -0.0250
   62loPI   C3B  991   8.583  14.578   7.791 -0.1614  0.1486  0.0912
   62loPI   C4B  992   8.224  14.445   7.492 -0.0399 -0.2338 -0.1968
   63loPI    C1  993  13.634   4.787  10.012  0.0737 -0.1832 -0.0798
   63loPI    C2  994  13.319   4.633  10.205  0.0219 -0.2092 -0.1840
   63loPI    C3  995  13.400   5.023  10.235  0.2095 -0.2700  0.1582
   63loPI   PO4  996  13.645   4.637   9.677  0.1099 -0.0673 -0.0879
   63loPI   GL1  997  13.616   4.799   9.385 -0.1011  0.1680  0.3787
   63loPI   GL2  998  13.768   5.041   9.184  0.1577  0.2142  0.3695
   63loPI   C1A  999  13.481   4.695   9.012 -0.1244 -0.1675  0.0251
   63loPI   C2A 1000  13.692   4.514   8.597 -0.0565 -0.0398  0.4099
   63loPI   C3A 1001  13.940   4.667   8.435  0.1489 -0.1016  0.0540
   63loPI   C4A 1002  13.887   4.544   7.949 -0.1755 -0.1147  0.1593
   63loPI   C5A 1003  13.606   4.483   7.696 -0.0949 -0.0318 -0.1288
   63loPI   C6A 1004  13.395   4.694   7.367 -0.0619  0.2076 -0.2062
   63loPI   C1B 1005  13.731   5.104   8.743 -0.0762  0.0576 -0.0594
   63loPI   C2B 1006  13.817   5.158   8.307 -0.2054  0.0091 -0.1110
   63loPI   C3B 1007  13.992   5.116   7.895 -0.2166 -0.1661  0.4450
   63loPI   C4B 1008  13.827   4.917   7.493  0.2297 -0.3971  0.6276
   64loPI    C1 1009   0.881  12.527   9.721 -0.2979 -0.2309 -0.0967
   64loPI    C2 1010   0.694  12.867   9.819 -0.1171 -0.1242 -0.1176
   64loPI    C3 1011   0.952  12.700  10.075  0.1075 -0.0214 -0.2740
   64loPI   PO4 1012   0.879  12.581   9.488  0.0643  0.1439 -0.2226
   64loPI   GL1 1013   0.970  12.892   9.197 -0.2226  0.0488  0.0248
   64loPI   GL2 1014   0.739  13.058   9.264 -0.0374 -0.0908 -0.0614
   64loPI   C1A 1015   1.129  12.643   8.889 -0.1807  0.0328 -0.1575
   64loPI   C2A 1016   1.213  12.642   8.444 -0.3291  0.1011 -0.0001
   64loPI   C3A 1017   1.274  12.335   8.097  0.0528  0.0271  0.0315
   64loPI   C4A 1018   1.138  11.982   7.768  0.1048  0.0687  0.1668
   64loPI   C5A 1019   0.947  11.980   7.331  0.3045 -0.2241  0.1728
   64loPI   C6A 1020   1.002  11.812   6.962 -0.1392  0.0330  0.0667
   64loPI   C1B 1021   0.671  13.180   8.831  0.0095 -0.0840  0.3491
   64loPI   C2B 1022   0.587  13.137   8.287 -0.0969 -0.1501  0.0605
   64loPI   C3B 1023   0.624  12.979   7.783  0.0019  0.0042  0.1836
   64loPI   C4B 1024   0.503  12.874   7.396 -0.0487 -0.0161 -0.1956
   65loPI    C1 1025  17.995   5.433   9.765  0.0831  0.1500  0.0903
   65loPI    C2 1026  18.184   5.399  10.116  0.2005  0.0523  0.0186
   65loPI    C3 1027  17.809   5.538  10.103  0.1049 -0.1812  0.2087
   65loPI   PO4 1028  18.203   5.419   9.599 -0.0219  0.0516 -0.2826
   65loPI   GL1 1029  18.294   5.206   9.163 -0.0364  0.1693 -0.5239
   65loPI   GL2 1030  18.318   5.023   8.992  0.4141  0.5088 -0.1314
   65loPI   C1A 1031  18.044   5.495   8.863 -0.3407  0.1270 -0.0856
   65loPI   C2A 1032  17.823   5.554   8.487 -0.0510  0.0174  0.0603
   65loPI   C3A 1033  17.875   5.589   8.026  0.1823 -0.4629 -0.3543
   65loPI   C4A 1034  17.786   5.359   7.702  0.0095 -0.1870  0.1812
   65loPI   C5A 1035  17.850   5.512   7.402 -0.0640 -0.0842  0.0779
   65loPI   C6A 1036  17.698   5.787   7.074 -0.1372 -0.1566 -0.0188
   65loPI   C1B 1037  17.915   4.986   8.776 -0.0517  0.1277  0.3978
   65loPI   C2B 1038  17.696   4.779   8.556 -0.1168  0.0198  0.1548
   65loPI   C3B 1039  17.256   4.476   8.652 -0.0140  0.3175 -0.0225
   65loPI   C4B 1040  16.912   4.327   8.451 -0.3458  0.0195 -0.0353
   66loPI    C1 1041  16.613  14.542  10.242 -0.1128  0.0093 -0.2625
   66loPI    C2 1042  16.555  14.820  10.524  0.1560 -0.0786 -0.1176
   66loPI    C3 1043  16.304  14.510  10.494  0.0883 -0.0342 -0.0171
   66loPI   PO4 1044  16.724  14.648  10.029  0.4122  0.0910 -0.0159
   66loPI   GL1 1045  16.860  14.837   9.670 -0.1091 -0.1000 -0.2968
   66loPI   GL2 1046  17.095  14.584   9.588  0.1185  0.1028  0.1309
   66loPI   C1A 1047  16.635  14.932   9.353  0.0585 -0.2929 -0.2846
   66loPI   C2A 1048  16.666  15.012   8.892 -0.1477 -0.0665 -0.1731
   66loPI   C3A 1049  16.556  14.986   8.411 -0.1301  0.3226 -0.0257
   66loPI   C4A 1050  16.401  15.037   8.042 -0.3215 -0.1799 -0.5469
   66loPI   C5A 1051  16.486  15.297   7.612  0.1952  0.1740  0.0426
   66loPI   C6A 1052  16.237  15.604   7.357  0.3757 -0.2229  0.0937
   66loPI   C1B 1053  16.769  14.469   9.295  0.5587  0.2352 -0.3537
   66loPI   C2B 1054  16.457  14.498   9.089 -0.2625 -0.1552 -0.0673
   66loPI   C3B 1055  16.279  14.731   8.860 -0.1458 -0.5870  0.1599
   66loPI   C4B 1056  16.088  14.827   8.449 -0.1340  0.0274  0.0337
   67loPI    C1 1057   7.706  14.404   9.906 -0.1491 -0.1968  0.0143
   67loPI    C2 1058   7.481  14.633  10.144  0.0177 -0.2008  0.1778
   67loPI    C3 1059   7.451  14.235  10.163  0.0595 -0.2019  0.2205
   67loPI   PO4 1060   7.762  14.544   9.614  0.3367  0.2113  0.1534
   67loPI   GL1 1061   7.656  14.588   9.192 -0.4126 -0.0800 -0.1663
   67loPI   GL2 1062   7.431  14.427   9.134  0.1769 -0.3570  0.2837
   67loPI   C1A 1063   7.936  14.691   8.937  0.2108 -0.3764 -0.0749
   67loPI   C2A 1064   8.062  15.018   8.722  0.0971  0.1087 -0.0979
   67loPI   C3A 1065   8.091  15.241   8.407  0.1768 -0.1563  0.0842
   67loPI   C4A 1066   8.102  15.359   7.955 -0.1989 -0.2003  0.2801
   67loPI   C5A 1067   8.062  15.371   7.479 -0.2268 -0.0023  0.1502
   67loPI   C6A 1068   8.192  15.748   7.281  0.0263  0.0238  0.1404
   67loPI   C1B 1069   7.649  14.310   8.822 -0.0339  0.0955  0.1480
   67loPI   C2B 1070   7.535  14.388   8.344 -0.0999 -0.1054 -0.0047
   67loPI   C3B 1071   7.213  14.213   7.967  0.3537  0.3651 -0.1986
   67loPI   C4B 1072   6.951  14.020   7.855  0.1178 -0.2240  0.0450
   68loPI    C1 1073   4.184  11.171   9.738 -0.0150 -0.0536 -0.0285
   68loPI    C2 1074   4.021  11.243  10.096 -0.0481 -0.2206 -0.0090
   68loPI    C3 1075   4.232  10.908  10.036  0.1466 -0.0866 -0.0826
   68loPI   PO4 1076   4.101  11.129   9.565  0.0209  0.1019 -0.0725
   68loPI   GL1 1077   4.018  11.306   9.121 -0.0579  0.0957 -0.1600
   68loPI   GL2 1078   4.105  10.857   9.137 -0.2657 -0.1844  0.2439
   68loPI   C1A 1079   3.729  11.227   8.750 -0.0090  0.1521 -0.0503
   68loPI   C2A 1080   3.521  11.047   8.356  0.1834  0.1358  0.3308
   68loPI   C3A 1081   3.328  11.287   7.925  0.0338 -0.2300 -0.2374
   68loPI   C4A 1082   3.022  11.539   7.787  0.2140  0.0820 -0.1865
   68loPI   C5A 1083   2.807  11.591   7.379  0.1277  0.1582 -0.0424
   68loPI   C6A 1084   2.641  11.875   7.102 -0.1758  0.0288 -0.2538
   68loPI   C1B 1085   4.195  10.713   8.707 -0.1555 -0.0417 -0.0566
   68loPI   C2B 1086   3.863  10.672   8.433  0.0907  0.1418 -0.1008
   68loPI   C3B 1087   3.801  10.720   7.893 -0.0430  0.2265  0.2945
   68loPI   C4B 1088   3.457  10.807   7.544  0.1675 -0.0471  0.3297
   69loPI    C1 1089   9.949  17.320  10.278 -0.2883 -0.1156 -0.1428
   69loPI    C2 1090   9.879  16.970  10.459  0.1882 -0.2034 -0.1152
   69loPI    C3 1091   9.767  17.312  10.634  0.1373 -0.3174  0.0771
   69loPI   PO4 1092   9.890  17.251  10.051 -0.2206 -0.6650 -0.2384
   69loPI   GL1 1093   9.739  17.549   9.703  0.1992  0.0391 -0.1900
   69loPI   GL2 1094   9.932  17.806   9.895  0.1518  0.1434  0.2940
   69loPI   C1A 1095   9.902  17.600   9.327  0.1749 -0.0617  0.2084
   69loPI   C2A 1096   9.944  17.653   8.866 -0.4988  0.0008  0.1072
   69loPI   C3A 1097  10.148  17.701   8.423  0.2624  0.1506  0.2026
   69loPI   C4A 1098  10.249  17.736   7.960  0.0773 -0.1494 -0.1671
   69loPI   C5A 1099  10.178  17.422   7.756 -0.0722 -0.0445 -0.1378
   69loPI   C6A 1100  10.318  16.973   7.693  0.1406 -0.3408  0.0699
   69loPI   C1B 1101   9.918  18.119   9.509  0.3023  0.1426 -0.0231
   69loPI   C2B 1102  10.047  18.116   9.083  0.0769 -0.2088  0.2538
   69loPI   C3B 1103  10.187  18.094   8.723  0.1466  0.1544 -0.2534
   69loPI   C4B 1104  10.286  18.164   8.272 -0.2221 -0.1253 -0.1193
   70loPI    C1 1105  16.420  15.054   9.935 -0.0026  0.0455 -0.2539
   70loPI    C2 1106  16.675  15.333   9.805  0.0406  0.1503  0.0482
   70loPI    C3 1107  16.744  15.144  10.151 -0.2096  0.0673  0.0546
   70loPI   PO4 1108  16.221  15.130   9.923 -0.0096  0.1654 -0.1293
   70loPI   GL1 1109  15.925  15.131   9.535 -0.1403 -0.0246 -0.2581
   70loPI   GL2 1110  15.585  15.123   9.543 -0.0463 -0.3198 -0.3490
   70loPI   C1A 1111  15.754  15.345   9.133 -0.2245 -0.1228 -0.0167
   70loPI   C2A 1112  15.680  15.493   8.720  0.1453  0.1287  0.2537
   70loPI   C3A 1113  15.649  15.531   8.207 -0.1663 -0.1982  0.3950
   70loPI   C4A 1114  15.361  15.618   7.786 -0.2489 -0.1303  0.3250
   70loPI   C5A 1115  15.034  15.640   7.483 -0.1851 -0.3042 -0.0188
   70loPI   C6A 1116  14.681  15.886   7.303  0.2206  0.2041 -0.1175
   70loPI   C1B 1117  15.285  15.181   9.211 -0.1859  0.3350 -0.0140
   70loPI   C2B 1118  14.952  15.381   9.047 -0.1721  0.1907 -0.2789
   70loPI   C3B 1119  14.721  15.324   8.655  0.0892  0.0007 -0.3034
   70loPI   C4B 1120  14.867  15.335   8.258 -0.2245 -0.1462  0.0441
   71loPI    C1 1121  16.715   6.702   9.626  0.1660 -0.0633 -0.0258
   71loPI    C2 1122  16.411   6.921   9.765  0.0801 -0.2844  0.1414
   71loPI    C3 1123  16.752   6.899   9.972  0.0932 -0.2992  0.1183
   71loPI   PO4 1124  16.596   6.460   9.601 -0.3937  0.4187 -0.3525
   71loPI   GL1 1125  16.482   6.302   9.277 -0.0933 -0.0501  0.0534
   71loPI   GL2 1126  16.657   6.199   9.009  0.1317  0.2634 -0.1361
   71loPI   C1A 1127  16.135   6.111   8.922  0.0743  0.0098 -0.1128
   71loPI   C2A 1128  16.106   5.830   8.537 -0.0275 -0.1470 -0.0760
   71loPI   C3A 1129  16.163   5.866   8.126 -0.1377 -0.2562  0.1339
   71loPI   C4A 1130  16.173   5.853   7.651  0.3149  0.3261  0.0473
   71loPI   C5A 1131  16.141   5.733   7.150  0.2011 -0.5386 -0.2298
   71loPI   C6A 1132  15.934   5.649   6.764  0.3320 -0.0343  0.1951
   71loPI   C1B 1133  16.558   5.977   8.667 -0.1718 -0.1195 -0.3427
   71loPI   C2B 1134  16.730   5.791   8.231 -0.0423  0.3427 -0.3704
   71loPI   C3B 1135  16.952   5.690   7.822  0.1710 -0.0377  0.2406
   71loPI   C4B 1136  17.076   5.769   7.355 -0.0404  0.0079 -0.1689
   72loPI    C1 1137   0.863   6.912   9.743 -0.0970 -0.2397  0.0505
   72loPI    C2 1138   0.622   6.830  10.052 -0.2217  0.0039  0.0197
   72loPI    C3 1139   0.886   7.129  10.078 -0.2168  0.0106 -0.1012
   72loPI   PO4 1140   0.836   6.674   9.630 -0.3547  0.0922 -0.1744
   72loPI   GL1 1141   0.668   6.704   9.228 -0.0629 -0.1309  0.0780
   72loPI   GL2 1142   0.810   7.076   9.101  0.2064 -0.0635 -0.0970
   72loPI   C1A 1143   0.619   6.676   8.857 -0.1072 -0.2219  0.2270
   72loPI   C2A 1144   0.555   6.663   8.431 -0.2748  0.2243 -0.3389
   72loPI   C3A 1145   0.769   6.840   8.031 -0.0476  0.1689  0.1933
   72loPI   C4A 1146   0.672   6.974   7.598 -0.0318  0.1105 -0.1448
   72loPI   C5A 1147   0.637   6.957   7.157  0.2459  0.1120  0.0954
   72loPI   C6A 1148   0.385   7.159   6.929 -0.0417 -0.2228 -0.0111
   72loPI   C1B 1149   0.907   7.142   8.650  0.0959  0.0192 -0.2316
   72loPI   C2B 1150   1.033   7.222   8.305 -0.1052  0.0256  0.2341
   72loPI   C3B 1151   1.212   7.124   7.973  0.0352  0.0754  0.1474
   72loPI   C4B 1152   1.475   6.984   7.553 -0.1404 -0.1166  0.0484
   73loPI    C1 1153   9.024  15.171   9.979  0.0325 -0.0529  0.0385
   73loPI    C2 1154   9.139  14.815  10.121 -0.0655 -0.1137 -0.0331
   73loPI    C3 1155   9.228  15.149  10.322 -0.1866 -0.1975  0.1618
   73loPI   PO4 1156   8.808  15.126   9.889 -0.1150 -0.0779 -0.0804
   73loPI   GL1 1157   8.899  15.131   9.512  0.0040  0.0254  0.2570
   73loPI   GL2 1158   9.078  15.447   9.443 -0.0271  0.0766 -0.3196
   73loPI   C1A 1159   8.870  15.093   9.086  0.2505 -0.0670  0.1212
   73loPI   C2A 1160   9.100  15.253   8.790 -0.1634 -0.2442 -0.3062
   73loPI   C3A 1161   9.140  15.327   8.343  0.0764 -0.0051 -0.1510
   73loPI   C4A 1162   9.354  15.468   8.057 -0.3049  0.1933 -0.2827
   73loPI   C5A 1163   9.636  15.501   7.739  0.0979 -0.2574  0.3763
   73loPI   C6A 1164   9.775  15.441   7.356  0.0550  0.1799 -0.1843
   73loPI   C1B 1165   8.877  15.635   9.081  0.2662 -0.0134  0.3605
   73loPI   C2B 1166   8.824  15.861   8.665  0.0107  0.2194  0.1227
   73loPI   C3B 1167   8.943  15.767   8.122 -0.0681 -0.1323 -0.1075
   73loPI   C4B 1168   8.956  16.003   7.808 -0.0627 -0.0883 -0.1942
   74loPI    C1 1169  11.671   5.110   9.721  0.0519  0.4141  0.1102
   74loPI    C2 1170  11.844   5.000  10.064  0.0905  0.0485 -0.0228
   74loPI    C3 1171  11.684   5.365  10.029 -0.0832  0.0238  0.4473
   74loPI   PO4 1172  11.852   5.178   9.519 -0.0178  0.1725 -0.0513
   74loPI   GL1 1173  11.854   4.830   9.216  0.3657 -0.1065  0.1454
   74loPI   GL2 1174  11.885   4.449   9.181 -0.0365  0.0459 -0.0238
   74loPI   C1A 1175  11.912   4.781   8.826  0.1481  0.3149  0.0360
   74loPI   C2A 1176  11.874   4.596   8.436  0.1651  0.1867  0.2809
   74loPI   C3A 1177  11.931   4.514   7.997  0.0199 -0.0796  0.2758
   74loPI   C4A 1178  12.110   4.411   7.628  0.0737  0.0391  0.1306
   74loPI   C5A 1179  12.343   4.359   7.295  0.0446  0.3050  0.1732
   74loPI   C6A 1180  12.402   4.082   6.964 -0.0787  0.2090  0.2366
   74loPI   C1B 1181  11.878   4.234   8.822 -0.0057  0.1927 -0.1024
   74loPI   C2B 1182  12.086   4.155   8.400 -0.0672  0.1311  0.2572
   74loPI   C3B 1183  12.318   4.152   8.032 -0.3863 -0.0546 -0.0212
   74loPI   C4B 1184  12.759   4.220   7.936  0.0807  0.0081 -0.1533
   75loPI    C1 1185   9.813  18.909  10.430  0.1809  0.0246  0.0981
   75loPI    C2 1186   9.720  18.867  10.817 -0.1715 -0.0139  0.0124
   75loPI    C3 1187   9.978  19.151  10.703 -0.0361 -0.0270  0.2780
   75loPI   PO4 1188   9.556  18.809  10.226  0.0665 -0.2552  0.0155
   75loPI   GL1 1189   9.541  18.654   9.815 -0.2057  0.4885  0.2176
   75loPI   GL2 1190   9.813  18.555   9.648  0.2102 -0.2030  0.0384
   75loPI   C1A 1191   9.250  18.732   9.426  0.1091 -0.1154 -0.3906
   75loPI   C2A 1192   9.197  18.601   9.129  0.4305 -0.0728  0.1254
   75loPI   C3A 1193   9.145  18.642   8.729 -0.3491 -0.1344 -0.1437
   75loPI   C4A 1194   9.217  19.015   8.401  0.0928 -0.1918  0.0549
   75loPI   C5A 1195   9.027  19.046   8.035  0.1984  0.0680  0.1147
   75loPI   C6A 1196   8.635  19.221   7.963  0.1507  0.0169  0.2036
   75loPI   C1B 1197   9.639  18.420   9.244  0.2169 -0.3271  0.0820
   75loPI   C2B 1198   9.630  18.335   8.872 -0.1854  0.1814  0.2624
   75loPI   C3B 1199   9.508  18.272   8.498  0.1223 -0.3621  0.5029
   75loPI   C4B 1200   9.560  18.551   8.202 -0.1126 -0.0593 -0.0793
   76loPI    C1 1201  14.293   4.155  10.164 -0.4412  0.0282 -0.1402
   76loPI    C2 1202  14.126   3.810  10.279 -0.1559 -0.0437  0.0709
   76loPI    C3 1203  14.157   4.114  10.538 -0.2599  0.0854 -0.0665
   76loPI   PO4 1204  14.267   4.111   9.900 -0.1059  0.2692 -0.0260
   76loPI   GL1 1205  14.109   4.243   9.468  0.1494 -0.1753 -0.0978
   76loPI   GL2 1206  13.773   4.064   9.470  0.3058 -0.1836 -0.2051
   76loPI   C1A 1207  14.065   4.388   9.012 -0.0090 -0.0340  0.2036
   76loPI   C2A 1208  14.143   4.190   8.609 -0.1026 -0.4971 -0.1627
   76loPI   C3A 1209  14.173   4.038   8.168  0.1289 -0.3428  0.0683
   76loPI   C4A 1210  14.381   3.939   7.739 -0.1195  0.0078 -0.1549
   76loPI   C5A 1211  14.516   4.107   7.368 -0.2917 -0.1615 -0.0888
   76loPI   C6A 1212  14.878   4.331   7.156  0.1459 -0.0187  0.2017
   76loPI   C1B 1213  13.649   4.122   9.059  0.0270  0.1216  0.1049
   76loPI   C2B 1214  13.672   3.938   8.576 -0.1017  0.0062 -0.2195
   76loPI   C3B 1215  13.767   3.763   8.236  0.0723  0.0322  0.1149
   76loPI   C4B 1216  14.076   3.600   7.951 -0.2849 -0.2725  0.1299
   77loPI    C1 1217   1.492  13.136   9.718 -0.1141 -0.0974 -0.0507
   77loPI    C2 1218   1.158  12.928   9.644 -0.2091 -0.0380  0.1997
   77loPI    C3 1219   1.213  13.098  10.002  0.0622  0.0067  0.1395
   77loPI   PO4 1220   1.486  13.284   9.528 -0.2647  0.1003 -0.0423
   77loPI   GL1 1221   1.147  13.377   9.250 -0.2100  0.0733  0.0310
   77loPI   GL2 1222   0.951  13.754   9.400  0.0184 -0.2543 -0.0853
   77loPI   C1A 1223   1.166  13.239   8.845  0.2234 -0.0862  0.2612
   77loPI   C2A 1224   1.124  13.147   8.325 -0.2487  0.3473 -0.0163
   77loPI   C3A 1225   1.070  12.878   7.934 -0.0992  0.0101  0.0856
   77loPI   C4A 1226   1.533  12.678   7.769 -0.0193 -0.2151 -0.0111
   77loPI   C5A 1227   1.394  12.375   7.532 -0.1331  0.2018  0.0913
   77loPI   C6A 1228   1.448  11.951   7.363 -0.2835  0.1780 -0.0156
   77loPI   C1B 1229   0.586  13.559   9.222  0.0747  0.2460  0.0166
   77loPI   C2B 1230   0.397  13.611   8.716 -0.0516  0.0075  0.0657
   77loPI   C3B 1231   0.877  13.580   8.518  0.1068  0.3283  0.2840
   77loPI   C4B 1232   0.939  13.419   7.999 -0.1227 -0.1203  0.0934
   78loPI    C1 1233   1.157   1.307   9.919  0.0051 -0.2577  0.0386
   78loPI    C2 1234   0.869   1.502  10.117  0.0906 -0.0657 -0.0235
   78loPI    C3 1235   1.184   1.356  10.315  0.1581  0.0943 -0.0112
   78loPI   PO4 1236   0.971   1.126   9.732  0.0038  0.2080  0.0221
   78loPI   GL1 1237   0.818   1.105   9.379 -0.0289 -0.1962  0.2335
   78loPI   GL2 1238   1.124   1.174   9.228 -0.3458  0.0979  0.2578
   78loPI   C1A 1239   0.519   1.364   9.204 -0.0453 -0.2474 -0.1083
   78loPI   C2A 1240   0.387   1.520   8.832 -0.0922  0.2242 -0.2545
   78loPI   C3A 1241   0.511   1.544   8.425 -0.1735 -0.0921  0.3184
   78loPI   C4A 1242   0.516   1.332   8.037  0.0362  0.0529  0.1120
   78loPI   C5A 1243   0.381   0.839   8.070  0.1022 -0.1357 -0.0524
   78loPI   C6A 1244  -0.020   0.662   8.105  0.1561  0.0042 -0.2935
   78loPI   C1B 1245   1.081   1.095   8.861  0.1583 -0.1223  0.0516
   78loPI   C2B 1246   0.899   1.196   8.410 -0.1159 -0.3244 -0.1457
   78loPI   C3B 1247   0.925   1.102   8.002 -0.0139 -0.1648  0.2943
   78loPI   C4B 1248   0.608   1.028   7.645  0.0249 -0.1447  0.1447
   79loPI    C1 1249  15.015   2.972  10.126  0.0886  0.0944 -0.3209
   79loPI    C2 1250  15.126   3.100  10.489  0.1099 -0.0533 -0.2745
   79loPI    C3 1251  15.358   3.173  10.171  0.1867 -0.0911 -0.2273
   79loPI   PO4 1252  14.809   3.018  10.094 -0.0566  0.0693 -0.0832
   79loPI   GL1 1253  14.584   3.190   9.820 -0.0980  0.2307  0.0250
   79loPI   GL2 1254  14.890   3.169   9.633 -0.0924  0.1171 -0.1852
   79loPI   C1A 1255  14.441   2.999   9.419 -0.1834  0.2737  0.1541
   79loPI   C2A 1256  14.544   2.754   8.942  0.1132  0.1146  0.0304
   79loPI   C3A 1257  14.317   2.611   8.576 -0.1610 -0.0940 -0.0150
   79loPI   C4A 1258  14.338   2.632   8.174  0.1884  0.0691 -0.0647
   79loPI   C5A 1259  14.002   2.605   7.855 -0.1348  0.0207 -0.1093
   79loPI   C6A 1260  13.743   2.531   7.537 -0.1751  0.2702 -0.2643
   79loPI   C1B 1261  14.963   3.219   9.146 -0.4633  0.1893 -0.0023
   79loPI   C2B 1262  14.946   2.992   8.733  0.0968 -0.3654  0.0530
   79loPI   C3B 1263  14.889   2.896   8.242 -0.2292  0.0090 -0.2326
   79loPI   C4B 1264  14.625   2.826   7.788 -0.2981  0.1082 -0.1188
   80loPI    C1 1265  17.304   6.795   9.706 -0.2232 -0.0341 -0.1319
   80loPI    C2 1266  17.219   6.798  10.096 -0.1091 -0.0441 -0.1066
   80loPI    C3 1267  17.596   6.848   9.974 -0.1390 -0.0787 -0.2141
   80loPI   PO4 1268  17.160   6.876   9.566 -0.1416 -0.3973  0.0723
   80loPI   GL1 1269  17.065   6.969   9.163  0.1400  0.1058 -0.3052
   80loPI   GL2 1270  17.018   7.291   8.959  0.3241  0.2542  0.0775
   80loPI   C1A 1271  16.856   6.659   8.969 -0.2390  0.0050  0.5182
   80loPI   C2A 1272  16.890   6.410   8.605 -0.1479 -0.3116  0.2558
   80loPI   C3A 1273  17.025   6.077   8.497 -0.1704 -0.0894 -0.0589
   80loPI   C4A 1274  17.188   5.698   8.394 -0.2397 -0.0248 -0.3986
   80loPI   C5A 1275  17.369   5.587   8.024  0.0723 -0.1250 -0.0849
   80loPI   C6A 1276  17.477   5.803   7.621 -0.3299  0.0131 -0.1832
   80loPI   C1B 1277  16.822   7.365   8.544  0.0712 -0.2492 -0.3907
   80loPI   C2B 1278  16.862   7.332   8.070 -0.1361 -0.1891 -0.1175
   80loPI   C3B 1279  16.663   7.076   7.812  0.0851  0.0777 -0.1761
   80loPI   C4B 1280  16.413   7.030   7.437  0.0302  0.0540  0.0290
   81loPI    C1 1281   1.957  15.362   9.943  0.3602  0.1311 -0.1768
   81loPI    C2 1282   2.242  15.161  10.138 -0.1881 -0.0536  0.4732
   81loPI    C3 1283   2.046  15.457  10.321 -0.3264  0.1644 -0.0109
   81loPI   PO4 1284   1.806  15.074   9.921 -0.0187 -0.2739  0.0932
   81loPI   GL1 1285   1.702  14.961   9.517 -0.5067  0.0397  0.1270
   81loPI   GL2 1286   2.053  14.868   9.364 -0.0592 -0.0005  0.0373
   81loPI   C1A 1287   1.462  15.188   9.205  0.0999  0.1951  0.0935
   81loPI   C2A 1288   1.444  15.168   8.859 -0.1192 -0.0622 -0.1727
   81loPI   C3A 1289   1.359  15.166   8.453 -0.0137 -0.0482 -0.1387
   81loPI   C4A 1290   1.467  15.092   8.013 -0.0342  0.2825  0.2494
   81loPI   C5A 1291   1.422  14.792   7.640  0.1574 -0.2042 -0.0981
   81loPI   C6A 1292   1.452  14.421   7.410 -0.1394 -0.0163 -0.0639
   81loPI   C1B 1293   1.807  14.891   8.937 -0.2949  0.0515 -0.3576
   81loPI   C2B 1294   1.725  14.777   8.482  0.0262 -0.0139  0.0046
   81loPI   C3B 1295   1.743  14.691   8.043 -0.0545 -0.0789 -0.3145
   81loPI   C4B 1296   1.880  14.291   7.794 -0.1294  0.0777 -0.1912
   82loPI    C1 1297   9.075   3.869   9.788  0.0228 -0.0347 -0.1010
   82loPI    C2 1298   8.721   3.769   9.946  0.1863 -0.1054  0.2289
   82loPI    C3 1299   8.847   4.148   9.963  0.0192 -0.0308 -0.1119
   82loPI   PO4 1300   9.113   3.788   9.572  0.6218 -0.2742  0.1904
   82loPI   GL1 1301   9.253   3.908   9.135 -0.1837  0.3657  0.2057
   82loPI   GL2 1302   8.944   3.955   9.157 -0.1051 -0.0018  0.3891
   82loPI   C1A 1303   9.046   3.952   8.636 -0.0474  0.0642 -0.1290
   82loPI   C2A 1304   8.720   3.882   8.371 -0.1842 -0.1141  0.0751
   82loPI   C3A 1305   8.797   3.952   7.928 -0.0146 -0.0532 -0.1836
   82loPI   C4A 1306   9.003   4.138   7.506 -0.1317  0.1582 -0.0219
   82loPI   C5A 1307   9.233   4.191   7.245  0.0077 -0.1624  0.3124
   82loPI   C6A 1308   9.644   4.392   7.146  0.0362  0.1424  0.1472
   82loPI   C1B 1309   8.736   4.235   8.942  0.0491  0.1269  0.0870
   82loPI   C2B 1310   8.756   4.322   8.618 -0.0374  0.0081 -0.0603
   82loPI   C3B 1311   8.821   4.397   8.191 -0.2615 -0.1099  0.0433
   82loPI   C4B 1312   8.712   4.508   7.784 -0.0588 -0.1367 -0.1094
   83loPI    C1 1313  13.064  12.281   9.619  0.0734 -0.1784  0.0298
   83loPI    C2 1314  13.200  12.614   9.793  0.0323 -0.1010 -0.0852
   83loPI    C3 1315  13.206  12.268   9.993  0.0744 -0.0316  0.0352
   83loPI   PO4 1316  13.107  12.276   9.341  0.0276 -0.1701 -0.0100
   83loPI   GL1 1317  13.170  12.154   9.027 -0.3172 -0.0184  0.2257
   83loPI   GL2 1318  13.304  12.401   8.834 -0.1604  0.0149  0.1627
   83loPI   C1A 1319  12.930  11.945   8.792 -0.0578  0.0279  0.1982
   83loPI   C2A 1320  12.845  11.832   8.296  0.4959  0.2415 -0.1423
   83loPI   C3A 1321  12.608  11.835   7.955 -0.1927  0.2406 -0.0709
   83loPI   C4A 1322  12.415  11.892   7.648 -0.0993 -0.2548  0.0423
   83loPI   C5A 1323  12.004  11.839   7.480 -0.0031  0.1803  0.1472
   83loPI   C6A 1324  11.776  11.633   7.217  0.1743 -0.0067  0.0284
   83loPI   C1B 1325  13.112  12.265   8.494  0.3995 -0.1656 -0.1447
   83loPI   C2B 1326  12.993  12.230   7.972  0.0746 -0.1204  0.1413
   83loPI   C3B 1327  12.878  12.064   7.511 -0.0431 -0.1495  0.0048
   83loPI   C4B 1328  12.700  11.701   7.199  0.2314 -0.3373 -0.1824
   84loPI    C1 1329   7.258  11.724  10.139 -0.0886 -0.1205  0.0570
   84loPI    C2 1330   7.578  11.612  10.351 -0.1511 -0.0946  0.1662
   84loPI    C3 1331   7.213  11.500  10.467 -0.1548 -0.4804 -0.1911
   84loPI   PO4 1332   7.239  11.575   9.852 -0.0723  0.3118  0.1301
   84loPI   GL1 1333   7.343  11.298   9.475  0.1615 -0.3279 -0.0640
   84loPI   GL2 1334   7.614  11.363   9.499 -0.0102  0.3004  0.0303
   84loPI   C1A 1335   7.324  11.539   9.052 -0.1712 -0.0155 -0.2791
   84loPI   C2A 1336   7.546  11.590   8.636 -0.1321  0.0055  0.2041
   84loPI   C3A 1337   7.851  11.373   8.385  0.0910  0.0987 -0.0560
   84loPI   C4A 1338   8.032  11.334   8.023 -0.0441 -0.0295  0.0770
   84loPI   C5A 1339   8.530  11.193   7.946  0.0711 -0.0592  0.2077
   84loPI   C6A 1340   8.636  10.787   7.638  0.2602 -0.1754  0.0058
   84loPI   C1B 1341   7.795  11.474   9.156  0.0661  0.1885  0.0828
   84loPI   C2B 1342   8.065  11.355   8.842  0.1289 -0.1725  0.2723
   84loPI   C3B 1343   8.311  11.171   8.464 -0.0717  0.0072 -0.2809
   84loPI   C4B 1344   8.694  10.815   8.195  0.0573  0.1349 -0.0852
   85loPI    C1 1345   3.299  15.534  10.049  0.0840 -0.2255 -0.0341
   85loPI    C2 1346   2.994  15.469  10.300  0.1191 -0.1212  0.0362
   85loPI    C3 1347   3.265  15.751  10.383  0.2045 -0.1760 -0.0537
   85loPI   PO4 1348   3.133  15.482   9.786 -0.3003 -0.1170 -0.0753
   85loPI   GL1 1349   3.214  15.415   9.353  0.2165 -0.2712  0.0935
   85loPI   GL2 1350   3.387  15.122   9.335 -0.1444  0.0837 -0.1570
   85loPI   C1A 1351   2.971  15.592   9.000  0.0747  0.0796 -0.0861
   85loPI   C2A 1352   2.777  15.748   8.626  0.1260 -0.1577 -0.1166
   85loPI   C3A 1353   2.964  15.808   8.205 -0.2986 -0.0005 -0.1511
   85loPI   C4A 1354   3.029  15.624   7.826 -0.2135 -0.3520  0.2217
   85loPI   C5A 1355   2.975  15.680   7.399  0.2278  0.1618 -0.1579
   85loPI   C6A 1356   2.815  15.675   7.061 -0.0719  0.0963 -0.0614
   85loPI   C1B 1357   3.228  15.103   8.915  0.0344 -0.3184 -0.1590
   85loPI   C2B 1358   3.131  15.392   8.591  0.0875  0.0952 -0.0333
   85loPI   C3B 1359   3.069  15.270   8.132 -0.1957  0.1680  0.1273
   85loPI   C4B 1360   2.949  15.182   7.589  0.0516  0.1107 -0.1912
   86loPI    C1 1361  18.896  16.082  10.220  0.2293  0.0215 -0.0850
   86loPI    C2 1362  19.231  15.965  10.404  0.1122  0.0412  0.1442
   86loPI    C3 1363  18.918  16.089  10.619 -0.1316 -0.2150 -0.0570
   86loPI   PO4 1364  19.033  16.135   9.934 -0.0088  0.0982  0.0632
   86loPI   GL1 1365  19.214  16.025   9.560 -0.2235 -0.2949 -0.0311
   86loPI   GL2 1366  19.307  16.244   9.450 -0.0094  0.0130  0.0721
   86loPI   C1A 1367  18.899  16.018   9.252  0.2718 -0.1517  0.0139
   86loPI   C2A 1368  18.657  15.946   8.962  0.0950  0.2188  0.1419
   86loPI   C3A 1369  18.541  15.749   8.543  0.1023 -0.2219  0.0861
   86loPI   C4A 1370  18.425  15.260   8.338 -0.1815 -0.0365 -0.0509
   86loPI   C5A 1371  18.336  15.074   7.965 -0.2465 -0.0176 -0.0123
   86loPI   C6A 1372  18.229  14.868   7.663  0.1309 -0.2602  0.1095
   86loPI   C1B 1373  19.251  16.581   9.058  0.0305 -0.3397 -0.0009
   86loPI   C2B 1374  19.257  16.622   8.596  0.0692  0.1890  0.1680
   86loPI   C3B 1375  19.171  16.589   8.071 -0.0394  0.2430  0.0728
   86loPI   C4B 1376  18.957  16.583   7.744 -0.0649 -0.3682  0.3109
   87loPI    C1 1377   9.847   1.996  10.174 -0.0346  0.1055 -0.0570
   87loPI    C2 1378  10.038   1.702  10.366 -0.2669 -0.1086 -0.1470
   87loPI    C3 1379   9.867   1.998  10.573 -0.0867 -0.0688 -0.0528
   87loPI   PO4 1380   9.956   2.106  10.028  0.1011 -0.2207  0.1776
   87loPI   GL1 1381   9.901   2.040   9.581  0.0768 -0.1390 -0.5156
   87loPI   GL2 1382   9.590   2.156   9.564 -0.6758  0.0362 -0.0027
   87loPI   C1A 1383   9.878   2.396   9.211  0.2464 -0.4116  0.2741
   87loPI   C2A 1384   9.812   2.696   8.899 -0.0399 -0.0393  0.2905
   87loPI   C3A 1385   9.556   2.906   8.628 -0.1846  0.2037  0.1270
   87loPI   C4A 1386   9.633   3.190   8.295 -0.0844 -0.1706  0.1793
   87loPI   C5A 1387   9.937   3.125   8.048  0.0778  0.1634 -0.0605
   87loPI   C6A 1388   9.833   3.013   7.720  0.0320  0.2644 -0.0556
   87loPI   C1B 1389   9.565   1.987   9.210  0.0205 -0.2449 -0.1971
   87loPI   C2B 1390   9.716   2.119   8.815 -0.0348 -0.3498 -0.1291
   87loPI   C3B 1391   9.640   1.998   8.473 -0.0329 -0.0133 -0.3917
   87loPI   C4B 1392   9.796   1.704   8.184 -0.0132 -0.2392  0.0228
   88loPI    C1 1393   5.388   6.464   9.813 -0.3521  0.0811 -0.0165
   88loPI    C2 1394   5.409   6.819   9.997 -0.2015  0.0110  0.1032
   88loPI    C3 1395   5.078   6.597  10.030 -0.2836  0.1251  0.0551
   88loPI   PO4 1396   5.531   6.419   9.687  0.2170  0.0441  0.2377
   88loPI   GL1 1397   5.527   6.537   9.201  0.3236 -0.1708 -0.0801
   88loPI   GL2 1398   5.549   6.177   9.239  0.1617  0.0144 -0.1468
   88loPI   C1A 1399   5.351   6.806   8.911  0.1098  0.0470  0.1725
   88loPI   C2A 1400   5.177   6.958   8.476  0.0075 -0.2253  0.0069
   88loPI   C3A 1401   5.351   6.965   8.074 -0.0842  0.2021 -0.3020
   88loPI   C4A 1402   5.247   7.181   7.680  0.1530  0.1431 -0.0664
   88loPI   C5A 1403   5.137   7.371   7.221 -0.2646 -0.2141  0.2821
   88loPI   C6A 1404   5.321   7.429   6.753 -0.2429 -0.4411  0.0026
   88loPI   C1B 1405   5.584   6.245   8.784 -0.1496 -0.1610  0.1037
   88loPI   C2B 1406   5.602   6.070   8.392 -0.4328  0.0156  0.2786
   88loPI   C3B 1407   5.553   5.705   8.051  0.0626 -0.2392  0.1337
   88loPI   C4B 1408   5.510   5.495   7.771 -0.0839 -0.0505  0.3003
   89loPI    C1 1409   6.482  14.996   9.996 -0.4361  0.0326  0.1906
   89loPI    C2 1410   6.448  15.080  10.386  0.0635 -0.0736  0.2629
   89loPI    C3 1411   6.546  14.710  10.268  0.1253  0.0101  0.0462
   89loPI   PO4 1412   6.586  15.231   9.913  0.2099 -0.0505  0.0834
   89loPI   GL1 1413   6.593  15.271   9.496 -0.4199  0.1458 -0.1760
   89loPI   GL2 1414   6.327  15.336   9.338  0.0716 -0.0705 -0.1798
   89loPI   C1A 1415   6.762  14.977   9.100  0.0153  0.1850 -0.0299
   89loPI   C2A 1416   6.661  14.932   8.594 -0.0522 -0.1763 -0.1034
   89loPI   C3A 1417   6.626  14.890   8.171  0.1003 -0.2811 -0.1724
   89loPI   C4A 1418   6.581  15.064   7.751 -0.0357  0.0545 -0.1178
   89loPI   C5A 1419   6.806  15.115   7.319 -0.3834  0.0991 -0.0533
   89loPI   C6A 1420   7.146  15.074   7.099 -0.0408 -0.3290  0.1108
   89loPI   C1B 1421   6.528  15.471   8.988 -0.0730 -0.2541 -0.0399
   89loPI   C2B 1422   6.625  15.525   8.515 -0.0087  0.3157  0.1654
   89loPI   C3B 1423   6.673  15.420   8.070 -0.3473 -0.3431 -0.0931
   89loPI   C4B 1424   6.694  15.541   7.680 -0.2303  0.1349 -0.2012
   90loPI    C1 1425   2.433   1.204   9.993  0.0378 -0.1382 -0.1467
   90loPI    C2 1426   2.344   1.586   9.917 -0.0871 -0.0943  0.2022
   90loPI    C3 1427   2.649   1.496  10.160 -0.0508 -0.2178  0.1119
   90loPI   PO4 1428   2.398   1.129   9.689  0.0115  0.1817  0.1201
   90loPI   GL1 1429   2.641   1.024   9.319 -0.0964 -0.3151 -0.0379
   90loPI   GL2 1430   2.406   1.260   9.217 -0.0182 -0.1674  0.0798
   90loPI   C1A 1431   2.704   0.933   8.878 -0.0237 -0.1209 -0.0910
   90loPI   C2A 1432   2.772   0.862   8.452 -0.0797 -0.0233 -0.1283
   90loPI   C3A 1433   2.685   0.830   8.052 -0.1892  0.1047  0.1308
   90loPI   C4A 1434   2.782   1.002   7.706  0.0106 -0.0642 -0.0636
   90loPI   C5A 1435   2.955   1.315   7.349 -0.2602 -0.1332 -0.3891
   90loPI   C6A 1436   3.397   1.436   7.306 -0.2394  0.1056 -0.4592
   90loPI   C1B 1437   2.141   1.096   8.951 -0.1781  0.0083 -0.0782
   90loPI   C2B 1438   1.881   1.028   8.653 -0.0177 -0.0518 -0.1482
   90loPI   C3B 1439   1.798   1.021   8.274  0.2374 -0.1285  0.0928
   90loPI   C4B 1440   1.809   0.942   7.862 -0.3643  0.0777 -0.1785
   91loPI    C1 1441  12.893   7.276   9.550 -0.1829  0.0388  0.1858
   91loPI    C2 1442  12.663   7.407   9.850  0.0364  0.1813  0.2943
   91loPI    C3 1443  13.025   7.567   9.791  0.1368 -0.0867  0.1674
   91loPI   PO4 1444  12.870   6.996   9.554  0.0668  0.0149 -0.1154
   91loPI   GL1 1445  12.612   6.818   9.232 -0.0504  0.0776 -0.0804
   91loPI   GL2 1446  12.559   6.504   9.147 -0.1350 -0.1183 -0.0466
   91loPI   C1A 1447  12.501   7.095   8.871 -0.0652 -0.0411  0.0589
   91loPI   C2A 1448  12.370   7.139   8.470  0.1332  0.1592  0.0740
   91loPI   C3A 1449  12.394   7.119   7.984 -0.2646  0.0128 -0.0784
   91loPI   C4A 1450  12.848   7.233   7.805 -0.1747  0.0220 -0.0394
   91loPI   C5A 1451  13.284   7.490   7.703 -0.2655  0.3570 -0.2925
   91loPI   C6A 1452  13.587   7.705   7.841 -0.0945  0.0827 -0.0866
   91loPI   C1B 1453  12.657   6.244   8.861 -0.1630  0.1748 -0.2820
   91loPI   C2B 1454  12.656   6.078   8.422 -0.1084  0.1878 -0.1547
   91loPI   C3B 1455  12.543   6.191   8.068 -0.2837 -0.1074  0.1220
   91loPI   C4B 1456  12.555   6.284   7.610  0.1521 -0.2291  0.0724
   92loPI    C1 1457   1.549   1.626  10.182  0.1387  0.0012  0.2001
   92loPI    C2 1458   1.782   1.919  10.041 -0.1233  0.1188  0.0036
   92loPI    C3 1459   1.782   1.835  10.432  0.0326  0.3092  0.0462
   92loPI   PO4 1460   1.292   1.798  10.068 -0.2351 -0.1283  0.1440
   92loPI   GL1 1461   1.146   1.931   9.576 -0.0890  0.2888 -0.1324
   92loPI   GL2 1462   0.971   1.695   9.591  0.0243 -0.2954 -0.2713
   92loPI   C1A 1463   1.201   2.028   9.133 -0.1361 -0.0840  0.2154
   92loPI   C2A 1464   1.068   2.093   8.736 -0.0635 -0.2528  0.0817
   92loPI   C3A 1465   1.109   2.110   8.243  0.1014  0.4071  0.0973
   92loPI   C4A 1466   1.050   2.226   7.803 -0.0548 -0.0187 -0.2258
   92loPI   C5A 1467   0.720   2.391   7.522  0.1276 -0.1882 -0.0216
   92loPI   C6A 1468   0.266   2.354   7.377 -0.2656 -0.3319 -0.0948
   92loPI   C1B 1469   0.903   1.655   9.150  0.1552  0.2276  0.1960
   92loPI   C2B 1470   0.903   1.525   8.780 -0.3501  0.0985 -0.2438
   92loPI   C3B 1471   1.049   1.670   8.452  0.0242 -0.2699  0.5542
   92loPI   C4B 1472   0.917   1.674   8.114  0.0536  0.3747 -0.0670
   93loPI    C1 1473   9.858  14.976   9.881 -0.0101  0.0881  0.0917
   93loPI    C2 1474   9.603  15.253  10.019 -0.1483  0.0741 -0.1298
   93loPI    C3 1475   9.651  14.908  10.217 -0.2526  0.1039 -0.0520
   93loPI   PO4 1476   9.863  14.969   9.668 -0.0704 -0.0094 -0.2170
   93loPI   GL1 1477  10.035  14.942   9.278  0.1752 -0.0472  0.2937
   93loPI   GL2 1478   9.950  15.308   9.309 -0.0502 -0.2076 -0.0607
   93loPI   C1A 1479   9.825  14.781   8.972 -0.1040  0.3319  0.0731
   93loPI   C2A 1480   9.695  14.783   8.534  0.2684 -0.0969 -0.2639
   93loPI   C3A 1481   9.564  15.042   8.226  0.0969  0.1897  0.0067
   93loPI   C4A 1482   9.345  15.072   7.766  0.0732 -0.1539  0.2156
   93loPI   C5A 1483   8.918  15.013   7.613 -0.0044 -0.2943 -0.1177
   93loPI   C6A 1484   8.657  14.748   7.340 -0.1024  0.0088 -0.0366
   93loPI   C1B 1485  10.275  15.535   9.009  0.3228 -0.0565 -0.2372
   93loPI   C2B 1486  10.247  15.612   8.510 -0.0070  0.1433 -0.2658
   93loPI   C3B 1487  10.487  15.458   8.228 -0.1468 -0.3060  0.0760
   93loPI   C4B 1488  10.287  15.262   7.876  0.0916 -0.1612  0.2348
   94loPI    C1 1489  11.499  18.212  10.807  0.0756 -0.1362  0.1122
   94loPI    C2 1490  11.229  18.375  11.053  0.0964  0.2857 -0.1355
   94loPI    C3 1491  11.602  18.308  11.181 -0.0556 -0.0803  0.1347
   94loPI   PO4 1492  11.550  18.312  10.602  0.2701  0.0308 -0.1410
   94loPI   GL1 1493  11.540  18.218  10.204  0.2133  0.0227  0.2851
   94loPI   GL2 1494  11.854  18.161  10.233 -0.0906  0.0832 -0.1456
   94loPI   C1A 1495  11.519  18.161   9.793  0.1210 -0.1327  0.2915
   94loPI   C2A 1496  11.370  18.136   9.307  0.0043  0.0083  0.0565
   94loPI   C3A 1497  11.409  18.095   8.839 -0.0922  0.0832  0.1067
   94loPI   C4A 1498  11.493  18.015   8.483  0.2405 -0.4533  0.0666
   94loPI   C5A 1499  11.862  18.023   8.273 -0.2192 -0.1030  0.0321
   94loPI   C6A 1500  12.288  17.939   8.141 -0.2826  0.2705  0.3343
   94loPI   C1B 1501  12.015  18.228   9.814  0.0272 -0.0109 -0.0028
   94loPI   C2B 1502  12.153  18.434   9.591  0.1104 -0.0203 -0.0358
   94loPI   C3B 1503  12.213  18.387   9.095  0.0882 -0.0851 -0.0284
   94loPI   C4B 1504  11.947  18.324   8.678  0.0675  0.3921 -0.1020
   95loPI    C1 1505   8.524   1.683   9.925 -0.1133  0.1578  0.0739
   95loPI    C2 1506   8.274   1.909  10.140 -0.0582 -0.0135  0.3231
   95loPI    C3 1507   8.518   1.651  10.324 -0.0780 -0.2338  0.0471
   95loPI   PO4 1508   8.569   1.789   9.663  0.0115 -0.1429 -0.5017
   95loPI   GL1 1509   8.510   1.765   9.204  0.0457  0.2077 -0.1645
   95loPI   GL2 1510   8.267   1.616   9.258 -0.2846 -0.2031  0.2741
   95loPI   C1A 1511   8.792   1.674   8.873 -0.0696 -0.3827  0.2403
   95loPI   C2A 1512   8.831   1.575   8.403 -0.0294  0.1781 -0.2493
   95loPI   C3A 1513   8.630   1.615   8.118  0.2268 -0.2482  0.1630
   95loPI   C4A 1514   8.536   1.443   7.710 -0.0502  0.0546 -0.0884
   95loPI   C5A 1515   8.333   1.687   7.338 -0.0624 -0.2401 -0.3492
   95loPI   C6A 1516   8.144   1.949   6.974  0.1305 -0.1413  0.0523
   95loPI   C1B 1517   8.032   1.632   8.831 -0.0033 -0.0535 -0.1833
   95loPI   C2B 1518   8.259   1.470   8.425  0.0246 -0.1108 -0.0154
   95loPI   C3B 1519   8.152   1.221   8.082  0.1230 -0.3075  0.1085
   95loPI   C4B 1520   8.105   1.209   7.596  0.3579 -0.0925 -0.1320
   96loPI    C1 1521  10.478  16.137  10.281  0.0905 -0.0302  0.0827
   96loPI    C2 1522  10.785  16.109  10.536 -0.0671 -0.2305  0.2543
   96loPI    C3 1523  10.423  16.214  10.669 -0.0747  0.0091  0.0522
   96loPI   PO4 1524  10.541  16.058  10.072  0.2952 -0.0914  0.1745
   96loPI   GL1 1525  10.862  16.069   9.724  0.0858  0.1830 -0.0591
   96loPI   GL2 1526  10.570  16.319   9.656 -0.0759  0.0476  0.2158
   96loPI   C1A 1527  10.796  15.970   9.240  0.1013 -0.3540 -0.1716
   96loPI   C2A 1528  10.751  15.918   8.837  0.2669 -0.2643  0.2008
   96loPI   C3A 1529  10.822  15.694   8.540  0.1720  0.1351 -0.0876
   96loPI   C4A 1530  10.809  15.816   8.175  0.0708  0.0963 -0.0362
   96loPI   C5A 1531  10.583  15.694   7.777 -0.0608 -0.1003 -0.1990
   96loPI   C6A 1532  10.767  15.567   7.533 -0.0108 -0.0640  0.0773
   96loPI   C1B 1533  10.712  16.480   9.158 -0.0126  0.0267 -0.1749
   96loPI   C2B 1534  10.792  16.432   8.732 -0.1322  0.1629  0.0848
   96loPI   C3B 1535  10.836  16.259   8.254  0.0782 -0.1173  0.1051
   96loPI   C4B 1536  11.135  16.408   8.001  0.1366 -0.3195 -0.0060
   97loPI    C1 1537  13.179   6.151   9.834  0.0534  0.2577  0.1001
   97loPI    C2 1538  12.876   6.136  10.095 -0.1115 -0.1038 -0.1053
   97loPI    C3 1539  13.224   5.960  10.183 -0.0041  0.1913  0.0715
   97loPI   PO4 1540  13.031   5.983   9.619  0.0879  0.0446 -0.0489
   97loPI   GL1 1541  13.046   6.194   9.198 -0.3113  0.0941 -0.1230
   97loPI   GL2 1542  13.058   6.582   9.127  0.0547 -0.0441 -0.0269
   97loPI   C1A 1543  13.156   6.203   8.843 -0.0024  0.2108 -0.0401
   97loPI   C2A 1544  13.071   6.269   8.439  0.0686 -0.0036 -0.2092
   97loPI   C3A 1545  13.065   6.435   8.037 -0.1114 -0.0493  0.0159
   97loPI   C4A 1546  13.013   6.684   7.673 -0.0295 -0.0588 -0.1160
   97loPI   C5A 1547  13.036   7.105   7.366 -0.1608 -0.3079  0.0850
   97loPI   C6A 1548  13.409   7.295   7.130 -0.0111  0.1357  0.2630
   97loPI   C1B 1549  12.913   6.684   8.724 -0.1038 -0.2123 -0.3009
   97loPI   C2B 1550  12.745   6.667   8.398 -0.3395 -0.1153  0.2970
   97loPI   C3B 1551  12.597   6.666   7.964  0.2059  0.0181  0.0752
   97loPI   C4B 1552  12.547   6.913   7.536 -0.2219  0.1384  0.2481
   98loPI    C1 1553  13.933   7.046   9.896 -0.2151  0.0773  0.1825
   98loPI    C2 1554  13.955   6.939  10.281  0.3001  0.0349  0.1482
   98loPI    C3 1555  13.800   6.687  10.012 -0.2071  0.1256  0.3444
   98loPI   PO4 1556  13.868   7.307   9.809  0.1254  0.2785  0.1758
   98loPI   GL1 1557  13.769   7.361   9.396  0.0739  0.0704  0.0152
   98loPI   GL2 1558  14.051   7.427   9.218  0.1606  0.1108 -0.2340
   98loPI   C1A 1559  13.622   7.585   8.987 -0.1071  0.3476  0.1936
   98loPI   C2A 1560  13.575   7.848   8.595  0.0366  0.0557 -0.0315
   98loPI   C3A 1561  13.514   8.138   8.187  0.0400 -0.0073  0.1694
   98loPI   C4A 1562  13.610   8.320   7.735 -0.0735 -0.0294  0.0648
   98loPI   C5A 1563  13.944   8.551   7.603  0.1486  0.2510  0.0538
   98loPI   C6A 1564  14.017   8.731   7.247 -0.0834 -0.2496 -0.1186
   98loPI   C1B 1565  14.273   7.033   8.921  0.0823  0.2011 -0.1812
   98loPI   C2B 1566  14.440   6.950   8.644 -0.1035 -0.0206  0.1490
   98loPI   C3B 1567  14.595   6.930   8.255 -0.1107 -0.0854 -0.0051
   98loPI   C4B 1568  14.625   7.010   7.836  0.2247 -0.2196  0.0354
   99loPI    C1 1569  12.090  17.524  10.588 -0.0002 -0.2629  0.3071
   99loPI    C2 1570  11.852  17.825  10.701  0.1139 -0.1016  0.1262
   99loPI    C3 1571  11.993  17.568  10.973  0.0459  0.0303  0.2880
   99loPI   PO4 1572  12.143  17.656  10.310  0.0074  0.1941  0.1840
   99loPI   GL1 1573  12.174  17.656   9.837 -0.0334 -0.1232 -0.3377
   99loPI   GL2 1574  12.000  17.311   9.949 -0.0479  0.1787  0.1184
   99loPI   C1A 1575  12.275  17.872   9.449 -0.1719 -0.1014 -0.0867
   99loPI   C2A 1576  12.459  18.003   9.041  0.1011  0.0803 -0.1914
   99loPI   C3A 1577  12.405  18.086   8.652  0.3462  0.1117 -0.2966
   99loPI   C4A 1578  12.667  18.266   8.271 -0.0490  0.1166  0.1262
   99loPI   C5A 1579  12.995  18.616   8.436 -0.1096  0.1718 -0.2150
   99loPI   C6A 1580  12.908  18.918   8.714 -0.0307 -0.1554 -0.4456
   99loPI   C1B 1581  12.134  17.197   9.477 -0.1710  0.2368  0.4575
   99loPI   C2B 1582  12.474  16.945   9.124  0.1607 -0.1376  0.1636
   99loPI   C3B 1583  12.709  16.537   8.991 -0.1213  0.0729  0.2016
   99loPI   C4B 1584  13.020  16.473   8.722 -0.0311 -0.3005 -0.0083
  100loPI    C1 1585   1.451  12.637   9.894 -0.0639 -0.3343 -0.0444
  100loPI    C2 1586   1.708  12.474  10.153  0.0795  0.0501  0.0633
  100loPI    C3 1587   1.590  12.853  10.201 -0.1258  0.0319 -0.2672
  100loPI   PO4 1588   1.522  12.530   9.689 -0.1948 -0.1461  0.0158
  100loPI   GL1 1589   1.563  12.747   9.291  0.2427  0.1109  0.1630
  100loPI   GL2 1590   1.536  12.997   9.095 -0.0754  0.0762 -0.2313
  100loPI   C1A 1591   1.651  12.503   8.922  0.0060  0.0722  0.2363
  100loPI   C2A 1592   1.716  12.042   8.803  0.0704 -0.1986 -0.2282
  100loPI   C3A 1593   1.493  11.791   8.561  0.0634 -0.0032 -0.1041
  100loPI   C4A 1594   1.601  11.926   8.094  0.2331  0.0298  0.2485
  100loPI   C5A 1595   1.731  12.133   7.740 -0.1430 -0.0989 -0.0329
  100loPI   C6A 1596   1.906  12.363   7.367 -0.2393 -0.0973  0.0593
  100loPI   C1B 1597   1.512  12.954   8.689 -0.3955 -0.1463 -0.0018
  100loPI   C2B 1598   1.723  12.870   8.311  0.1547 -0.4947  0.1243
  100loPI   C3B 1599   2.203  12.766   8.198 -0.2693  0.2000 -0.0555
  100loPI   C4B 1600   2.529  12.846   7.958  0.0428  0.1251  0.0338
  101loPI    C1 1601   2.189  13.414   9.693  0.2276 -0.1857 -0.0295
  101loPI    C2 1602   2.162  13.630  10.029 -0.1068 -0.1411 -0.0818
  101loPI    C3 1603   2.210  13.813   9.676 -0.2294 -0.1595 -0.1085
  101loPI   PO4 1604   1.952  13.342   9.580 -0.0480 -0.1254  0.2213
  101loPI   GL1 1605   1.882  13.499   9.227 -0.0520 -0.1688 -0.2886
  101loPI   GL2 1606   1.931  13.822   9.228  0.0412  0.2334  0.1667
  101loPI   C1A 1607   1.848  13.339   8.833  0.2006  0.4068 -0.1039
  101loPI   C2A 1608   1.705  13.360   8.436  0.0447  0.2128  0.1353
  101loPI   C3A 1609   1.447  13.473   8.043  0.1466  0.0293  0.1608
  101loPI   C4A 1610   1.388  13.605   7.656 -0.0884 -0.1574 -0.3097
  101loPI   C5A 1611   1.652  13.915   7.374 -0.2295 -0.0206  0.4829
  101loPI   C6A 1612   1.667  14.198   6.992 -0.1470  0.1139  0.1065
  101loPI   C1B 1613   1.840  13.908   8.810 -0.0712  0.1092  0.0175
  101loPI   C2B 1614   2.016  13.748   8.436 -0.0687 -0.0625 -0.2788
  101loPI   C3B 1615   1.941  13.610   7.942 -0.1241 -0.3795 -0.4026
  101loPI   C4B 1616   2.140  13.703   7.532 -0.0319  0.3860  0.1452
  102loPI    C1 1617   3.687  17.491   9.804  0.2901 -0.0494  0.0464
  102loPI    C2 1618   3.458  17.786   9.661  0.4814  0.1697  0.1835
  102loPI    C3 1619   3.391  17.408   9.548  0.1534  0.2483  0.1034
  102loPI   PO4 1620   3.961  17.721   9.782  0.2644  0.1781 -0.0879
  102loPI   GL1 1621   3.959  17.881   9.421 -0.0771  0.3447 -0.0946
  102loPI   GL2 1622   4.281  17.882   9.437 -0.2012  0.3813 -0.0991
  102loPI   C1A 1623   3.961  18.043   8.953  0.2000  0.1309  0.2158
  102loPI   C2A 1624   3.806  18.071   8.609 -0.0438 -0.0110  0.0812
  102loPI   C3A 1625   3.837  17.833   8.237  0.1230 -0.1581 -0.0725
  102loPI   C4A 1626   3.610  17.773   7.824 -0.2692 -0.0784  0.1375
  102loPI   C5A 1627   3.213  17.676   7.695 -0.2406 -0.0220  0.0989
  102loPI   C6A 1628   2.991  17.838   7.245  0.0325  0.1152 -0.1953
  102loPI   C1B 1629   4.434  17.869   9.054 -0.3297  0.0010  0.0723
  102loPI   C2B 1630   4.366  17.876   8.601 -0.0005 -0.2357  0.1881
  102loPI   C3B 1631   4.455  17.869   8.168  0.2772 -0.1780 -0.0733
  102loPI   C4B 1632   4.596  17.769   7.730 -0.4708  0.0588 -0.0788
  103loPI    C1 1633   3.554  16.373   9.645 -0.0313  0.1983 -0.2382
  103loPI    C2 1634   3.680  16.642   9.912  0.3329 -0.0671 -0.1349
  103loPI    C3 1635   3.597  16.756   9.538  0.0460  0.2643  0.0229
  103loPI   PO4 1636   3.763  16.200   9.639 -0.1846  0.1715 -0.4303
  103loPI   GL1 1637   3.833  16.034   9.214  0.3165 -0.1251 -0.2268
  103loPI   GL2 1638   3.581  16.148   9.199  0.0283 -0.0607 -0.0760
  103loPI   C1A 1639   3.860  15.818   8.852 -0.3132 -0.0413  0.0731
  103loPI   C2A 1640   3.875  15.607   8.481 -0.0486 -0.0555  0.0707
  103loPI   C3A 1641   3.983  15.845   8.205  0.0790  0.3355 -0.1059
  103loPI   C4A 1642   3.905  16.112   7.954 -0.3890  0.0284 -0.1167
  103loPI   C5A 1643   3.996  16.498   7.758  0.1044  0.0518  0.1123
  103loPI   C6A 1644   4.306  16.767   7.735 -0.2162  0.1983  0.0171
  103loPI   C1B 1645   3.595  16.255   8.800  0.2328  0.0554 -0.0251
  103loPI   C2B 1646   3.588  16.198   8.435 -0.2006 -0.2689 -0.1148
  103loPI   C3B 1647   3.399  16.260   8.057  0.2011 -0.1887 -0.1435
  103loPI   C4B 1648   3.525  16.418   7.692 -0.0360 -0.1213 -0.1320
  104loPI    C1 1649  13.370  17.192  10.657  0.0395 -0.0664 -0.2122
  104loPI    C2 1650  13.452  17.395  10.992  0.1632 -0.0534 -0.2500
  104loPI    C3 1651  13.197  17.547  10.724 -0.0239 -0.1162 -0.1100
  104loPI   PO4 1652  13.670  17.222  10.558  0.2020  0.0335 -0.1033
  104loPI   GL1 1653  13.650  17.438  10.266  0.0047  0.0802 -0.3847
  104loPI   GL2 1654  13.800  17.671  10.190  0.1906 -0.3900 -0.0145
  104loPI   C1A 1655  13.586  17.196   9.886  0.1171 -0.1746  0.3937
  104loPI   C2A 1656  13.549  17.276   9.448  0.1277 -0.2108 -0.5361
  104loPI   C3A 1657  13.447  17.272   9.036  0.3332 -0.0141 -0.1304
  104loPI   C4A 1658  13.257  17.379   8.583  0.0299  0.2421  0.3916
  104loPI   C5A 1659  13.205  17.494   8.204 -0.0766 -0.2844 -0.0455
  104loPI   C6A 1660  12.908  17.430   7.809 -0.3817 -0.0994 -0.2289
  104loPI   C1B 1661  13.508  17.699   9.855  0.2071 -0.1235  0.1131
  104loPI   C2B 1662  13.332  17.821   9.448  0.0816 -0.2489  0.3449
  104loPI   C3B 1663  13.449  17.781   9.107 -0.0375  0.0065  0.2836
  104loPI   C4B 1664  13.366  17.940   8.658  0.0404 -0.0441  0.1650
  105loPI    C1 1665  17.076  18.710  10.690  0.1575  0.0041 -0.1045
  105loPI    C2 1666  17.313  19.029  10.650  0.1722  0.0249  0.1311
  105loPI    C3 1667  17.020  19.032  10.921  0.1378 -0.1419  0.0967
  105loPI   PO4 1668  17.027  18.645  10.462 -0.0498 -0.0227  0.0927
  105loPI   GL1 1669  16.969  18.612   9.988 -0.0148  0.1737  0.0206
  105loPI   GL2 1670  16.668  18.607   9.761 -0.0909  0.0577  0.1450
  105loPI   C1A 1671  17.000  18.145   9.749 -0.0192  0.1230 -0.2417
  105loPI   C2A 1672  16.937  18.057   9.326  0.3288 -0.1145  0.1371
  105loPI   C3A 1673  17.022  18.055   8.870  0.1081  0.2147 -0.0767
  105loPI   C4A 1674  17.116  18.193   8.458  0.1719 -0.1585  0.1572
  105loPI   C5A 1675  16.915  18.272   8.031 -0.0672  0.0600  0.1750
  105loPI   C6A 1676  16.717  18.630   7.820 -0.0541 -0.0668 -0.1089
  105loPI   C1B 1677  16.748  18.463   9.346  0.1252 -0.1335 -0.2758
  105loPI   C2B 1678  16.729  18.477   8.941  0.0161 -0.2867  0.0861
  105loPI   C3B 1679  16.648  18.482   8.458  0.0755  0.2095  0.3728
  105loPI   C4B 1680  16.334  18.318   8.246 -0.2474 -0.0675 -0.4423
  106loPI    C1 1681  16.292  11.218  10.023  0.3411 -0.0489 -0.0938
  106loPI    C2 1682  16.244  11.499   9.743 -0.1029  0.1309  0.1513
  106loPI    C3 1683  16.392  11.598  10.101 -0.0233  0.0008  0.1549
  106loPI   PO4 1684  16.422  11.037   9.860 -0.0838  0.0002 -0.0022
  106loPI   GL1 1685  16.381  11.117   9.459  0.2913 -0.0670 -0.3301
  106loPI   GL2 1686  16.154  10.960   9.371 -0.0654 -0.0986 -0.0346
  106loPI   C1A 1687  16.398  11.212   9.034  0.1004 -0.0198  0.2684
  106loPI   C2A 1688  16.530  11.251   8.640  0.1156 -0.2273  0.1499
  106loPI   C3A 1689  16.506  11.010   8.243 -0.0955  0.1644 -0.0843
  106loPI   C4A 1690  16.141  10.877   7.994 -0.1472 -0.0014 -0.2157
  106loPI   C5A 1691  15.934  10.913   7.572  0.0341 -0.0242  0.0625
  106loPI   C6A 1692  15.583  11.257   7.391 -0.2439 -0.1233  0.0003
  106loPI   C1B 1693  15.928  10.965   8.979 -0.0381  0.2537 -0.1698
  106loPI   C2B 1694  16.039  10.811   8.548  0.5717 -0.0656 -0.2172
  106loPI   C3B 1695  15.717  10.915   8.303  0.0451 -0.0111 -0.0980
  106loPI   C4B 1696  15.622  11.031   7.910 -0.0218  0.3226 -0.1807
  107loPI    C1 1697  13.964  10.713   9.718  0.0982  0.0122  0.0756
  107loPI    C2 1698  14.017  10.346   9.869 -0.0586 -0.0778 -0.0832
  107loPI    C3 1699  13.667  10.445   9.704 -0.0031  0.1311 -0.0789
  107loPI   PO4 1700  14.033  10.723   9.519  0.3047  0.0055 -0.1355
  107loPI   GL1 1701  14.339  10.822   9.231  0.2168  0.1466  0.2279
  107loPI   GL2 1702  14.366  10.530   9.092  0.0150  0.1918 -0.0377
  107loPI   C1A 1703  14.368  11.122   8.869  0.1237 -0.1417  0.1108
  107loPI   C2A 1704  14.358  11.095   8.440  0.0018  0.0136 -0.3188
  107loPI   C3A 1705  14.289  11.145   8.101 -0.0012 -0.3579  0.0945
  107loPI   C4A 1706  14.270  11.228   7.674 -0.1722  0.1518 -0.1753
  107loPI   C5A 1707  14.333  11.363   7.283 -0.1899  0.2372  0.1248
  107loPI   C6A 1708  14.206  11.646   6.998 -0.0656 -0.1489  0.0876
  107loPI   C1B 1709  14.340  10.594   8.564 -0.0171  0.2235  0.0220
  107loPI   C2B 1710  14.470  10.648   8.103 -0.0705 -0.0371  0.0738
  107loPI   C3B 1711  14.672  10.904   7.767  0.1836  0.2262  0.2438
  107loPI   C4B 1712  14.919  11.197   7.384  0.0906  0.1176 -0.2036
  108loPI    C1 1713   5.455  12.169   9.961 -0.2829 -0.1866  0.1137
  108loPI    C2 1714   5.668  12.372  10.232 -0.2447 -0.0110 -0.0462
  108loPI    C3 1715   5.634  11.974  10.261 -0.2015  0.0014  0.1883
  108loPI   PO4 1716   5.714  12.232   9.712  0.1393  0.0263  0.0854
  108loPI   GL1 1717   5.614  12.010   9.309 -0.0967  0.0833 -0.0992
  108loPI   GL2 1718   5.285  12.138   9.506 -0.0248  0.2098  0.0214
  108loPI   C1A 1719   5.646  12.234   8.991  0.2367  0.0425  0.2073
  108loPI   C2A 1720   5.541  12.223   8.516  0.2779  0.0809 -0.0087
  108loPI   C3A 1721   5.639  12.451   8.129 -0.3093 -0.0804  0.1418
  108loPI   C4A 1722   5.645  12.805   7.792 -0.0323  0.1458  0.1291
  108loPI   C5A 1723   5.354  12.996   7.521  0.0538 -0.0324 -0.2710
  108loPI   C6A 1724   4.955  13.162   7.614 -0.1483  0.1939  0.0660
  108loPI   C1B 1725   5.078  12.163   9.136  0.1120 -0.0746  0.1279
  108loPI   C2B 1726   5.021  12.118   8.579 -0.1558  0.1517 -0.3905
  108loPI   C3B 1727   4.877  11.941   8.242  0.1234 -0.1979 -0.2978
  108loPI   C4B 1728   4.919  11.566   8.093 -0.1096 -0.2716 -0.0122
  109loPI    C1 1729   6.844   5.950   9.564 -0.0395 -0.0353 -0.0827
  109loPI    C2 1730   7.056   6.078   9.879  0.1193 -0.5062  0.0095
  109loPI    C3 1731   6.656   6.079   9.893  0.1165 -0.0838  0.0267
  109loPI   PO4 1732   6.911   6.036   9.377  0.2378  0.3761  0.0224
  109loPI   GL1 1733   6.607   6.146   8.955  0.0970  0.1451  0.1467
  109loPI   GL2 1734   6.446   5.838   8.878 -0.2449 -0.0265  0.1730
  109loPI   C1A 1735   6.677   6.190   8.516  0.1304  0.0754  0.2131
  109loPI   C2A 1736   6.578   6.204   8.034  0.1769  0.0346 -0.1284
  109loPI   C3A 1737   6.261   6.150   7.727  0.2852  0.0299 -0.0667
  109loPI   C4A 1738   6.287   6.067   7.288 -0.2265  0.0751  0.1284
  109loPI   C5A 1739   5.927   6.310   7.153  0.1634  0.3511 -0.0461
  109loPI   C6A 1740   5.639   6.521   6.936 -0.0608  0.2631  0.0853
  109loPI   C1B 1741   6.474   5.683   8.323  0.3065  0.1132  0.1817
  109loPI   C2B 1742   6.586   5.742   7.944 -0.0586  0.0015  0.0561
  109loPI   C3B 1743   6.454   5.675   7.533  0.5508 -0.1482 -0.3556
  109loPI   C4B 1744   6.687   5.827   7.188  0.1629 -0.1037 -0.2446
  110loPI    C1 1745   7.349  17.488   9.585 -0.0264  0.0157  0.0960
  110loPI    C2 1746   7.017  17.640   9.747 -0.1511 -0.0496 -0.0950
  110loPI    C3 1747   7.368  17.686   9.932 -0.2182  0.2869 -0.0446
  110loPI   PO4 1748   7.457  17.231   9.599 -0.0142  0.1367  0.1723
  110loPI   GL1 1749   7.251  16.779   9.424 -0.0269 -0.2078  0.1261
  110loPI   GL2 1750   7.184  16.607   9.192  0.3172  0.0928  0.1290
  110loPI   C1A 1751   7.610  16.821   9.103 -0.1072 -0.1051  0.0218
  110loPI   C2A 1752   7.826  16.839   8.690  0.1928 -0.1075 -0.0328
  110loPI   C3A 1753   7.871  17.126   8.287  0.0108 -0.1349 -0.0012
  110loPI   C4A 1754   7.841  17.143   7.858 -0.3638  0.3180  0.1268
  110loPI   C5A 1755   7.982  17.260   7.405  0.2290 -0.0968  0.1513
  110loPI   C6A 1756   7.688  17.408   6.942 -0.2326  0.1397 -0.0126
  110loPI   C1B 1757   7.340  16.623   8.708 -0.0559 -0.0637  0.0927
  110loPI   C2B 1758   7.544  16.515   8.309  0.2591 -0.0448  0.1071
  110loPI   C3B 1759   7.604  16.658   7.852 -0.1416  0.3816  0.1421
  110loPI   C4B 1760   7.766  16.810   7.462  0.0409 -0.4577 -0.0118
  111loPI    C1 1761   6.219  10.433   9.875 -0.0908 -0.0112  0.0746
  111loPI    C2 1762   6.274  10.069  10.031  0.1744 -0.0579 -0.1198
  111loPI    C3 1763   6.452  10.386  10.197  0.0186 -0.0283 -0.0064
  111loPI   PO4 1764   6.171  10.324   9.584  0.2156  0.0649 -0.4832
  111loPI   GL1 1765   6.016  10.505   9.249  0.1140  0.1981  0.0177
  111loPI   GL2 1766   6.297  10.711   9.132 -0.0687  0.0607 -0.1683
  111loPI   C1A 1767   6.025  10.409   8.791 -0.2312  0.4072 -0.0641
  111loPI   C2A 1768   6.215  10.506   8.332 -0.2154  0.1571 -0.2096
  111loPI   C3A 1769   6.288  10.466   7.864  0.1630 -0.2856 -0.0019
  111loPI   C4A 1770   6.172  10.335   7.476  0.1310 -0.0490 -0.0152
  111loPI   C5A 1771   5.879  10.421   7.305  0.2336  0.1518  0.1279
  111loPI   C6A 1772   5.812  10.398   6.888 -0.3558 -0.2622 -0.0671
  111loPI   C1B 1773   6.197  10.849   8.787 -0.0302  0.0815 -0.2102
  111loPI   C2B 1774   6.196  11.058   8.332  0.0070 -0.0431  0.2030
  111loPI   C3B 1775   6.446  11.000   7.943  0.3073  0.0370  0.1106
  111loPI   C4B 1776   6.444  10.765   7.453  0.0990  0.2258  0.0392
  112loPI    C1 1777   4.401   2.893   9.975 -0.1296  0.2992  0.0890
  112loPI    C2 1778   4.700   3.056  10.183 -0.0040  0.3228 -0.1073
  112loPI    C3 1779   4.328   3.062  10.330  0.0822  0.3388  0.1147
  112loPI   PO4 1780   4.525   2.716   9.820 -0.0207  0.0295 -0.2125
  112loPI   GL1 1781   4.510   2.597   9.430 -0.0304 -0.0618  0.0355
  112loPI   GL2 1782   4.289   2.900   9.408  0.0566  0.2935  0.0090
  112loPI   C1A 1783   4.471   2.407   9.193 -0.2440  0.2630  0.0309
  112loPI   C2A 1784   4.529   2.290   8.777 -0.0699  0.0940 -0.1139
  112loPI   C3A 1785   4.565   2.306   8.330 -0.2422  0.3353  0.1482
  112loPI   C4A 1786   4.555   2.221   7.831 -0.0208 -0.3948 -0.2163
  112loPI   C5A 1787   4.525   1.995   7.394 -0.1181 -0.0715 -0.0477
  112loPI   C6A 1788   4.178   2.031   7.044  0.3972  0.1979  0.0887
  112loPI   C1B 1789   4.401   2.971   8.952 -0.2725 -0.0327 -0.2225
  112loPI   C2B 1790   4.499   2.843   8.485  0.3770 -0.0261  0.2126
  112loPI   C3B 1791   4.339   2.652   8.114  0.0142  0.0309 -0.1932
  112loPI   C4B 1792   4.194   2.587   7.733 -0.0794 -0.1548 -0.0286
  113loPI    C1 1793   0.967  15.001   9.955 -0.0071 -0.3863  0.0491
  113loPI    C2 1794   1.273  14.977   9.700 -0.0808 -0.1186 -0.0682
  113loPI    C3 1795   1.342  15.038  10.089  0.0169 -0.1315 -0.0832
  113loPI   PO4 1796   0.812  14.890   9.892 -0.0482 -0.0576 -0.1080
  113loPI   GL1 1797   0.745  14.909   9.423  0.1514  0.0399  0.0045
  113loPI   GL2 1798   0.599  14.566   9.454  0.2690 -0.1577  0.0088
  113loPI   C1A 1799   0.847  15.080   9.063  0.4507 -0.1266  0.1156
  113loPI   C2A 1800   0.877  15.014   8.606 -0.2128 -0.2980 -0.2685
  113loPI   C3A 1801   0.820  14.963   8.201  0.1030  0.0044  0.4594
  113loPI   C4A 1802   0.947  14.860   7.826  0.0155  0.0029  0.0920
  113loPI   C5A 1803   0.980  14.638   7.404  0.0313 -0.2774 -0.0923
  113loPI   C6A 1804   0.801  14.628   6.888 -0.1549  0.0778  0.3172
  113loPI   C1B 1805   0.730  14.526   9.028  0.3515 -0.1934 -0.0333
  113loPI   C2B 1806   0.813  14.480   8.578  0.2038 -0.0626 -0.3458
  113loPI   C3B 1807   0.780  14.489   8.175  0.0239  0.3009  0.1843
  113loPI   C4B 1808   0.787  14.411   7.763 -0.1338  0.0239  0.0796
  114loPI    C1 1809   3.502   3.059  10.287 -0.2583 -0.1299  0.2300
  114loPI    C2 1810   3.690   3.014  10.637  0.0285  0.0975  0.1096
  114loPI    C3 1811   3.496   3.355  10.557  0.0001  0.0628  0.0302
  114loPI   PO4 1812   3.697   3.021   9.997  0.2653  0.0269 -0.0162
  114loPI   GL1 1813   3.756   3.050   9.564 -0.2048 -0.2203  0.0132
  114loPI   GL2 1814   3.545   2.823   9.495 -0.0306  0.4316  0.0820
  114loPI   C1A 1815   3.890   2.966   9.151 -0.1073  0.1872 -0.0570
  114loPI   C2A 1816   3.896   2.913   8.833  0.4225 -0.1121 -0.0010
  114loPI   C3A 1817   3.999   2.919   8.368  0.0724 -0.2875 -0.2986
  114loPI   C4A 1818   3.783   2.816   7.931  0.4218  0.1415  0.0121
  114loPI   C5A 1819   3.686   2.509   7.637 -0.1290  0.0436  0.1359
  114loPI   C6A 1820   3.836   2.255   7.276 -0.0679 -0.1651  0.1315
  114loPI   C1B 1821   3.601   2.578   9.135  0.3142  0.2079 -0.2733
  114loPI   C2B 1822   3.563   2.528   8.811 -0.2053  0.2045  0.0225
  114loPI   C3B 1823   3.587   2.494   8.395 -0.0777  0.1035 -0.1382
  114loPI   C4B 1824   3.497   2.435   8.062  0.1412 -0.1181 -0.0776
  115loPI    C1 1825   5.733  14.696   9.826 -0.1676 -0.1376 -0.0801
  115loPI    C2 1826   5.511  14.929  10.064  0.1694  0.2469 -0.1312
  115loPI    C3 1827   5.728  14.632  10.221 -0.0589  0.1299 -0.0331
  115loPI   PO4 1828   5.776  14.826   9.553 -0.1932  0.0051  0.3819
  115loPI   GL1 1829   5.940  15.067   9.239 -0.2678 -0.0057  0.0763
  115loPI   GL2 1830   5.671  15.039   8.997 -0.3715 -0.4318 -0.2329
  115loPI   C1A 1831   6.089  15.183   8.898  0.1524  0.1757 -0.1400
  115loPI   C2A 1832   6.227  15.137   8.438  0.0415  0.1297 -0.0950
  115loPI   C3A 1833   6.153  15.213   8.026 -0.3290 -0.0944  0.0135
  115loPI   C4A 1834   5.956  15.158   7.723  0.0504 -0.2558 -0.0427
  115loPI   C5A 1835   5.922  14.788   7.580 -0.0343  0.0463  0.1441
  115loPI   C6A 1836   5.553  14.539   7.459 -0.1219  0.0164 -0.1030
  115loPI   C1B 1837   5.717  15.000   8.604  0.0374 -0.2023 -0.2191
  115loPI   C2B 1838   5.704  14.932   8.110  0.2460 -0.1345  0.0772
  115loPI   C3B 1839   5.460  15.072   7.764 -0.1738 -0.1729  0.5233
  115loPI   C4B 1840   5.217  14.860   7.480  0.1027  0.2833 -0.1285
  116loPI    C1 1841   4.470   0.589   9.997 -0.2526  0.0891  0.2673
  116loPI    C2 1842   4.297   0.939   9.909 -0.0628  0.1062 -0.0531
  116loPI    C3 1843   4.618   0.929  10.149 -0.0321  0.1586 -0.0918
  116loPI   PO4 1844   4.540   0.441   9.794  0.1651 -0.1598  0.1788
  116loPI   GL1 1845   4.767   0.455   9.423  0.0360  0.3314 -0.0527
  116loPI   GL2 1846   4.993   0.515   9.504  0.1870  0.1475  0.1395
  116loPI   C1A 1847   4.765   0.582   8.923  0.2097  0.0899 -0.1861
  116loPI   C2A 1848   4.939   0.574   8.496  0.2055  0.1296  0.0287
  116loPI   C3A 1849   4.927   0.330   8.191  0.2705  0.0346  0.2821
  116loPI   C4A 1850   4.958   0.247   7.706  0.1700  0.1285 -0.2533
  116loPI   C5A 1851   4.885   0.325   7.280 -0.5289 -0.2499 -0.0484
  116loPI   C6A 1852   5.105   0.236   6.979  0.1914  0.0001 -0.1666
  116loPI   C1B 1853   5.237   0.579   9.128 -0.0516 -0.1685 -0.1449
  116loPI   C2B 1854   5.273   0.776   8.766 -0.0610  0.0355  0.3724
  116loPI   C3B 1855   5.239   0.927   8.347  0.2736 -0.1262  0.3714
  116loPI   C4B 1856   5.092   1.210   8.058  0.1222 -0.0664 -0.0316
  117loPI    C1 1857  18.389  10.188  10.038  0.1600  0.5031  0.0906
  117loPI    C2 1858  18.343  10.079  10.420  0.3436 -0.0537 -0.0359
  117loPI    C3 1859  18.707  10.078  10.255  0.2490  0.0639 -0.2494
  117loPI   PO4 1860  18.176  10.139   9.915  0.2375  0.2717  0.1070
  117loPI   GL1 1861  18.281  10.004   9.566 -0.1576  0.0033 -0.1871
  117loPI   GL2 1862  18.186   9.778   9.396 -0.1748  0.0430  0.1986
  117loPI   C1A 1863  18.575  10.099   9.241 -0.1650 -0.3985 -0.1846
  117loPI   C2A 1864  18.878  10.162   8.926  0.0818 -0.2103 -0.1198
  117loPI   C3A 1865  18.851  10.299   8.635 -0.2717  0.0417  0.3124
  117loPI   C4A 1866  18.800  10.298   8.207  0.0790  0.1268 -0.1853
  117loPI   C5A 1867  18.729  10.296   7.747 -0.0006  0.0253 -0.4326
  117loPI   C6A 1868  18.706  10.413   7.319  0.1086  0.1233 -0.4513
  117loPI   C1B 1869  18.415   9.491   9.193  0.1170 -0.1299 -0.3478
  117loPI   C2B 1870  18.353   9.239   8.865  0.1018 -0.2735  0.1736
  117loPI   C3B 1871  18.602   9.112   8.531 -0.1032 -0.0321  0.0127
  117loPI   C4B 1872  18.732   8.952   8.195  0.1763 -0.1467  0.1086
  118loPI    C1 1873   8.739   7.965   9.474 -0.1724 -0.0534 -0.1012
  118loPI    C2 1874   8.508   7.655   9.369 -0.1727 -0.1190  0.0887
  118loPI    C3 1875   8.457   7.832   9.724 -0.1253  0.0546  0.0102
  118loPI   PO4 1876   8.742   8.103   9.235  0.0927  0.0823 -0.2475
  118loPI   GL1 1877   8.613   7.684   8.875 -0.0424 -0.1571  0.1277
  118loPI   GL2 1878   8.725   7.951   8.708 -0.1837 -0.0656 -0.3497
  118loPI   C1A 1879   8.545   7.355   8.546  0.1598  0.0592  0.0121
  118loPI   C2A 1880   8.457   7.235   8.127  0.2320  0.2137  0.0345
  118loPI   C3A 1881   8.098   7.093   7.875 -0.1360  0.1564  0.3953
  118loPI   C4A 1882   7.874   7.067   7.468 -0.1879  0.1519 -0.1639
  118loPI   C5A 1883   7.953   7.082   7.003 -0.2774 -0.0727 -0.0860
  118loPI   C6A 1884   8.104   7.144   6.539  0.0394  0.1923 -0.0345
  118loPI   C1B 1885   9.025   7.803   8.271  0.4815 -0.0014  0.1845
  118loPI   C2B 1886   9.090   7.780   7.868  0.0794  0.2752 -0.1506
  118loPI   C3B 1887   9.213   7.823   7.458  0.2081  0.2723 -0.0023
  118loPI   C4B 1888   9.299   7.962   6.953 -0.1361 -0.1786  0.1332
  119loPI    C1 1889  15.854  10.578  10.076  0.0170  0.1506  0.0258
  119loPI    C2 1890  16.026  10.858  10.304  0.1294  0.0536  0.0609
  119loPI    C3 1891  16.079  10.471  10.389 -0.1952  0.0229  0.1370
  119loPI   PO4 1892  15.937  10.627   9.843  0.3678  0.3269  0.1026
  119loPI   GL1 1893  16.226  10.494   9.456  0.0957 -0.0697  0.1572
  119loPI   GL2 1894  15.996  10.279   9.252  0.0652  0.0333  0.1160
  119loPI   C1A 1895  16.318  10.669   8.948 -0.2579  0.1704 -0.2474
  119loPI   C2A 1896  16.520  10.632   8.598 -0.0899  0.1970 -0.2011
  119loPI   C3A 1897  16.837  10.651   8.292 -0.0761  0.0293  0.2339
  119loPI   C4A 1898  17.026  10.335   7.999  0.1238 -0.0207 -0.0985
  119loPI   C5A 1899  17.085  10.204   7.591 -0.1624  0.0490 -0.0478
  119loPI   C6A 1900  17.075  10.107   7.194  0.0619 -0.1485 -0.0010
  119loPI   C1B 1901  15.779  10.491   8.901 -0.2653  0.1424  0.2257
  119loPI   C2B 1902  15.562  10.465   8.494 -0.1900  0.1315  0.0524
  119loPI   C3B 1903  15.442  10.589   8.073 -0.2467 -0.0755 -0.1222
  119loPI   C4B 1904  15.420  10.574   7.734 -0.1410  0.1123 -0.0723
  120loPI    C1 1905  17.592  15.594  10.215 -0.2083  0.2338  0.0756
  120loPI    C2 1906  17.788  15.412  10.513  0.0082  0.1539 -0.1129
  120loPI    C3 1907  17.682  15.796  10.548  0.1519  0.1828  0.0132
  120loPI   PO4 1908  17.805  15.472  10.045  0.2012 -0.1036 -0.0246
  120loPI   GL1 1909  17.692  15.526   9.636 -0.0773  0.1138 -0.1589
  120loPI   GL2 1910  17.954  15.582   9.445  0.0403 -0.1350  0.1292
  120loPI   C1A 1911  17.518  15.511   9.228 -0.1415  0.1702  0.0184
  120loPI   C2A 1912  17.512  15.182   8.952  0.2410 -0.3639 -0.2272
  120loPI   C3A 1913  17.533  15.069   8.478  0.1311  0.1668 -0.0657
  120loPI   C4A 1914  17.378  14.817   8.145 -0.3233  0.2140  0.1683
  120loPI   C5A 1915  17.258  14.435   7.830 -0.2854  0.3004  0.1253
  120loPI   C6A 1916  16.870  14.277   7.820 -0.0092 -0.1495  0.0459
  120loPI   C1B 1917  18.159  15.762   9.023  0.1398  0.2441 -0.0982
  120loPI   C2B 1918  18.376  15.481   8.912  0.3417  0.1752  0.1172
  120loPI   C3B 1919  18.437  15.087   8.929  0.2686 -0.2730  0.1576
  120loPI   C4B 1920  18.033  14.850   8.761 -0.0053 -0.0533  0.0180
  121loPI    C1 1921  17.402  13.930   9.826 -0.1241 -0.2988 -0.0103
  121loPI    C2 1922  17.696  13.659   9.826 -0.0177 -0.1846  0.1100
  121loPI    C3 1923  17.721  13.981  10.061 -0.0865 -0.0082 -0.1213
  121loPI   PO4 1924  17.367  13.983   9.540  0.3542 -0.3221  0.0059
  121loPI   GL1 1925  17.581  14.149   9.200  0.1185  0.2330  0.2755
  121loPI   GL2 1926  17.198  14.161   9.087 -0.1547  0.3650 -0.1817
  121loPI   C1A 1927  17.642  14.068   8.770  0.0061  0.5161  0.1939
  121loPI   C2A 1928  17.660  14.049   8.362 -0.1681  0.1678  0.1803
  121loPI   C3A 1929  17.769  14.255   7.847 -0.1465 -0.1107 -0.0303
  121loPI   C4A 1930  17.732  14.586   7.612 -0.1083 -0.3381 -0.1391
  121loPI   C5A 1931  17.806  15.031   7.314 -0.3968 -0.0932 -0.1421
  121loPI   C6A 1932  18.128  15.353   7.465 -0.0595  0.1110 -0.0561
  121loPI   C1B 1933  16.862  14.201   8.875  0.0092 -0.0967 -0.2662
  121loPI   C2B 1934  16.562  14.358   8.518  0.1260 -0.0781  0.3144
  121loPI   C3B 1935  16.505  14.473   8.175 -0.1460  0.0566  0.1608
  121loPI   C4B 1936  16.188  14.565   7.931 -0.0793  0.2968  0.5140
  122loPI    C1 1937  13.052   8.175   9.769 -0.0225  0.2018 -0.0425
  122loPI    C2 1938  13.345   8.206  10.039  0.0890  0.1337 -0.1548
  122loPI    C3 1939  12.973   8.317  10.135  0.1164  0.0573  0.0448
  122loPI   PO4 1940  12.981   8.021   9.646  0.1247 -0.3538 -0.1485
  122loPI   GL1 1941  12.859   7.827   9.254  0.0766 -0.0467  0.1421
  122loPI   GL2 1942  12.755   7.541   9.125 -0.1663 -0.1159 -0.4579
  122loPI   C1A 1943  12.712   7.970   8.870  0.2067  0.1380  0.2367
  122loPI   C2A 1944  12.507   7.849   8.539  0.0695  0.2505  0.1087
  122loPI   C3A 1945  12.507   8.190   8.228 -0.0173  0.0752 -0.0877
  122loPI   C4A 1946  12.589   8.597   8.183 -0.0189 -0.1435 -0.2259
  122loPI   C5A 1947  12.757   8.723   7.698 -0.1789 -0.1727  0.1436
  122loPI   C6A 1948  13.037   8.777   7.543 -0.4836 -0.0823 -0.0589
  122loPI   C1B 1949  13.092   7.608   8.822 -0.4259  0.1671  0.1382
  122loPI   C2B 1950  13.333   7.479   8.307  0.0115  0.0407  0.0272
  122loPI   C3B 1951  13.625   7.300   8.071  0.0469  0.1114 -0.1034
  122loPI   C4B 1952  13.767   6.930   7.900  0.1438  0.0828  0.1994
  123loPI    C1 1953   4.227  15.964   9.705  0.0025  0.1041 -0.1239
  123loPI    C2 1954   4.485  16.148   9.948  0.0793 -0.1317 -0.0235
  123loPI    C3 1955   4.308  15.810  10.065 -0.1112 -0.0878 -0.1790
  123loPI   PO4 1956   4.216  16.060   9.495 -0.2185 -0.1075 -0.0077
  123loPI   GL1 1957   4.353  16.072   9.079  0.2343 -0.1036  0.0372
  123loPI   GL2 1958   4.519  15.790   9.159  0.2866 -0.0948 -0.2031
  123loPI   C1A 1959   4.186  16.276   8.712  0.2979  0.1234 -0.0637
  123loPI   C2A 1960   4.044  16.628   8.759 -0.0523 -0.0886  0.5053
  123loPI   C3A 1961   3.671  16.766   8.514  0.1879 -0.0799 -0.2292
  123loPI   C4A 1962   3.531  16.794   8.033 -0.0457 -0.0152 -0.2290
  123loPI   C5A 1963   3.652  16.875   7.658 -0.2205 -0.0188  0.3893
  123loPI   C6A 1964   3.933  16.812   7.250  0.0512 -0.3318 -0.0656
  123loPI   C1B 1965   4.633  15.946   8.727  0.2472 -0.2451  0.0448
  123loPI   C2B 1966   4.883  16.018   8.327  0.1208  0.0108 -0.1701
  123loPI   C3B 1967   4.934  16.081   7.938  0.1133  0.1059  0.1352
  123loPI   C4B 1968   4.794  16.242   7.600 -0.1072  0.1562  0.6221
  124loPI    C1 1969   8.506   8.353   9.623  0.2209 -0.1965 -0.0000
  124loPI    C2 1970   8.713   8.583   9.877 -0.1114 -0.0546  0.1483
  124loPI    C3 1971   8.387   8.389  10.003  0.0404 -0.4362 -0.0320
  124loPI   PO4 1972   8.484   8.486   9.405 -0.0374  0.1637 -0.0580
  124loPI   GL1 1973   8.465   8.406   8.973 -0.1537  0.2825 -0.0725
  124loPI   GL2 1974   8.239   8.481   8.729  0.0073  0.0465 -0.0948
  124loPI   C1A 1975   8.792   8.463   8.730 -0.3565  0.0257 -0.1782
  124loPI   C2A 1976   8.886   8.548   8.296 -0.1776  0.1819  0.4044
  124loPI   C3A 1977   8.907   8.672   7.821 -0.0767  0.1037 -0.1088
  124loPI   C4A 1978   8.826   8.575   7.353 -0.0730 -0.0243 -0.3271
  124loPI   C5A 1979   8.853   8.669   6.908 -0.1678 -0.0651  0.0498
  124loPI   C6A 1980   9.037   8.672   6.518  0.3801  0.4124 -0.1463
  124loPI   C1B 1981   8.417   8.340   8.393  0.0390  0.2243 -0.0884
  124loPI   C2B 1982   8.681   8.149   8.094 -0.1155 -0.1890  0.0927
  124loPI   C3B 1983   8.829   8.140   7.694 -0.0856 -0.1729 -0.0144
  124loPI   C4B 1984   8.842   8.140   7.191 -0.2107 -0.4075  0.4532
  125loPI    C1 1985   6.416   9.245   9.763  0.0522  0.0670  0.1889
  125loPI    C2 1986   6.761   9.213   9.962 -0.0005  0.0622  0.2799
  125loPI    C3 1987   6.420   9.275  10.162 -0.0461  0.1118  0.1868
  125loPI   PO4 1988   6.443   9.353   9.537 -0.0383  0.2890 -0.3954
  125loPI   GL1 1989   6.647   9.491   9.178 -0.0882  0.0482  0.2547
  125loPI   GL2 1990   6.410   9.271   9.081  0.0747  0.3462 -0.0038
  125loPI   C1A 1991   6.762   9.774   8.895  0.2366 -0.2954  0.0879
  125loPI   C2A 1992   6.781   9.869   8.433 -0.2518  0.0116  0.4167
  125loPI   C3A 1993   6.978   9.865   8.032 -0.0049 -0.1518  0.1183
  125loPI   C4A 1994   6.884   9.857   7.584 -0.2438  0.0983  0.0016
  125loPI   C5A 1995   7.036  10.141   7.246  0.1672  0.2336  0.0565
  125loPI   C6A 1996   7.099  10.643   7.343  0.1462  0.0664 -0.2758
  125loPI   C1B 1997   6.404   9.480   8.635 -0.0880  0.0636 -0.1606
  125loPI   C2B 1998   6.144   9.537   8.306 -0.0155  0.1236 -0.0227
  125loPI   C3B 1999   6.017   9.715   7.893  0.1425  0.3584 -0.1239
  125loPI   C4B 2000   5.845   9.958   7.558  0.3421  0.0490 -0.2284
  126loPI    C1 2001   5.200  10.417   9.823  0.0273 -0.0769  0.1281
  126loPI    C2 2002   5.390  10.451  10.173  0.0184 -0.1665  0.1418
  126loPI    C3 2003   5.010  10.571  10.139 -0.0183 -0.2672  0.1943
  126loPI   PO4 2004   5.233  10.227   9.792  0.1389  0.0435  0.1942
  126loPI   GL1 2005   5.234  10.056   9.364 -0.2521 -0.1309 -0.2717
  126loPI   GL2 2006   4.890  10.140   9.360 -0.0741  0.1590 -0.0815
  126loPI   C1A 2007   5.399  10.172   9.016 -0.1727  0.4108  0.1445
  126loPI   C2A 2008   5.550  10.269   8.572 -0.1523  0.0916  0.2506
  126loPI   C3A 2009   5.435  10.500   8.215 -0.0827  0.0624  0.3511
  126loPI   C4A 2010   5.373  10.763   7.884  0.1020  0.0492 -0.1099
  126loPI   C5A 2011   5.399  10.879   7.453  0.1291  0.0820  0.0091
  126loPI   C6A 2012   5.366  10.529   7.137 -0.2157 -0.2816 -0.0385
  126loPI   C1B 2013   4.885  10.285   8.940  0.0767 -0.1238 -0.2935
  126loPI   C2B 2014   5.025  10.283   8.526  0.1895 -0.1549 -0.2690
  126loPI   C3B 2015   4.941  10.448   7.999  0.1274 -0.0912 -0.0899
  126loPI   C4B 2016   4.924  10.570   7.568 -0.1839  0.2698  0.0646
  127loPI    C1 2017   5.412  14.264   9.940 -0.0537 -0.0479 -0.1213
  127loPI    C2 2018   5.127  14.005  10.046  0.0242 -0.1442 -0.1454
  127loPI    C3 2019   5.464  13.873   9.878  0.2076 -0.0590  0.1480
  127loPI   PO4 2020   5.288  14.539   9.783  0.0509 -0.1684  0.2357
  127loPI   GL1 2021   5.332  14.780   9.331 -0.0256 -0.0940 -0.0221
  127loPI   GL2 2022   5.075  14.765   9.405 -0.0226  0.2006 -0.1100
  127loPI   C1A 2023   5.314  14.788   8.852  0.0695 -0.5207 -0.1136
  127loPI   C2A 2024   5.241  14.800   8.550  0.0424  0.1332  0.0394
  127loPI   C3A 2025   5.159  15.099   8.205 -0.0685  0.1031  0.0152
  127loPI   C4A 2026   4.996  15.268   7.843 -0.1075  0.0385  0.1196
  127loPI   C5A 2027   5.030  15.365   7.468 -0.1964 -0.0281 -0.1592
  127loPI   C6A 2028   4.822  15.703   7.468 -0.1790  0.0259  0.1885
  127loPI   C1B 2029   4.872  14.942   9.040  0.0518  0.2059  0.0579
  127loPI   C2B 2030   4.676  14.979   8.713 -0.0167 -0.2469  0.2928
  127loPI   C3B 2031   4.640  15.156   8.294 -0.3110 -0.1156  0.0085
  127loPI   C4B 2032   4.508  15.042   7.904  0.1685  0.1832 -0.2880
  128loPI    C1 2033  18.399  11.810   9.870  0.1792 -0.3729 -0.4038
  128loPI    C2 2034  18.239  11.444   9.896 -0.2530 -0.1647  0.0186
  128loPI    C3 2035  18.502  11.568  10.171 -0.0627 -0.1738 -0.1565
  128loPI   PO4 2036  18.349  12.021   9.541  0.3104 -0.0848  0.1126
  128loPI   GL1 2037  18.136  12.245   9.266  0.1344 -0.1325 -0.0107
  128loPI   GL2 2038  18.240  12.493   9.370  0.2252  0.1036 -0.0709
  128loPI   C1A 2039  18.136  12.212   8.795 -0.0166 -0.1710  0.0633
  128loPI   C2A 2040  18.013  12.330   8.347  0.2513 -0.2388  0.1226
  128loPI   C3A 2041  17.668  12.351   8.169 -0.0214  0.1288 -0.0430
  128loPI   C4A 2042  17.388  12.601   7.779  0.2473  0.3932 -0.0494
  128loPI   C5A 2043  17.192  12.997   7.660 -0.2648  0.2974  0.1133
  128loPI   C6A 2044  16.916  13.052   7.411  0.1175  0.3018  0.3004
  128loPI   C1B 2045  18.145  12.710   8.975 -0.2674 -0.1744  0.0348
  128loPI   C2B 2046  18.015  12.756   8.664 -0.2791 -0.3277  0.0342
  128loPI   C3B 2047  18.089  12.794   8.223 -0.2109 -0.0382 -0.1053
  128loPI   C4B 2048  18.053  12.608   7.843  0.1239  0.1603 -0.2763
  129loPI    C1 2049  11.278   1.484  10.435  0.1319 -0.0124 -0.0332
  129loPI    C2 2050  11.174   1.119  10.559  0.1924  0.0458  0.1928
  129loPI    C3 2051  11.226   1.413  10.825  0.1700  0.2127  0.0143
  129loPI   PO4 2052  11.255   1.522  10.204  0.0619 -0.3625 -0.0564
  129loPI   GL1 2053  11.229   1.378   9.761 -0.0369  0.0413  0.0500
  129loPI   GL2 2054  11.249   1.549   9.456  0.0471  0.0796 -0.1129
  129loPI   C1A 2055  10.758   1.490   9.567 -0.1984 -0.1927 -0.0794
  129loPI   C2A 2056  10.695   1.496   9.162 -0.1554 -0.3392 -0.0532
  129loPI   C3A 2057  10.543   1.545   8.755  0.0784 -0.0913  0.0434
  129loPI   C4A 2058  10.641   1.566   8.364  0.0735  0.1313 -0.2489
  129loPI   C5A 2059  10.902   1.496   8.042 -0.3231 -0.0899  0.0305
  129loPI   C6A 2060  11.093   1.175   7.826  0.1876  0.2157  0.0237
  129loPI   C1B 2061  11.039   1.961   9.334 -0.0046 -0.0394 -0.2220
  129loPI   C2B 2062  10.689   1.980   9.014 -0.0894 -0.1583  0.4351
  129loPI   C3B 2063  10.523   2.193   8.527  0.5305 -0.0798  0.2937
  129loPI   C4B 2064  10.392   2.373   8.194 -0.2041 -0.1033  0.4247
  130loPI    C1 2065   4.415  14.525   9.860  0.0422 -0.1269 -0.0422
  130loPI    C2 2066   4.799  14.602   9.781  0.0032  0.1227  0.0005
  130loPI    C3 2067   4.701  14.299  10.023  0.1617 -0.0821 -0.1875
  130loPI   PO4 2068   4.259  14.628   9.708 -0.0589  0.2256  0.0774
  130loPI   GL1 2069   4.118  14.382   9.281  0.0369 -0.2691  0.0356
  130loPI   GL2 2070   4.002  14.625   9.139 -0.1094  0.2344  0.2237
  130loPI   C1A 2071   4.303  14.331   8.801  0.0173  0.2488 -0.0634
  130loPI   C2A 2072   4.539  14.066   8.510  0.0305 -0.0048 -0.3964
  130loPI   C3A 2073   4.518  13.846   8.120  0.0938 -0.1259 -0.1943
  130loPI   C4A 2074   4.420  13.793   7.596  0.1436 -0.1640 -0.1656
  130loPI   C5A 2075   4.032  13.891   7.312 -0.3081 -0.1351 -0.1802
  130loPI   C6A 2076   3.812  13.829   7.005  0.1114 -0.0404  0.4612
  130loPI   C1B 2077   4.183  14.877   8.845 -0.1027  0.3106 -0.1215
  130loPI   C2B 2078   4.075  15.181   8.390 -0.1021 -0.0153 -0.3153
  130loPI   C3B 2079   4.136  15.346   7.996  0.1617  0.4156 -0.2082
  130loPI   C4B 2080   3.973  15.672   7.726 -0.0632  0.3631 -0.1603
  131loPI    C1 2081  15.413  10.294  10.031 -0.1373 -0.1742 -0.1594
  131loPI    C2 2082  15.603  10.282  10.383 -0.0998 -0.1824 -0.1798
  131loPI    C3 2083  15.306  10.544  10.325  0.1769  0.1152 -0.2837
  131loPI   PO4 2084  15.521   9.955   9.973 -0.1323  0.3459 -0.1087
  131loPI   GL1 2085  15.799   9.837   9.552  0.0206 -0.0921 -0.1408
  131loPI   GL2 2086  15.791   9.674   9.267  0.2552  0.3496 -0.2445
  131loPI   C1A 2087  15.537   9.982   9.070 -0.0965 -0.3550 -0.0043
  131loPI   C2A 2088  15.520   9.922   8.641  0.1557  0.3930  0.4887
  131loPI   C3A 2089  15.717  10.038   8.173 -0.1426  0.1926 -0.0235
  131loPI   C4A 2090  15.986   9.900   7.856  0.1053 -0.0694  0.2021
  131loPI   C5A 2091  16.262  10.060   7.604  0.1574  0.0482  0.0177
  131loPI   C6A 2092  16.577  10.024   7.467 -0.3267 -0.0736 -0.0912
  131loPI   C1B 2093  15.724   9.487   8.817 -0.2269  0.2298 -0.0971
  131loPI   C2B 2094  15.920   9.443   8.436 -0.1163  0.0291 -0.0917
  131loPI   C3B 2095  16.240   9.761   8.260 -0.1907 -0.2944 -0.0054
  131loPI   C4B 2096  16.456   9.715   7.857  0.3975 -0.0063 -0.2307
  132loPI    C1 2097   5.414  17.495   9.801  0.0513  0.1245  0.2011
  132loPI    C2 2098   5.812  17.506   9.843  0.0695  0.0456  0.0556
  132loPI    C3 2099   5.591  17.282  10.090  0.1279 -0.0149  0.0528
  132loPI   PO4 2100   5.347  17.454   9.530  0.1406 -0.0049 -0.1336
  132loPI   GL1 2101   5.378  17.469   9.176  0.3069  0.0842 -0.0721
  132loPI   GL2 2102   5.074  17.605   9.158  0.0451  0.1034  0.1249
  132loPI   C1A 2103   5.555  17.565   8.770 -0.0825 -0.0259 -0.1090
  132loPI   C2A 2104   5.679  17.818   8.284 -0.2180  0.0925  0.1007
  132loPI   C3A 2105   5.748  17.822   7.873 -0.1134 -0.0741 -0.3821
  132loPI   C4A 2106   5.898  18.158   7.593 -0.0741 -0.0787 -0.1568
  132loPI   C5A 2107   5.937  18.090   7.166 -0.1359  0.2672 -0.1202
  132loPI   C6A 2108   6.101  18.239   6.752 -0.0853  0.2031  0.7683
  132loPI   C1B 2109   5.119  17.768   8.732 -0.1166  0.0764  0.0371
  132loPI   C2B 2110   5.128  17.877   8.306  0.1347 -0.0991 -0.1181
  132loPI   C3B 2111   5.322  18.148   7.948 -0.2318 -0.0594  0.3570
  132loPI   C4B 2112   5.444  18.519   7.708  0.2891 -0.0633 -0.0050
  133loPI    C1 2113  12.017   8.386   9.888 -0.1958 -0.0230  0.1947
  133loPI    C2 2114  12.222   8.718   9.800  0.1386 -0.2172  0.2248
  133loPI    C3 2115  11.941   8.725  10.085  0.1861  0.0244  0.2673
  133loPI   PO4 2116  12.043   8.365   9.531  0.1075  0.3095  0.4652
  133loPI   GL1 2117  11.919   8.445   9.131 -0.0704 -0.1081 -0.0049
  133loPI   GL2 2118  11.713   8.192   9.081 -0.0643  0.1016 -0.1945
  133loPI   C1A 2119  11.895   8.389   8.627 -0.0444  0.0230 -0.0583
  133loPI   C2A 2120  12.101   8.470   8.170  0.1876  0.4024  0.1494
  133loPI   C3A 2121  12.337   8.491   7.658  0.0030  0.0675 -0.0925
  133loPI   C4A 2122  12.290   8.375   7.271 -0.2645 -0.1464 -0.0162
  133loPI   C5A 2123  12.050   8.448   6.960 -0.2057  0.0814 -0.0974
  133loPI   C6A 2124  12.132   8.665   6.552  0.2611  0.0627 -0.1449
  133loPI   C1B 2125  11.755   7.927   8.739  0.2042  0.3371  0.1090
  133loPI   C2B 2126  12.004   7.972   8.323 -0.3837 -0.1567  0.2161
  133loPI   C3B 2127  12.157   8.047   7.824 -0.2913  0.0096 -0.5259
  133loPI   C4B 2128  12.333   7.893   7.504 -0.2073  0.1648 -0.0548
  134loPI    C1 2129  13.786  13.999   9.991 -0.0358  0.1848 -0.2940
  134loPI    C2 2130  13.612  13.723  10.222  0.0990  0.2741 -0.0822
  134loPI    C3 2131  13.405  14.045  10.105 -0.0432  0.1105 -0.2885
  134loPI   PO4 2132  13.946  13.813   9.734 -0.2936  0.1447 -0.2279
  134loPI   GL1 2133  14.400  14.039   9.510  0.2459  0.1163  0.0919
  134loPI   GL2 2134  14.599  14.309   9.651  0.2192 -0.0547  0.0516
  134loPI   C1A 2135  14.145  14.129   9.089 -0.0493 -0.0341 -0.1236
  134loPI   C2A 2136  14.056  14.144   8.699 -0.2555 -0.2469 -0.0461
  134loPI   C3A 2137  14.251  14.000   8.280 -0.2234 -0.1003 -0.3240
  134loPI   C4A 2138  14.346  13.905   7.884 -0.0416  0.1389 -0.2943
  134loPI   C5A 2139  14.484  13.680   7.543  0.0884  0.2309  0.0176
  134loPI   C6A 2140  14.717  13.748   7.140 -0.0620  0.1158  0.1981
  134loPI   C1B 2141  14.829  14.393   9.278  0.0154  0.1445 -0.0820
  134loPI   C2B 2142  14.980  14.253   8.779 -0.0066  0.0521  0.0384
  134loPI   C3B 2143  14.940  14.263   8.284 -0.2144  0.0280 -0.2902
  134loPI   C4B 2144  14.728  14.017   8.115 -0.0473  0.2279  0.1626
  135loPI    C1 2145  16.714  12.260  10.184 -0.1513 -0.0842 -0.1367
  135loPI    C2 2146  16.855  11.891  10.120  0.0300 -0.0761  0.1936
  135loPI    C3 2147  17.019  12.122  10.403 -0.0794  0.2613 -0.0120
  135loPI   PO4 2148  16.719  12.351   9.903 -0.1079 -0.0967  0.1633
  135loPI   GL1 2149  16.989  12.480   9.500  0.1236 -0.0822  0.2106
  135loPI   GL2 2150  17.169  12.642   9.294 -0.2178  0.0011 -0.0363
  135loPI   C1A 2151  16.675  12.309   9.189 -0.2048  0.0853 -0.1913
  135loPI   C2A 2152  16.524  12.473   8.833  0.1584 -0.5790  0.0674
  135loPI   C3A 2153  16.465  12.501   8.388  0.0248  0.1513 -0.1784
  135loPI   C4A 2154  16.444  12.451   7.919  0.1364 -0.1386  0.0231
  135loPI   C5A 2155  16.240  12.423   7.473 -0.1397  0.0266  0.2808
  135loPI   C6A 2156  16.105  12.479   7.128 -0.0279 -0.1253 -0.1498
  135loPI   C1B 2157  16.868  12.840   9.163  0.2246  0.0189  0.3614
  135loPI   C2B 2158  16.781  12.967   8.844  0.0978 -0.0220  0.1421
  135loPI   C3B 2159  16.818  12.900   8.432  0.1660 -0.3300 -0.2636
  135loPI   C4B 2160  16.839  13.155   8.061  0.1020  0.1623  0.1800
  136loPI    C1 2161  15.471  18.078  10.837 -0.1329 -0.0577  0.3111
  136loPI    C2 2162  15.303  18.050  11.199 -0.3938 -0.2008  0.1827
  136loPI    C3 2163  15.361  17.720  10.979  0.2134 -0.1769  0.2882
  136loPI   PO4 2164  15.388  18.251  10.659 -0.3458  0.0896  0.0096
  136loPI   GL1 2165  15.367  18.271  10.307  0.2441 -0.2162  0.2008
  136loPI   GL2 2166  15.129  18.080  10.170  0.3043 -0.1384  0.2117
  136loPI   C1A 2167  15.603  18.378   9.889 -0.0420  0.1517 -0.3418
  136loPI   C2A 2168  15.631  18.268   9.461  0.1653 -0.0286  0.2343
  136loPI   C3A 2169  15.504  18.382   9.027 -0.0752 -0.0033 -0.0611
  136loPI   C4A 2170  15.222  18.728   8.842 -0.2359 -0.1049 -0.0618
  136loPI   C5A 2171  15.132  18.877   8.409  0.0843  0.1857 -0.0605
  136loPI   C6A 2172  15.340  18.987   8.114  0.3795  0.1469  0.0525
  136loPI   C1B 2173  15.122  18.123   9.767 -0.1933  0.2316 -0.0805
  136loPI   C2B 2174  15.127  18.176   9.292 -0.0656  0.3579 -0.0841
  136loPI   C3B 2175  14.885  18.392   8.998 -0.0123 -0.0467 -0.0874
  136loPI   C4B 2176  14.717  18.678   8.702  0.0747 -0.1052  0.1089
  137loPI    C1 2177   1.851  18.090  10.126  0.0706  0.2339 -0.0424
  137loPI    C2 2178   2.149  18.049   9.862  0.0559  0.1157 -0.0411
  137loPI    C3 2179   1.973  17.725  10.017 -0.0179  0.1850  0.0209
  137loPI   PO4 2180   1.672  18.245  10.057 -0.1292 -0.1055  0.1134
  137loPI   GL1 2181   1.856  18.471   9.688 -0.1132  0.0332 -0.1245
  137loPI   GL2 2182   2.021  18.647   9.645  0.2737 -0.1240  0.1103
  137loPI   C1A 2183   2.019  18.177   9.378  0.0120 -0.0500 -0.0637
  137loPI   C2A 2184   2.097  18.289   8.847  0.0694 -0.1996  0.1608
  137loPI   C3A 2185   2.131  18.381   8.454 -0.1858  0.1492 -0.1345
  137loPI   C4A 2186   2.049  18.402   8.025 -0.1498  0.0184  0.1002
  137loPI   C5A 2187   1.886  18.466   7.581  0.1320  0.3505  0.5025
  137loPI   C6A 2188   1.887  18.432   7.124  0.5087 -0.0050 -0.1650
  137loPI   C1B 2189   1.787  18.649   9.201  0.1121  0.1477  0.1227
  137loPI   C2B 2190   1.649  18.618   8.752  0.2673  0.2396  0.2232
  137loPI   C3B 2191   1.603  18.687   8.329  0.0257 -0.4280  0.1509
  137loPI   C4B 2192   1.606  18.702   7.908  0.0028 -0.0275  0.0405
  138loPI    C1 2193  14.824  16.617  10.610 -0.1363 -0.2447  0.0535
  138loPI    C2 2194  14.738  16.971  10.775  0.0859 -0.1672  0.0064
  138loPI    C3 2195  14.471  16.673  10.789 -0.1174  0.0135  0.0128
  138loPI   PO4 2196  14.983  16.723  10.376  0.1170  0.3920  0.0121
  138loPI   GL1 2197  14.828  17.038   9.978  0.2167 -0.1188 -0.0206
  138loPI   GL2 2198  14.960  17.127   9.660  0.0452  0.0291  0.0915
  138loPI   C1A 2199  14.514  17.323   9.885 -0.3445  0.0153 -0.3819
  138loPI   C2A 2200  14.415  17.599   9.607  0.0088  0.0223  0.1422
  138loPI   C3A 2201  14.282  17.649   9.232 -0.0547 -0.1728 -0.0147
  138loPI   C4A 2202  14.306  17.721   8.747 -0.0675 -0.0170 -0.1384
  138loPI   C5A 2203  14.326  17.584   8.230 -0.2373 -0.0199 -0.2429
  138loPI   C6A 2204  14.319  17.290   7.812 -0.2593  0.0583  0.2229
  138loPI   C1B 2205  14.664  17.235   9.389 -0.2410  0.1182  0.2045
  138loPI   C2B 2206  14.622  17.343   8.953 -0.1975  0.1321  0.0973
  138loPI   C3B 2207  14.727  17.343   8.520  0.1443 -0.0564 -0.1652
  138loPI   C4B 2208  14.791  17.596   8.127  0.1935  0.1374  0.1814
  139loPI    C1 2209   3.457   7.043   9.813  0.0053 -0.1027  0.2003
  139loPI    C2 2210   3.621   7.314   9.569  0.2106 -0.3039  0.1108
  139loPI    C3 2211   3.735   7.295   9.952 -0.1018  0.0030  0.2239
  139loPI   PO4 2212   3.521   6.802   9.656 -0.1724  0.0591  0.0490
  139loPI   GL1 2213   3.345   6.741   9.295 -0.2088  0.1092 -0.1948
  139loPI   GL2 2214   3.327   6.491   9.192 -0.0659 -0.1564 -0.4426
  139loPI   C1A 2215   3.286   6.865   8.874  0.0739 -0.0981 -0.0211
  139loPI   C2A 2216   3.302   6.750   8.421  0.3109  0.0373 -0.0674
  139loPI   C3A 2217   3.393   6.745   8.117  0.0184  0.0236 -0.0426
  139loPI   C4A 2218   3.582   6.852   7.727 -0.1025  0.1189 -0.1252
  139loPI   C5A 2219   3.827   7.050   7.401  0.1241 -0.2525  0.1054
  139loPI   C6A 2220   3.997   7.181   6.970 -0.0646  0.0817  0.3031
  139loPI   C1B 2221   3.419   6.334   8.848 -0.1902 -0.0568  0.2186
  139loPI   C2B 2222   3.525   6.245   8.419  0.3327 -0.1448  0.1766
  139loPI   C3B 2223   3.256   6.251   8.039 -0.1363  0.1161 -0.0775
  139loPI   C4B 2224   3.143   6.458   7.710 -0.1899 -0.2874 -0.1615
  140loPI    C1 2225   2.162   1.436  10.359 -0.2455 -0.0144  0.0332
  140loPI    C2 2226   2.201   1.265  10.719 -0.1627 -0.1247 -0.0275
  140loPI    C3 2227   2.217   1.663  10.684 -0.2547 -0.1090  0.1014
  140loPI   PO4 2228   1.946   1.320  10.222  0.1256 -0.1208 -0.0207
  140loPI   GL1 2229   1.868   1.507   9.775 -0.0014 -0.1291  0.0893
  140loPI   GL2 2230   1.552   1.577   9.700 -0.0859 -0.0165 -0.0979
  140loPI   C1A 2231   1.891   1.461   9.290  0.2378  0.0742 -0.1703
  140loPI   C2A 2232   1.836   1.504   8.777  0.0622  0.0478 -0.0252
  140loPI   C3A 2233   1.870   1.490   8.325  0.1588 -0.2607  0.1307
  140loPI   C4A 2234   1.848   1.447   7.873  0.2339 -0.0910 -0.1867
  140loPI   C5A 2235   1.530   1.450   7.638 -0.2625  0.1423 -0.0593
  140loPI   C6A 2236   1.124   1.289   7.512 -0.1183 -0.0597  0.0376
  140loPI   C1B 2237   1.378   1.539   9.358  0.0368 -0.0791 -0.2589
  140loPI   C2B 2238   1.353   1.536   8.932  0.1330  0.0370  0.1461
  140loPI   C3B 2239   1.398   1.277   8.528  0.0233 -0.1563  0.1738
  140loPI   C4B 2240   1.376   1.286   8.107 -0.2607  0.1887 -0.3752
  141loPI    C1 2241  11.027  14.183   9.758 -0.0560  0.0926 -0.1640
  141loPI    C2 2242  10.977  14.577   9.718 -0.1333  0.0771 -0.2225
  141loPI    C3 2243  11.112  14.427  10.063 -0.1580  0.1498 -0.1810
  141loPI   PO4 2244  11.150  14.088   9.522 -0.1101 -0.2621 -0.4115
  141loPI   GL1 2245  11.131  14.211   9.133  0.1664  0.0310  0.0267
  141loPI   GL2 2246  11.331  14.060   8.971 -0.1779 -0.0383 -0.0261
  141loPI   C1A 2247  10.761  14.167   9.004  0.5472 -0.0317  0.1840
  141loPI   C2A 2248  10.508  14.339   8.543 -0.1412 -0.0679  0.0475
  141loPI   C3A 2249  10.631  14.341   8.108  0.2679 -0.1416  0.1227
  141loPI   C4A 2250  10.571  14.163   7.604 -0.1640 -0.0013  0.1121
  141loPI   C5A 2251  10.392  14.439   7.212  0.0973 -0.0186 -0.0191
  141loPI   C6A 2252  10.201  14.789   7.064  0.1643  0.1406  0.0878
  141loPI   C1B 2253  11.137  14.201   8.578 -0.1417 -0.1441  0.0610
  141loPI   C2B 2254  11.139  14.251   8.255  0.0731  0.1481  0.2068
  141loPI   C3B 2255  11.028  14.099   7.834 -0.2351 -0.0373  0.0208
  141loPI   C4B 2256  11.037  14.119   7.399 -0.4405 -0.1227  0.4030
  142loPI    C1 2257   8.726  16.257  10.234 -0.0035 -0.1322 -0.0652
  142loPI    C2 2258   8.955  16.580  10.290 -0.0872 -0.0690 -0.0856
  142loPI    C3 2259   8.809  16.381  10.605 -0.1990  0.0305 -0.0744
  142loPI   PO4 2260   8.914  16.094  10.021 -0.0338 -0.3087  0.5032
  142loPI   GL1 2261   9.314  16.044   9.644 -0.0466 -0.0966  0.1258
  142loPI   GL2 2262   9.625  16.254   9.579 -0.1507 -0.2423 -0.1927
  142loPI   C1A 2263   9.298  16.216   9.247  0.2953 -0.0635 -0.0612
  142loPI   C2A 2264   9.478  16.199   8.794 -0.0597 -0.1465 -0.1921
  142loPI   C3A 2265   9.432  16.486   8.396  0.1031 -0.1172  0.0538
  142loPI   C4A 2266   9.307  16.477   7.887 -0.3456 -0.0446 -0.0566
  142loPI   C5A 2267   8.960  16.461   7.613  0.3619 -0.3150  0.1650
  142loPI   C6A 2268   8.611  16.614   7.751  0.0146 -0.0174  0.0429
  142loPI   C1B 2269   9.802  16.306   9.219 -0.1672 -0.1723  0.3869
  142loPI   C2B 2270   9.834  16.548   8.853  0.0401 -0.0390  0.0025
  142loPI   C3B 2271   9.784  16.846   8.479  0.0720  0.2210  0.3618
  142loPI   C4B 2272   9.840  16.862   8.052 -0.1246  0.2032  0.1395
  143loPI    C1 2273  16.957   8.631   9.764 -0.3062  0.3229  0.0374
  143loPI    C2 2274  17.192   8.782   9.478  0.0095 -0.1804  0.0192
  143loPI    C3 2275  17.353   8.643   9.817 -0.2943 -0.2378  0.1429
  143loPI   PO4 2276  16.762   8.549   9.630 -0.1874  0.1007 -0.2826
  143loPI   GL1 2277  16.583   8.799   9.445  0.1389  0.3410  0.0158
  143loPI   GL2 2278  16.366   8.574   9.357 -0.1425  0.0469  0.1509
  143loPI   C1A 2279  16.443   8.716   8.914  0.4698  0.0717 -0.1436
  143loPI   C2A 2280  16.318   8.539   8.556 -0.0884 -0.1135  0.0285
  143loPI   C3A 2281  16.297   8.430   8.157  0.0823 -0.0686  0.0919
  143loPI   C4A 2282  16.367   8.443   7.719 -0.2637  0.1345  0.0151
  143loPI   C5A 2283  16.213   8.360   7.302  0.0592  0.0704 -0.1090
  143loPI   C6A 2284  15.875   8.452   7.082  0.2660  0.0219  0.2581
  143loPI   C1B 2285  16.315   8.150   8.995  0.0960  0.0667 -0.1405
  143loPI   C2B 2286  16.523   8.094   8.636 -0.1340 -0.0062 -0.1023
  143loPI   C3B 2287  16.763   7.963   8.274  0.0052  0.1478  0.1684
  143loPI   C4B 2288  16.664   7.733   7.919 -0.1968 -0.0355  0.0519
  144loPI    C1 2289  14.791  16.280  10.249 -0.2091 -0.1293  0.1127
  144loPI    C2 2290  15.183  16.209  10.283 -0.1747 -0.0849 -0.1642
  144loPI    C3 2291  14.933  16.096  10.574  0.0533 -0.0339  0.0548
  144loPI   PO4 2292  14.787  16.229   9.961 -0.0857 -0.0469  0.0250
  144loPI   GL1 2293  14.630  16.341   9.543  0.0294  0.0537 -0.0319
  144loPI   GL2 2294  14.699  16.700   9.596 -0.1134 -0.2151  0.0294
  144loPI   C1A 2295  14.818  16.316   9.152 -0.3671  0.0499 -0.0976
  144loPI   C2A 2296  15.022  16.329   8.747 -0.2158  0.0539  0.0574
  144loPI   C3A 2297  14.974  16.268   8.314 -0.0105  0.1994  0.0612
  144loPI   C4A 2298  14.596  16.324   8.095 -0.0703  0.0480 -0.0691
  144loPI   C5A 2299  14.511  16.027   7.828 -0.1890 -0.2651  0.2184
  144loPI   C6A 2300  14.235  16.180   7.506  0.4132  0.2395 -0.3242
  144loPI   C1B 2301  14.533  16.743   9.109 -0.1362 -0.1316 -0.1280
  144loPI   C2B 2302  14.208  16.699   8.729 -0.1138  0.0021 -0.0044
  144loPI   C3B 2303  14.234  16.563   8.306  0.1809  0.0801  0.1525
  144loPI   C4B 2304  14.081  16.905   8.035  0.1286  0.1683  0.2470
  145loPI    C1 2305  12.226  10.388  10.078 -0.3176 -0.0317  0.2692
  145loPI    C2 2306  12.123  10.031   9.932 -0.2369 -0.1103  0.4017
  145loPI    C3 2307  12.075  10.108  10.321  0.0526 -0.0930  0.4361
  145loPI   PO4 2308  12.217  10.528   9.865 -0.1846 -0.2621  0.0875
  145loPI   GL1 2309  12.413  10.544   9.531  0.3648 -0.2444 -0.2010
  145loPI   GL2 2310  12.659  10.463   9.395 -0.2150  0.2033  0.1571
  145loPI   C1A 2311  12.323  10.828   9.186  0.0735  0.2190  0.0251
  145loPI   C2A 2312  11.877  10.739   8.894  0.2128 -0.2302  0.0792
  145loPI   C3A 2313  11.637  10.908   8.537  0.1175  0.3021  0.3481
  145loPI   C4A 2314  11.368  11.001   8.213 -0.0846 -0.0101 -0.2947
  145loPI   C5A 2315  11.272  11.300   7.829 -0.2937 -0.2255  0.1720
  145loPI   C6A 2316  11.293  11.374   7.378  0.0518 -0.1439  0.0205
  145loPI   C1B 2317  12.600  10.484   8.915 -0.3665  0.3619  0.0385
  145loPI   C2B 2318  12.379  10.573   8.672 -0.0765 -0.3184 -0.1413
  145loPI   C3B 2319  12.374  10.377   8.218 -0.2547  0.3744 -0.2692
  145loPI   C4B 2320  12.360  10.040   7.939 -0.0391  0.0215  0.0139
  146loPI    C1 2321  16.641   2.840  10.102 -0.0918 -0.0992  0.1764
  146loPI    C2 2322  16.951   2.752  10.340  0.0697 -0.1461 -0.0476
  146loPI    C3 2323  17.002   2.768   9.943 -0.1991 -0.0795 -0.0814
  146loPI   PO4 2324  16.414   2.691  10.152  0.1069 -0.0703 -0.2721
  146loPI   GL1 2325  16.084   2.750   9.819  0.2640 -0.2470  0.1443
  146loPI   GL2 2326  16.315   2.963   9.745 -0.1484  0.0000 -0.0228
  146loPI   C1A 2327  16.304   2.556   9.381  0.3287  0.0157 -0.1190
  146loPI   C2A 2328  16.243   2.507   9.036  0.0129  0.1748  0.0863
  146loPI   C3A 2329  16.265   2.452   8.634  0.0276  0.0959  0.0276
  146loPI   C4A 2330  16.214   2.572   8.189  0.0246  0.1635 -0.0676
  146loPI   C5A 2331  16.358   2.831   7.774 -0.0255  0.0229  0.0597
  146loPI   C6A 2332  16.680   3.031   7.558  0.0894  0.3164  0.1334
  146loPI   C1B 2333  16.239   3.085   9.414  0.1978  0.1277  0.2046
  146loPI   C2B 2334  16.471   2.966   9.012 -0.0119  0.1395 -0.1157
  146loPI   C3B 2335  16.413   2.998   8.554 -0.0110  0.0291  0.1046
  146loPI   C4B 2336  16.533   3.170   8.129 -0.2512  0.0132  0.0715
  147loPI    C1 2337   1.124   7.810   9.703 -0.2781  0.0091  0.1403
  147loPI    C2 2338   1.273   7.929  10.054 -0.0084  0.1133 -0.0064
  147loPI    C3 2339   1.055   7.594  10.033  0.1956 -0.0373  0.2156
  147loPI   PO4 2340   1.275   7.953   9.497  0.2321  0.3987 -0.2498
  147loPI   GL1 2341   1.570   7.718   9.183  0.1478 -0.1229 -0.2548
  147loPI   GL2 2342   1.368   7.412   9.290  0.1244  0.3033 -0.1285
  147loPI   C1A 2343   1.458   7.844   8.826 -0.0152  0.2688  0.0983
  147loPI   C2A 2344   1.513   7.962   8.334 -0.0033  0.2378  0.1158
  147loPI   C3A 2345   1.765   8.298   8.124 -0.0730 -0.3608 -0.0448
  147loPI   C4A 2346   1.857   8.382   7.756  0.1694  0.1538  0.1992
  147loPI   C5A 2347   1.420   8.469   7.465 -0.0907 -0.2780 -0.1066
  147loPI   C6A 2348   1.393   8.497   7.023  0.6182 -0.3970 -0.0992
  147loPI   C1B 2349   1.382   7.321   8.877  0.1563  0.2446 -0.1684
  147loPI   C2B 2350   1.443   7.436   8.417 -0.1952 -0.0602  0.0380
  147loPI   C3B 2351   1.433   7.586   7.963  0.0598 -0.2612 -0.0775
  147loPI   C4B 2352   1.625   7.581   7.657 -0.0377  0.0648  0.0874
  148loPI    C1 2353  11.022   8.332  10.224  0.3769 -0.1949  0.1381
  148loPI    C2 2354  10.697   8.100  10.253  0.1182  0.1332 -0.0636
  148loPI    C3 2355  11.055   7.935  10.184 -0.0191 -0.2233  0.0532
  148loPI   PO4 2356  11.084   8.585   9.989 -0.0837  0.2245  0.0987
  148loPI   GL1 2357  11.037   8.592   9.549  0.3343 -0.2317 -0.2655
  148loPI   GL2 2358  10.629   8.752   9.486 -0.0598  0.0675 -0.2690
  148loPI   C1A 2359  11.069   8.373   9.179  0.0814  0.0704 -0.1400
  148loPI   C2A 2360  11.369   8.233   8.743  0.0837  0.0568  0.1350
  148loPI   C3A 2361  11.525   8.203   8.357 -0.5988  0.0353  0.0515
  148loPI   C4A 2362  11.653   8.204   7.988  0.2726  0.0969 -0.1816
  148loPI   C5A 2363  11.386   8.169   7.685  0.0774  0.0550 -0.2386
  148loPI   C6A 2364  11.392   7.903   7.402  0.1012 -0.1164 -0.2094
  148loPI   C1B 2365  10.751   8.795   9.062 -0.0871  0.0740  0.3460
  148loPI   C2B 2366  10.591   8.787   8.559 -0.2770  0.1882  0.4398
  148loPI   C3B 2367  10.685   8.795   8.138  0.2310  0.0076 -0.1275
  148loPI   C4B 2368  10.719   8.797   7.783  0.2804 -0.1275  0.0443
  149loPI    C1 2369  15.701   6.456  10.034 -0.1130 -0.0106 -0.0683
  149loPI    C2 2370  15.487   6.119  10.062 -0.1464  0.0025 -0.1618
  149loPI    C3 2371  15.608   6.308  10.394 -0.0465 -0.1526 -0.1085
  149loPI   PO4 2372  15.651   6.600   9.872 -0.1028  0.2488 -0.1487
  149loPI   GL1 2373  15.699   6.519   9.359 -0.0110  0.0328  0.1762
  149loPI   GL2 2374  15.894   6.579   9.130  0.0503  0.1096 -0.2243
  149loPI   C1A 2375  15.606   6.165   9.127 -0.0562 -0.2145 -0.2670
  149loPI   C2A 2376  15.614   6.271   8.676 -0.2006  0.0002 -0.0883
  149loPI   C3A 2377  15.903   6.329   8.302  0.1241  0.0038 -0.0885
  149loPI   C4A 2378  15.841   6.221   7.787  0.0253 -0.0305 -0.2244
  149loPI   C5A 2379  15.901   6.369   7.390  0.1645  0.0146 -0.1401
  149loPI   C6A 2380  16.262   6.635   7.087 -0.1557 -0.1487  0.1577
  149loPI   C1B 2381  15.947   6.654   8.676 -0.0551 -0.2329  0.1598
  149loPI   C2B 2382  16.129   6.765   8.275  0.2440 -0.2201  0.1518
  149loPI   C3B 2383  16.137   6.749   7.891 -0.1590 -0.0671 -0.1818
  149loPI   C4B 2384  16.392   6.514   7.648 -0.0214 -0.1134 -0.0933
  150loPI    C1 2385  10.345   0.780  10.362 -0.0152 -0.0670  0.1321
  150loPI    C2 2386  10.672   0.996  10.282 -0.1079 -0.0559 -0.2320
  150loPI    C3 2387  10.504   1.015  10.644 -0.0679  0.4219 -0.2329
  150loPI   PO4 2388  10.413   0.528  10.283 -0.0928  0.0386 -0.1609
  150loPI   GL1 2389  10.460   0.314   9.967 -0.2901  0.1662 -0.4333
  150loPI   GL2 2390  10.161   0.271   9.756 -0.0683 -0.1156 -0.0974
  150loPI   C1A 2391  10.760   0.439   9.685 -0.0355  0.1601  0.1506
  150loPI   C2A 2392  10.797   0.479   9.191  0.0017  0.0539 -0.4176
  150loPI   C3A 2393  10.925   0.726   8.840  0.0925 -0.0334 -0.4323
  150loPI   C4A 2394  10.937   1.080   8.575 -0.1617  0.0696 -0.3917
  150loPI   C5A 2395  11.191   1.453   8.471  0.0525  0.0650  0.1054
  150loPI   C6A 2396  11.447   1.353   8.095  0.1470 -0.0507 -0.3043
  150loPI   C1B 2397  10.246   0.531   9.485 -0.2879  0.0206  0.0855
  150loPI   C2B 2398  10.289   0.635   9.161  0.1570 -0.0694 -0.1265
  150loPI   C3B 2399  10.442   0.594   8.752  0.0406 -0.4442  0.1502
  150loPI   C4B 2400  10.697   0.542   8.322 -0.4175  0.4266 -0.1778
  151loPI    C1 2401  14.698  18.769  10.656  0.1229 -0.0012 -0.1827
  151loPI    C2 2402  15.083  18.668  10.688  0.0503 -0.1837  0.1766
  151loPI    C3 2403  14.853  18.683  11.014 -0.1844  0.1911  0.0020
  151loPI   PO4 2404  14.755  18.968  10.408  0.1214 -0.1034  0.1302
  151loPI   GL1 2405  14.830  18.944  10.003  0.1607 -0.0113  0.3726
  151loPI   GL2 2406  14.932  18.511  10.184  0.0543 -0.0293 -0.2651
  151loPI   C1A 2407  14.581  19.058   9.637  0.1328 -0.1169  0.1290
  151loPI   C2A 2408  14.372  19.011   9.200  0.0936  0.0413  0.0018
  151loPI   C3A 2409  14.213  18.825   8.894  0.1040 -0.0191  0.1102
  151loPI   C4A 2410  14.055  18.762   8.476  0.0226 -0.1396 -0.2434
  151loPI   C5A 2411  13.768  18.861   8.199  0.0430 -0.2691  0.0696
  151loPI   C6A 2412  13.348  18.643   8.087  0.3327  0.3910 -0.0537
  151loPI   C1B 2413  14.804  18.487   9.695 -0.1453 -0.1477 -0.0562
  151loPI   C2B 2414  14.614  18.548   9.405  0.1639 -0.0835  0.3029
  151loPI   C3B 2415  14.381  18.326   9.091  0.2448  0.1382 -0.2582
  151loPI   C4B 2416  14.326  18.377   8.713  0.0234 -0.1895  0.0870
  152loPI    C1 2417   2.859   0.748  10.119  0.1207 -0.2393  0.1296
  152loPI    C2 2418   3.244   0.663  10.184  0.2556  0.2201 -0.0320
  152loPI    C3 2419   2.999   0.730  10.493  0.3022 -0.0747  0.0712
  152loPI   PO4 2420   2.887   0.959   9.807 -0.1831  0.0667  0.0542
  152loPI   GL1 2421   3.043   1.263   9.476 -0.0853 -0.2992 -0.1031
  152loPI   GL2 2422   2.751   1.434   9.585  0.3000  0.2516 -0.0395
  152loPI   C1A 2423   3.137   1.259   9.020  0.5399  0.3911  0.1233
  152loPI   C2A 2424   3.089   1.207   8.629 -0.3993 -0.3183  0.0593
  152loPI   C3A 2425   3.135   1.079   8.172 -0.1840  0.2319  0.3596
  152loPI   C4A 2426   3.353   1.088   7.679  0.0288  0.2533  0.0794
  152loPI   C5A 2427   3.611   0.813   7.494 -0.0539  0.2399 -0.1237
  152loPI   C6A 2428   4.034   0.714   7.464 -0.0316 -0.1843 -0.1522
  152loPI   C1B 2429   2.720   1.596   9.082 -0.0488  0.0110  0.5239
  152loPI   C2B 2430   2.825   1.592   8.573 -0.0813  0.0302  0.0552
  152loPI   C3B 2431   2.694   1.330   8.314  0.0427 -0.0678  0.1146
  152loPI   C4B 2432   2.264   1.163   8.387 -0.0362 -0.0345  0.1607
  153loPI    C1 2433  13.384   5.108   9.700 -0.0166 -0.2386  0.0291
  153loPI    C2 2434  13.040   5.113   9.903 -0.1054 -0.2679 -0.1196
  153loPI    C3 2435  13.186   4.767   9.767 -0.0789 -0.2405 -0.1609
  153loPI   PO4 2436  13.411   5.220   9.543 -0.0664  0.3390 -0.1664
  153loPI   GL1 2437  13.413   5.367   9.104 -0.0785 -0.0309  0.1359
  153loPI   GL2 2438  13.250   5.675   9.080 -0.2096 -0.1164  0.2687
  153loPI   C1A 2439  13.145   5.257   8.825  0.0984  0.0419 -0.1950
  153loPI   C2A 2440  12.850   5.068   8.509 -0.1224  0.0662 -0.1340
  153loPI   C3A 2441  12.879   4.690   8.356  0.0476  0.1736 -0.4011
  153loPI   C4A 2442  13.154   4.529   8.003 -0.0661 -0.1567  0.0523
  153loPI   C5A 2443  13.058   4.467   7.615 -0.0302  0.1726  0.0632
  153loPI   C6A 2444  12.779   4.275   7.265  0.0818 -0.2977  0.1176
  153loPI   C1B 2445  12.963   5.735   8.746 -0.5177 -0.3413  0.1231
  153loPI   C2B 2446  13.151   5.803   8.354 -0.0059 -0.1159 -0.2315
  153loPI   C3B 2447  13.299   6.026   7.991  0.0461  0.3070 -0.1679
  153loPI   C4B 2448  13.389   5.894   7.663  0.0942 -0.0402 -0.3929
  154loPI    C1 2449   4.183  13.007   9.644 -0.2665  0.3145 -0.1559
  154loPI    C2 2450   3.996  12.655   9.677  0.0995  0.1249 -0.0532
  154loPI    C3 2451   3.933  12.940   9.950 -0.0579  0.0738 -0.0346
  154loPI   PO4 2452   4.163  13.020   9.364 -0.0303 -0.2146  0.1363
  154loPI   GL1 2453   4.375  13.214   9.035  0.1759 -0.0699  0.1921
  154loPI   GL2 2454   4.569  12.935   9.005 -0.2432  0.4337 -0.1479
  154loPI   C1A 2455   4.443  13.155   8.578 -0.1699  0.0786  0.0891
  154loPI   C2A 2456   4.409  13.267   8.057  0.0404 -0.0705  0.1600
  154loPI   C3A 2457   4.474  13.165   7.554  0.0925 -0.1304 -0.1039
  154loPI   C4A 2458   4.385  13.444   7.228 -0.1214 -0.1082 -0.0325
  154loPI   C5A 2459   4.212  13.446   6.887  0.1661  0.4545 -0.2641
  154loPI   C6A 2460   4.014  13.253   6.471 -0.2635  0.0896 -0.2789
  154loPI   C1B 2461   4.307  12.700   8.785  0.1062 -0.2544  0.3257
  154loPI   C2B 2462   4.328  12.784   8.291  0.1276 -0.0351  0.1555
  154loPI   C3B 2463   4.537  12.839   7.911  0.1052  0.3764  0.0644
  154loPI   C4B 2464   4.849  12.584   7.697 -0.1104  0.2602 -0.0766
  155loPI    C1 2465   6.447  13.270   9.801  0.0224  0.0229 -0.0451
  155loPI    C2 2466   6.376  13.472  10.139 -0.2235  0.0799 -0.1284
  155loPI    C3 2467   6.247  13.095  10.101  0.0433 -0.0217 -0.0570
  155loPI   PO4 2468   6.717  13.372   9.670 -0.0550  0.5382  0.1769
  155loPI   GL1 2469   6.873  13.487   9.320  0.3336 -0.0863  0.1910
  155loPI   GL2 2470   6.650  13.758   9.189  0.0012 -0.3839 -0.2326
  155loPI   C1A 2471   6.737  13.375   8.930  0.1244 -0.0914  0.0175
  155loPI   C2A 2472   6.502  13.363   8.553 -0.0925  0.3079 -0.0594
  155loPI   C3A 2473   6.321  12.995   8.455 -0.1793  0.0925 -0.2548
  155loPI   C4A 2474   6.064  12.765   8.115 -0.1988  0.1554 -0.2757
  155loPI   C5A 2475   6.031  12.334   7.828  0.2744  0.0153  0.1133
  155loPI   C6A 2476   6.239  12.104   7.452  0.1877 -0.0412  0.0109
  155loPI   C1B 2477   6.760  13.839   8.751 -0.0367 -0.0269 -0.1851
  155loPI   C2B 2478   6.613  13.956   8.348  0.1153 -0.0427 -0.4745
  155loPI   C3B 2479   6.441  14.063   7.983 -0.0816 -0.2045  0.1036
  155loPI   C4B 2480   6.524  14.206   7.638  0.1723  0.1456 -0.0773
  156loPI    C1 2481   0.682   0.368  10.203  0.0340 -0.1552  0.0247
  156loPI    C2 2482   0.824   0.372  10.577  0.1227  0.1360 -0.0096
  156loPI    C3 2483   0.537   0.628  10.470 -0.1974 -0.2226 -0.0328
  156loPI   PO4 2484   0.918   0.362   9.987 -0.1723  0.0028  0.1046
  156loPI   GL1 2485   0.979   0.370   9.546  0.0840 -0.0471  0.0777
  156loPI   GL2 2486   1.070   0.669   9.616 -0.0618  0.0101 -0.1817
  156loPI   C1A 2487   0.926   0.179   9.132  0.3399 -0.2698  0.2508
  156loPI   C2A 2488   0.902   0.140   8.694  0.2334 -0.0160 -0.1476
  156loPI   C3A 2489   0.811   0.087   8.296 -0.2132 -0.1953  0.5948
  156loPI   C4A 2490   0.788  -0.014   7.864 -0.1142 -0.0998 -0.1434
  156loPI   C5A 2491   0.952  -0.129   7.406  0.0593 -0.0129 -0.1410
  156loPI   C6A 2492   0.929  -0.477   7.207 -0.1104  0.1348  0.1069
  156loPI   C1B 2493   1.064   0.681   9.125 -0.2626  0.2176 -0.0146
  156loPI   C2B 2494   0.938   0.640   8.751  0.1884  0.3930 -0.0921
  156loPI   C3B 2495   0.807   0.678   8.319 -0.0256  0.0019  0.1951
  156loPI   C4B 2496   0.822   0.574   7.868 -0.0104  0.0317 -0.2270
  157loPI    C1 2497   9.602  13.941   9.764  0.0982  0.0271 -0.1198
  157loPI    C2 2498   9.311  13.713   9.916  0.1711  0.0213  0.0127
  157loPI    C3 2499   9.594  13.862  10.156  0.0741  0.3263 -0.0578
  157loPI   PO4 2500   9.626  13.929   9.411 -0.1461  0.0368  0.2821
  157loPI   GL1 2501   9.614  13.683   8.989 -0.0278  0.2140 -0.0925
  157loPI   GL2 2502   9.282  13.462   8.923  0.0130  0.2114 -0.0023
  157loPI   C1A 2503   9.722  13.992   8.674 -0.0473  0.1393 -0.0231
  157loPI   C2A 2504   9.733  14.109   8.206 -0.0521  0.0310 -0.4825
  157loPI   C3A 2505   9.670  14.501   8.025 -0.2460  0.3400  0.0179
  157loPI   C4A 2506   9.707  14.552   7.577 -0.4246  0.1207  0.1362
  157loPI   C5A 2507   9.864  14.446   7.251 -0.2235 -0.0613  0.1424
  157loPI   C6A 2508  10.069  14.316   6.851  0.1497  0.0832 -0.0001
  157loPI   C1B 2509   9.400  13.637   8.497  0.2160 -0.1812 -0.3255
  157loPI   C2B 2510   9.564  13.664   8.054  0.0068 -0.6194  0.1734
  157loPI   C3B 2511   9.777  13.861   7.818  0.4240  0.0300 -0.2161
  157loPI   C4B 2512  10.105  13.962   7.539 -0.0837  0.1274  0.1171
  158loPI    C1 2513  12.269   0.885  10.361 -0.0597  0.0238  0.0080
  158loPI    C2 2514  12.008   0.771  10.641  0.0022 -0.1199  0.0081
  158loPI    C3 2515  12.244   1.087  10.706 -0.1691  0.0092  0.0088
  158loPI   PO4 2516  12.085   1.101  10.140  0.0356  0.0500  0.2281
  158loPI   GL1 2517  12.201   1.310   9.765  0.0005  0.0246 -0.2825
  158loPI   GL2 2518  12.232   1.541   9.769  0.2925 -0.2165  0.0079
  158loPI   C1A 2519  12.597   1.251   9.487 -0.0442  0.1014 -0.3169
  158loPI   C2A 2520  12.541   1.261   9.114 -0.0934 -0.1090 -0.2680
  158loPI   C3A 2521  12.392   0.962   8.876 -0.0853 -0.1146  0.2064
  158loPI   C4A 2522  12.561   0.604   8.536 -0.4083 -0.0230 -0.1586
  158loPI   C5A 2523  12.424   0.362   8.178 -0.1143  0.1587  0.2985
  158loPI   C6A 2524  12.076   0.546   7.991 -0.0129 -0.2123  0.0482
  158loPI   C1B 2525  11.917   1.571   9.451 -0.0983  0.0304 -0.0977
  158loPI   C2B 2526  11.593   1.348   9.244 -0.1330  0.1455  0.2033
  158loPI   C3B 2527  11.432   1.192   8.825 -0.2777 -0.2562  0.0284
  158loPI   C4B 2528  11.750   1.349   8.522 -0.2649  0.0787 -0.0325
  159loPI    C1 2529   9.444  16.680  10.444 -0.0122  0.2002  0.0638
  159loPI    C2 2530   9.501  16.885  10.782  0.0709  0.3642 -0.0482
  159loPI    C3 2531   9.178  16.652  10.741  0.1878  0.1458  0.2397
  159loPI   PO4 2532   9.463  16.881  10.232 -0.0202  0.0263  0.1978
  159loPI   GL1 2533   9.229  16.868   9.857 -0.0360  0.2148 -0.0807
  159loPI   GL2 2534   9.184  16.533   9.841 -0.0741 -0.0392  0.0802
  159loPI   C1A 2535   9.351  16.722   9.418 -0.0530 -0.2223  0.0319
  159loPI   C2A 2536   9.325  16.773   9.047 -0.2176 -0.3302 -0.1754
  159loPI   C3A 2537   9.191  16.865   8.635 -0.0989  0.1558 -0.1776
  159loPI   C4A 2538   9.365  16.968   8.263 -0.2056 -0.0754  0.0530
  159loPI   C5A 2539   9.517  17.085   7.761 -0.2115  0.1677 -0.1281
  159loPI   C6A 2540   9.822  17.175   7.527  0.0872 -0.0529 -0.1952
  159loPI   C1B 2541   8.846  16.517   9.530  0.0063  0.1998  0.0794
  159loPI   C2B 2542   8.810  16.406   9.186 -0.1455  0.1534  0.0079
  159loPI   C3B 2543   8.946  16.391   8.748  0.2616 -0.0879  0.2873
  159loPI   C4B 2544   9.004  16.236   8.363  0.0378  0.2037 -0.2012
  160loPI    C1 2545  13.628   5.703   9.514  0.0383  0.1465 -0.0936
  160loPI    C2 2546  13.614   5.783   9.905  0.1368 -0.2909  0.0040
  160loPI    C3 2547  13.965   5.710   9.729  0.1160  0.1060 -0.2133
  160loPI   PO4 2548  13.485   5.968   9.366 -0.0769 -0.0652  0.0447
  160loPI   GL1 2549  13.650   6.331   9.113 -0.1150 -0.1400  0.3458
  160loPI   GL2 2550  13.985   6.567   9.059  0.0142  0.0824  0.1486
  160loPI   C1A 2551  13.629   6.153   8.747 -0.1779  0.2172  0.2630
  160loPI   C2A 2552  13.590   5.933   8.429  0.3232 -0.1000  0.0791
  160loPI   C3A 2553  13.596   5.653   8.060 -0.1079 -0.3059  0.2274
  160loPI   C4A 2554  13.194   5.499   7.836 -0.0007 -0.0467 -0.0795
  160loPI   C5A 2555  13.052   5.555   7.486  0.0562  0.2705  0.2511
  160loPI   C6A 2556  12.716   5.739   7.300 -0.2595  0.0592  0.0457
  160loPI   C1B 2557  14.048   6.525   8.674 -0.0352 -0.1468 -0.1246
  160loPI   C2B 2558  14.098   6.602   8.241  0.0010 -0.3087  0.4195
  160loPI   C3B 2559  14.241   6.775   7.772  0.0378 -0.0703  0.0151
  160loPI   C4B 2560  14.206   6.602   7.372 -0.1270 -0.0066 -0.1792
  161loPI    C1 2561  18.967   3.156  10.010 -0.2801  0.2411 -0.0010
  161loPI    C2 2562  19.128   3.128  10.375  0.1611  0.3770 -0.1791
  161loPI    C3 2563  18.808   3.361  10.315 -0.1190  0.0970  0.1822
  161loPI   PO4 2564  18.860   2.952   9.901  0.0129 -0.2662 -0.1070
  161loPI   GL1 2565  18.768   2.824   9.529  0.2395  0.1151  0.1418
  161loPI   GL2 2566  18.636   2.458   9.543  0.3077 -0.1266  0.1159
  161loPI   C1A 2567  18.941   2.768   9.142 -0.0528  0.0564  0.1396
  161loPI   C2A 2568  18.880   2.646   8.682 -0.2522 -0.3768 -0.1733
  161loPI   C3A 2569  18.943   2.610   8.250  0.0753 -0.1725  0.2278
  161loPI   C4A 2570  18.826   2.672   7.826  0.0335  0.1080  0.0582
  161loPI   C5A 2571  18.506   2.740   7.590 -0.2824  0.1208 -0.0118
  161loPI   C6A 2572  18.399   2.638   7.210  0.5296 -0.1017 -0.0433
  161loPI   C1B 2573  18.480   2.773   9.139 -0.0114  0.2673  0.4969
  161loPI   C2B 2574  18.362   2.828   8.643 -0.0965 -0.0409  0.0521
  161loPI   C3B 2575  18.451   2.760   8.177  0.1085  0.1250 -0.0398
  161loPI   C4B 2576  18.123   2.629   7.888  0.0720  0.0792  0.0448
  162loPI    C1 2577   1.185  18.222  10.545  0.0897  0.1194 -0.0161
  162loPI    C2 2578   1.161  18.502  10.830  0.0712 -0.0160  0.1170
  162loPI    C3 2579   1.435  18.212  10.858  0.0860 -0.0156 -0.0164
  162loPI   PO4 2580   1.181  18.392  10.319  0.0886 -0.2593  0.3361
  162loPI   GL1 2581   1.168  18.306   9.902  0.0474 -0.0624  0.0603
  162loPI   GL2 2582   0.897  18.489   9.798  0.4476  0.0595  0.0114
  162loPI   C1A 2583   1.399  18.454   9.529  0.2592  0.3975 -0.4402
  162loPI   C2A 2584   1.218  18.530   9.069 -0.1544 -0.0072  0.2666
  162loPI   C3A 2585   1.147  18.520   8.634 -0.2661  0.0702  0.3506
  162loPI   C4A 2586   1.164  18.421   8.148 -0.1479 -0.1277  0.1288
  162loPI   C5A 2587   1.203  18.432   7.723 -0.1843  0.2211 -0.2738
  162loPI   C6A 2588   1.464  18.318   7.357  0.2414  0.1914  0.1032
  162loPI   C1B 2589   0.810  18.300   9.334 -0.1052  0.2440  0.2297
  162loPI   C2B 2590   0.763  18.374   8.867  0.0706  0.0783 -0.1013
  162loPI   C3B 2591   0.640  18.327   8.482 -0.3705 -0.1447 -0.3359
  162loPI   C4B 2592   0.684  18.231   8.078  0.0572  0.1953 -0.1615
  163loPI    C1 2593   5.438   5.213   9.891 -0.1253  0.0261 -0.2732
  163loPI    C2 2594   5.452   4.813   9.908 -0.1203  0.0357 -0.0071
  163loPI    C3 2595   5.229   5.017  10.170  0.0606  0.2189  0.0065
  163loPI   PO4 2596   5.401   5.306   9.686  0.0154 -0.0119 -0.0503
  163loPI   GL1 2597   5.143   5.568   9.404  0.0964  0.1908  0.0016
  163loPI   GL2 2598   5.121   5.280   9.279 -0.1048  0.3167  0.3188
  163loPI   C1A 2599   4.913   5.619   9.007  0.0195  0.1990  0.1071
  163loPI   C2A 2600   4.685   5.602   8.627  0.1607 -0.0540  0.1405
  163loPI   C3A 2601   4.487   5.578   8.191  0.0142  0.1142  0.0705
  163loPI   C4A 2602   4.842   5.723   7.879  0.2527 -0.4354  0.0031
  163loPI   C5A 2603   4.809   5.946   7.515 -0.2461  0.2247 -0.2857
  163loPI   C6A 2604   4.866   5.757   7.139  0.4067  0.0475 -0.1994
  163loPI   C1B 2605   5.186   5.179   8.888 -0.0079 -0.1872  0.1756
  163loPI   C2B 2606   5.441   5.057   8.542 -0.1441 -0.1121 -0.2838
  163loPI   C3B 2607   5.341   4.772   8.385 -0.0939 -0.1730  0.1143
  163loPI   C4B 2608   5.274   4.576   8.093 -0.0509  0.1352 -0.1192
  164loPI    C1 2609   9.106   7.384   9.454 -0.0782 -0.0555  0.0546
  164loPI    C2 2610   8.910   7.593   9.732 -0.0057 -0.2822  0.2803
  164loPI    C3 2611   9.164   7.305   9.842  0.3807 -0.0615 -0.0091
  164loPI   PO4 2612   8.873   7.285   9.312  0.0925 -0.2470 -0.0613
  164loPI   GL1 2613   9.044   7.198   8.907  0.2078 -0.0463 -0.0396
  164loPI   GL2 2614   8.674   7.052   8.914  0.1337 -0.1231 -0.1301
  164loPI   C1A 2615   9.038   7.343   8.509  0.1713 -0.3686 -0.0098
  164loPI   C2A 2616   8.941   7.312   8.067 -0.0193 -0.2345  0.0995
  164loPI   C3A 2617   9.103   7.355   7.611 -0.3608  0.3357  0.0140
  164loPI   C4A 2618   9.235   7.417   7.195 -0.0296 -0.1702  0.0281
  164loPI   C5A 2619   9.326   7.292   6.844  0.2180  0.0546  0.2150
  164loPI   C6A 2620   9.626   7.267   6.497  0.0877 -0.1111 -0.1692
  164loPI   C1B 2621   8.807   6.871   8.426 -0.0844 -0.3241  0.0672
  164loPI   C2B 2622   8.782   6.829   8.029  0.1673  0.3930  0.2889
  164loPI   C3B 2623   8.721   7.015   7.711  0.1492 -0.1420  0.3667
  164loPI   C4B 2624   8.870   7.020   7.257 -0.2746  0.0217 -0.0636
  165loPI    C1 2625   4.956  12.274   9.930 -0.2492  0.0049  0.0359
  165loPI    C2 2626   4.943  12.665  10.012 -0.1017  0.0388 -0.0963
  165loPI    C3 2627   5.093  12.409  10.280 -0.0778  0.0885 -0.0621
  165loPI   PO4 2628   4.761  12.236   9.822  0.2929  0.3166  0.3221
  165loPI   GL1 2629   4.691  12.030   9.390  0.1234  0.0421  0.0332
  165loPI   GL2 2630   4.433  11.843   9.318  0.0187 -0.0069 -0.0110
  165loPI   C1A 2631   4.512  12.122   8.929  0.2354  0.1404 -0.0827
  165loPI   C2A 2632   4.568  12.136   8.527  0.0830 -0.5430 -0.0537
  165loPI   C3A 2633   4.573  12.360   8.180  0.0131  0.0311 -0.1742
  165loPI   C4A 2634   4.633  12.135   7.759 -0.1530 -0.0811  0.2081
  165loPI   C5A 2635   4.707  11.843   7.448 -0.0066  0.2453  0.1713
  165loPI   C6A 2636   4.583  11.439   7.390 -0.4025 -0.4097 -0.2296
  165loPI   C1B 2637   4.206  11.696   8.961 -0.3026  0.0136  0.0406
  165loPI   C2B 2638   4.163  11.907   8.553  0.1070 -0.1818  0.0384
  165loPI   C3B 2639   4.064  11.864   8.158 -0.1648  0.0096 -0.1166
  165loPI   C4B 2640   4.022  11.883   7.822  0.0176 -0.4657  0.1435
  166loPI    C1 2641   3.446  12.914  10.088  0.1589 -0.2954 -0.0832
  166loPI    C2 2642   3.389  12.772  10.458 -0.0117 -0.1034 -0.0338
  166loPI    C3 2643   3.335  13.161  10.383  0.1300 -0.1214 -0.2382
  166loPI   PO4 2644   3.498  12.667   9.860  0.2601  0.0516 -0.0695
  166loPI   GL1 2645   3.470  12.604   9.364 -0.0510 -0.1557  0.1946
  166loPI   GL2 2646   3.819  12.700   9.180  0.0249  0.0022 -0.1355
  166loPI   C1A 2647   3.347  12.803   9.028  0.3448 -0.0475  0.1447
  166loPI   C2A 2648   3.248  13.104   8.784  0.2524 -0.0931 -0.0866
  166loPI   C3A 2649   3.407  13.220   8.320 -0.2027 -0.2267  0.1383
  166loPI   C4A 2650   3.504  13.240   7.895  0.0503  0.0317 -0.0952
  166loPI   C5A 2651   3.449  13.116   7.472  0.2890  0.3049 -0.2759
  166loPI   C6A 2652   3.209  12.954   7.169  0.0335  0.1968  0.0151
  166loPI   C1B 2653   3.810  12.857   8.754 -0.2051  0.0127 -0.1922
  166loPI   C2B 2654   3.695  12.748   8.288  0.1973 -0.2842  0.3280
  166loPI   C3B 2655   3.422  12.667   7.886  0.1623  0.0271  0.1229
  166loPI   C4B 2656   3.070  12.751   7.644 -0.3103 -0.2435 -0.0253
  167loPI    C1 2657   8.617   0.735  10.133  0.2152  0.0263 -0.1245
  167loPI    C2 2658   8.902   0.642  10.397  0.0600 -0.1670 -0.0219
  167loPI    C3 2659   8.559   0.804  10.523  0.1130  0.0431 -0.1423
  167loPI   PO4 2660   8.709   0.743   9.943 -0.0185 -0.2130  0.2892
  167loPI   GL1 2661   8.695   0.472   9.588 -0.0004  0.0106  0.1398
  167loPI   GL2 2662   8.672   0.286   9.308 -0.0321  0.0901 -0.1233
  167loPI   C1A 2663   9.065   0.804   9.225  0.1759 -0.0433 -0.0804
  167loPI   C2A 2664   9.274   0.670   8.877 -0.0852  0.0311  0.1642
  167loPI   C3A 2665   9.449   0.676   8.499 -0.2652 -0.2301  0.0152
  167loPI   C4A 2666   9.604   0.661   7.980 -0.3071  0.0382 -0.1663
  167loPI   C5A 2667   9.875   0.871   7.783  0.2639 -0.0118  0.2715
  167loPI   C6A 2668  10.277   1.034   7.626 -0.0427 -0.0264  0.0326
  167loPI   C1B 2669   9.016   0.191   8.994 -0.0253 -0.2375  0.0416
  167loPI   C2B 2670   9.240   0.151   8.659 -0.0884  0.2251  0.0353
  167loPI   C3B 2671   9.283   0.260   8.204  0.1418 -0.1238  0.1954
  167loPI   C4B 2672   9.219   0.138   7.742 -0.1440  0.3776 -0.1361
  168loPI    C1 2673  11.629  13.265   9.748 -0.1268  0.0828 -0.0204
  168loPI    C2 2674  11.257  13.165   9.857 -0.0393 -0.1082  0.1070
  168loPI    C3 2675  11.540  13.219  10.135 -0.0042  0.1761  0.0194
  168loPI   PO4 2676  11.671  13.202   9.541 -0.2370  0.0457 -0.1333
  168loPI   GL1 2677  11.527  13.113   9.194 -0.0006 -0.0311 -0.1877
  168loPI   GL2 2678  11.550  12.866   9.035 -0.2401  0.1591 -0.0098
  168loPI   C1A 2679  11.392  13.531   8.962  0.0705  0.0782 -0.0673
  168loPI   C2A 2680  11.331  13.585   8.583 -0.1671  0.0731  0.1965
  168loPI   C3A 2681  11.306  13.720   8.191 -0.0108 -0.2670 -0.2136
  168loPI   C4A 2682  11.392  13.869   7.776 -0.2187  0.0530 -0.3189
  168loPI   C5A 2683  11.436  13.759   7.344  0.1907  0.0891  0.0840
  168loPI   C6A 2684  11.216  13.636   6.995 -0.3368  0.0597  0.1281
  168loPI   C1B 2685  11.342  13.092   8.723 -0.4914 -0.0034  0.0100
  168loPI   C2B 2686  11.399  13.156   8.233  0.2281 -0.2159  0.2950
  168loPI   C3B 2687  11.542  12.960   7.906 -0.1155  0.2242 -0.3017
  168loPI   C4B 2688  11.727  12.541   7.650 -0.0460 -0.0006 -0.1484
  169loPI    C1 2689  15.947  13.982   9.925 -0.1643 -0.0045 -0.0694
  169loPI    C2 2690  15.995  14.095  10.305  0.1755 -0.0575 -0.0940
  169loPI    C3 2691  15.668  13.892  10.197  0.0025  0.0932  0.1363
  169loPI   PO4 2692  15.952  14.148   9.769 -0.1312  0.2031 -0.0002
  169loPI   GL1 2693  16.191  14.110   9.419 -0.1644  0.2529  0.2807
  169loPI   GL2 2694  16.305  13.850   9.371 -0.0797  0.2905  0.2390
  169loPI   C1A 2695  15.875  13.906   9.129  0.0358  0.0201 -0.3225
  169loPI   C2A 2696  15.631  13.700   8.792  0.2616  0.1513 -0.1795
  169loPI   C3A 2697  15.511  13.454   8.331  0.0816  0.2920  0.0057
  169loPI   C4A 2698  15.507  13.519   7.890  0.3473  0.0116 -0.2571
  169loPI   C5A 2699  15.524  13.621   7.447  0.1342 -0.0552  0.0751
  169loPI   C6A 2700  15.203  13.740   7.126  0.1861 -0.0098  0.1610
  169loPI   C1B 2701  16.183  13.549   8.990 -0.0106  0.2653  0.2383
  169loPI   C2B 2702  16.119  13.603   8.544  0.3403  0.1666 -0.1105
  169loPI   C3B 2703  16.013  13.738   8.076  0.2925 -0.0792  0.2641
  169loPI   C4B 2704  15.904  13.772   7.708  0.0308 -0.2979 -0.0209
  170loPI    C1 2705   5.435  12.939   9.620 -0.1119 -0.2692  0.0138
  170loPI    C2 2706   5.534  12.594   9.445 -0.0843 -0.2751  0.0408
  170loPI    C3 2707   5.361  12.592   9.805  0.5044 -0.2427  0.3353
  170loPI   PO4 2708   5.191  13.073   9.440 -0.3230  0.0738  0.1190
  170loPI   GL1 2709   5.389  13.459   9.147  0.2528 -0.2720  0.3341
  170loPI   GL2 2710   5.657  13.268   9.157 -0.2499 -0.3403 -0.0391
  170loPI   C1A 2711   5.545  13.738   8.890 -0.2617  0.0207 -0.0777
  170loPI   C2A 2712   5.676  13.727   8.397  0.0731  0.1211  0.1268
  170loPI   C3A 2713   5.869  13.804   7.982  0.0891  0.1104 -0.2806
  170loPI   C4A 2714   6.134  13.863   7.631 -0.1087  0.4106  0.0596
  170loPI   C5A 2715   6.197  13.534   7.205  0.1141  0.0638  0.1185
  170loPI   C6A 2716   5.996  13.321   6.885  0.0842  0.2733 -0.1409
  170loPI   C1B 2717   5.499  13.265   8.671  0.1453  0.0198 -0.0472
  170loPI   C2B 2718   5.415  13.319   8.244  0.0521  0.1482 -0.0574
  170loPI   C3B 2719   5.349  13.416   7.775  0.0490  0.2168 -0.0876
  170loPI   C4B 2720   5.364  13.524   7.435  0.0139  0.2402  0.0203
  171loPI    C1 2721   7.654  12.612   9.807  0.2248 -0.1834  0.4874
  171loPI    C2 2722   7.675  12.342   9.512 -0.0293  0.1296  0.1747
  171loPI    C3 2723   7.369  12.333   9.770 -0.1037  0.1894  0.0895
  171loPI   PO4 2724   7.634  12.898   9.660  0.0682 -0.0094 -0.0748
  171loPI   GL1 2725   7.627  13.020   9.265 -0.3217  0.4256  0.2060
  171loPI   GL2 2726   7.797  12.714   9.208  0.1518  0.1356 -0.1129
  171loPI   C1A 2727   7.723  13.086   8.805 -0.1225  0.1792  0.0566
  171loPI   C2A 2728   7.996  13.440   8.606  0.1287  0.1061  0.2624
  171loPI   C3A 2729   8.189  13.451   8.271 -0.1556 -0.1105 -0.1399
  171loPI   C4A 2730   8.352  13.512   7.941  0.1129 -0.1181  0.0912
  171loPI   C5A 2731   8.521  13.707   7.490  0.3561 -0.1529 -0.1034
  171loPI   C6A 2732   8.511  13.502   7.035  0.0938  0.1244  0.0795
  171loPI   C1B 2733   7.489  12.577   8.861  0.0594  0.2614 -0.0011
  171loPI   C2B 2734   7.009  12.420   8.687 -0.1322 -0.1109  0.0210
  171loPI   C3B 2735   6.890  12.354   8.294 -0.2991  0.0345 -0.2518
  171loPI   C4B 2736   6.941  12.005   8.103  0.0015 -0.1757  0.1319
  172loPI    C1 2737  17.610   4.589   9.680  0.0358 -0.0958  0.0392
  172loPI    C2 2738  17.466   4.695  10.038 -0.0708  0.1559 -0.0757
  172loPI    C3 2739  17.516   4.308   9.949  0.1960  0.0974  0.3017
  172loPI   PO4 2740  17.431   4.718   9.560  0.0494 -0.0775 -0.0240
  172loPI   GL1 2741  17.574   4.872   9.197  0.2835 -0.2093  0.1118
  172loPI   GL2 2742  17.567   4.555   9.035 -0.0952  0.0427 -0.0818
  172loPI   C1A 2743  17.301   5.037   8.848  0.0026  0.1891  0.1371
  172loPI   C2A 2744  16.992   4.924   8.590 -0.2285  0.2488  0.2867
  172loPI   C3A 2745  16.852   4.691   8.077 -0.2543  0.1317 -0.0883
  172loPI   C4A 2746  17.030   4.574   7.712 -0.1110 -0.0871 -0.0162
  172loPI   C5A 2747  17.335   4.314   7.616  0.0770  0.2352 -0.0160
  172loPI   C6A 2748  17.640   4.074   7.388 -0.0086 -0.1672 -0.0477
  172loPI   C1B 2749  17.810   4.285   8.691 -0.2200 -0.0362  0.0231
  172loPI   C2B 2750  17.900   4.082   8.353  0.0544  0.1029  0.2691
  172loPI   C3B 2751  18.001   3.874   7.906 -0.1627  0.2605 -0.2729
  172loPI   C4B 2752  17.862   3.677   7.612  0.2638 -0.4497 -0.0836
  173loPI    C1 2753   7.431   0.926   9.896  0.2535 -0.1050 -0.0554
  173loPI    C2 2754   7.337   0.589  10.090 -0.1243  0.0349  0.0127
  173loPI    C3 2755   7.452   0.912  10.295 -0.1512  0.0676 -0.0236
  173loPI   PO4 2756   7.316   0.815   9.613 -0.0023 -0.0783 -0.1146
  173loPI   GL1 2757   7.445   0.609   9.293  0.0096 -0.1957  0.6680
  173loPI   GL2 2758   7.055   0.502   9.258  0.0987 -0.0121  0.0465
  173loPI   C1A 2759   7.504   0.484   8.805 -0.2734  0.2739 -0.1389
  173loPI   C2A 2760   7.476   0.086   8.619 -0.2306 -0.3487 -0.1438
  173loPI   C3A 2761   7.323   0.102   8.178  0.2609 -0.0923 -0.1537
  173loPI   C4A 2762   7.050   0.223   7.748  0.1203  0.0560 -0.1937
  173loPI   C5A 2763   6.769   0.118   7.503 -0.0160  0.0823  0.1519
  173loPI   C6A 2764   6.505   0.141   7.190  0.0603 -0.1153  0.1339
  173loPI   C1B 2765   7.044   0.397   8.881  0.5098  0.0721 -0.2218
  173loPI   C2B 2766   7.058   0.410   8.494  0.3058 -0.1042 -0.0233
  173loPI   C3B 2767   7.318   0.590   8.169 -0.1407  0.1452  0.1665
  173loPI   C4B 2768   7.482   0.569   7.707  0.0177  0.1550  0.0073
  174loPI    C1 2769   9.333   0.812  10.171 -0.0329 -0.2969 -0.0684
  174loPI    C2 2770   9.469   0.556  10.447 -0.0675  0.1798  0.4081
  174loPI    C3 2771   9.391   0.935  10.547 -0.2521  0.3216 -0.2251
  174loPI   PO4 2772   9.523   0.806  10.013 -0.2535 -0.0362  0.2539
  174loPI   GL1 2773   9.713   0.556   9.593 -0.0569 -0.2775  0.1164
  174loPI   GL2 2774   9.709   0.215   9.515  0.2350 -0.1685  0.0641
  174loPI   C1A 2775   9.789   0.618   9.184  0.0288  0.2157 -0.1270
  174loPI   C2A 2776   9.903   0.343   8.880  0.1655  0.3229 -0.4348
  174loPI   C3A 2777   9.713   0.279   8.474 -0.0936 -0.0315  0.2176
  174loPI   C4A 2778   9.847   0.242   8.148  0.1716  0.0337 -0.0279
  174loPI   C5A 2779   9.971   0.368   7.743  0.2224  0.3413  0.0431
  174loPI   C6A 2780   9.621   0.453   7.480  0.1866  0.0553  0.0866
  174loPI   C1B 2781   9.550   0.110   9.090  0.0923  0.0965 -0.0071
  174loPI   C2B 2782   9.243  -0.226   8.937 -0.2062  0.3545  0.0018
  174loPI   C3B 2783   8.801  -0.284   8.786 -0.0372 -0.2262  0.1184
  174loPI   C4B 2784   8.731  -0.020   8.459  0.3321 -0.0652  0.3592
  175loPI    C1 2785   8.371   9.413   9.543  0.1583  0.3857 -0.1689
  175loPI    C2 2786   8.381   9.681   9.839  0.3317 -0.0479  0.2296
  175loPI    C3 2787   8.716   9.491   9.729  0.1995 -0.1498 -0.0037
  175loPI   PO4 2788   8.230   9.497   9.332 -0.0560  0.0775 -0.2091
  175loPI   GL1 2789   8.060   9.641   8.902  0.0489 -0.1211 -0.0113
  175loPI   GL2 2790   8.347   9.896   8.949  0.0975 -0.1490  0.0511
  175loPI   C1A 2791   8.062   9.799   8.521  0.0118 -0.1674  0.3365
  175loPI   C2A 2792   7.948   9.596   8.223 -0.1172 -0.0736  0.1140
  175loPI   C3A 2793   7.802   9.395   7.809  0.2324 -0.0291 -0.0525
  175loPI   C4A 2794   7.501   9.130   7.547 -0.2982 -0.0867 -0.1765
  175loPI   C5A 2795   7.453   8.712   7.436  0.1563  0.0654 -0.2547
  175loPI   C6A 2796   7.478   8.604   7.018  0.0372 -0.0999 -0.5256
  175loPI   C1B 2797   8.537   9.808   8.552 -0.0449 -0.2006 -0.0990
  175loPI   C2B 2798   8.520   9.847   8.181 -0.0381  0.1197 -0.1506
  175loPI   C3B 2799   8.127  10.099   8.114  0.1964  0.1784  0.2952
  175loPI   C4B 2800   7.755  10.434   7.871  0.0246  0.0765  0.1254
  176loPI    C1 2801  18.095   2.319   9.914  0.2049 -0.0060 -0.0494
  176loPI    C2 2802  17.875   2.507  10.189  0.0192 -0.0680 -0.1539
  176loPI    C3 2803  18.271   2.477  10.237  0.0635  0.4098 -0.1696
  176loPI   PO4 2804  17.836   2.118   9.830 -0.0225 -0.0676 -0.0159
  176loPI   GL1 2805  17.978   1.956   9.458  0.1742 -0.1565  0.0663
  176loPI   GL2 2806  18.041   1.649   9.386  0.1055  0.2307 -0.1145
  176loPI   C1A 2807  17.814   2.162   9.053  0.0235  0.1387 -0.1074
  176loPI   C2A 2808  17.635   1.875   8.766 -0.0129 -0.1077  0.1215
  176loPI   C3A 2809  17.518   1.934   8.395  0.2053 -0.4039 -0.1404
  176loPI   C4A 2810  17.503   1.850   7.965  0.1191 -0.0535  0.0930
  176loPI   C5A 2811  17.148   1.645   7.620 -0.0630 -0.1625  0.0172
  176loPI   C6A 2812  16.683   1.795   7.676 -0.2526 -0.1131 -0.0963
  176loPI   C1B 2813  17.968   1.571   8.997  0.1512 -0.3670  0.4964
  176loPI   C2B 2814  17.920   1.563   8.492  0.0004  0.1767  0.0466
  176loPI   C3B 2815  17.973   1.532   8.039  0.0290  0.0536  0.1791
  176loPI   C4B 2816  17.907   1.625   7.653 -0.4703 -0.0391  0.1490
  177loPI    C1 2817  11.172   3.310  10.271 -0.3003  0.4007 -0.1326
  177loPI    C2 2818  10.847   3.348  10.500 -0.1450 -0.1314  0.1950
  177loPI    C3 2819  11.170   3.160  10.642  0.0843 -0.1620 -0.3442
  177loPI   PO4 2820  11.125   3.477  10.107  0.0455  0.1325  0.1196
  177loPI   GL1 2821  11.202   3.544   9.607 -0.0213  0.1694 -0.0754
  177loPI   GL2 2822  11.147   3.873   9.581 -0.1735  0.0217  0.0573
  177loPI   C1A 2823  11.313   3.603   9.176 -0.2759  0.0323  0.1185
  177loPI   C2A 2824  11.346   3.534   8.706  0.1927 -0.0680  0.2188
  177loPI   C3A 2825  11.116   3.562   8.338 -0.2866 -0.2650  0.0847
  177loPI   C4A 2826  10.962   3.651   7.909  0.4006  0.0349  0.3214
  177loPI   C5A 2827  10.579   3.591   7.673 -0.5306 -0.0518  0.0313
  177loPI   C6A 2828  10.211   3.392   7.754  0.1310  0.2266 -0.0212
  177loPI   C1B 2829  10.903   3.941   9.177 -0.2341 -0.0578  0.0899
  177loPI   C2B 2830  10.875   3.862   8.684 -0.0081  0.0530 -0.0231
  177loPI   C3B 2831  10.662   3.788   8.320  0.1232 -0.2366 -0.2438
  177loPI   C4B 2832  10.636   4.020   7.928  0.0323  0.2573 -0.2366
  178loPI    C1 2833  11.930  19.282  10.555 -0.3538  0.1876 -0.2788
  178loPI    C2 2834  11.803  19.607  10.750 -0.1397 -0.0041  0.1948
  178loPI    C3 2835  11.625  19.254  10.813 -0.2511 -0.0186 -0.1774
  178loPI   PO4 2836  11.941  19.325  10.270  0.0508  0.3511  0.0199
  178loPI   GL1 2837  11.747  19.498   9.910  0.4076 -0.0567  0.0167
  178loPI   GL2 2838  11.563  19.809   9.879 -0.1582  0.1030 -0.1259
  178loPI   C1A 2839  11.528  19.464   9.490 -0.1933 -0.1549 -0.2842
  178loPI   C2A 2840  11.483  19.574   9.030  0.3311  0.0868  0.1294
  178loPI   C3A 2841  11.598  19.585   8.602 -0.0385 -0.0957  0.0996
  178loPI   C4A 2842  11.618  19.519   8.061 -0.3360  0.0680  0.0077
  178loPI   C5A 2843  11.681  19.132   7.838 -0.3003 -0.1359  0.3202
  178loPI   C6A 2844  12.056  18.940   8.022  0.2479 -0.0034  0.1206
  178loPI   C1B 2845  11.256  19.854   9.658  0.1209  0.1651  0.0257
  178loPI   C2B 2846  10.971  20.199   9.469 -0.1121 -0.2090 -0.0193
  178loPI   C3B 2847  11.042  20.447   9.190 -0.0547 -0.1856 -0.2322
  178loPI   C4B 2848  11.100  20.851   8.965 -0.1582  0.0415  0.1022
  179loPI    C1 2849   7.719  16.344  10.339  0.2159 -0.2751  0.1787
  179loPI    C2 2850   7.943  16.675  10.353 -0.1638 -0.0029 -0.0156
  179loPI    C3 2851   7.549  16.697  10.417 -0.1397 -0.4806  0.3550
  179loPI   PO4 2852   7.763  16.298  10.033 -0.1509 -0.2963  0.1118
  179loPI   GL1 2853   8.061  16.572   9.885 -0.1099  0.0133 -0.1237
  179loPI   GL2 2854   8.353  16.831   9.787 -0.0813 -0.0052 -0.0691
  179loPI   C1A 2855   8.244  16.520   9.485  0.0232  0.0631  0.2803
  179loPI   C2A 2856   8.273  16.748   9.078 -0.0251 -0.0323 -0.2080
  179loPI   C3A 2857   8.278  16.858   8.689  0.0981 -0.0128 -0.0228
  179loPI   C4A 2858   8.109  16.720   8.265  0.1605  0.2978 -0.2141
  179loPI   C5A 2859   8.102  16.704   7.907 -0.2974  0.0749 -0.0329
  179loPI   C6A 2860   7.995  16.380   7.550 -0.2238  0.0169 -0.2770
  179loPI   C1B 2861   8.423  17.084   9.397  0.2795  0.1150  0.1197
  179loPI   C2B 2862   8.458  17.187   8.980 -0.0316 -0.0576  0.0119
  179loPI   C3B 2863   8.315  17.335   8.522 -0.2450  0.0160  0.1789
  179loPI   C4B 2864   8.204  17.546   8.058  0.1188  0.2322  0.2139
  180loPI    C1 2865  15.601  16.717  10.051  0.1079  0.0187 -0.1462
  180loPI    C2 2866  15.556  16.917   9.708 -0.0225  0.0194 -0.1293
  180loPI    C3 2867  15.355  17.032  10.035 -0.0415 -0.0941 -0.1006
  180loPI   PO4 2868  15.594  16.424   9.982  0.1709  0.2598 -0.0476
  180loPI   GL1 2869  15.455  16.414   9.532  0.0125  0.1786  0.0338
  180loPI   GL2 2870  15.173  16.242   9.584 -0.0895 -0.1515 -0.2019
  180loPI   C1A 2871  15.174  16.651   9.260  0.0099  0.2672 -0.4129
  180loPI   C2A 2872  14.990  16.966   8.982  0.0574 -0.3800 -0.0274
  180loPI   C3A 2873  15.069  17.006   8.507 -0.1974  0.2677  0.1094
  180loPI   C4A 2874  15.081  17.152   8.115  0.2479  0.4212  0.1851
  180loPI   C5A 2875  14.825  17.233   7.763  0.0690 -0.2296  0.1364
  180loPI   C6A 2876  14.859  17.222   7.285  0.1876 -0.2213  0.0386
  180loPI   C1B 2877  15.328  16.236   9.148 -0.1473  0.0677 -0.2321
  180loPI   C2B 2878  15.418  15.946   8.733 -0.0220 -0.2742 -0.0268
  180loPI   C3B 2879  15.264  15.881   8.285 -0.3493 -0.0257  0.3046
  180loPI   C4B 2880  14.932  15.751   7.957  0.1143  0.1305 -0.2070
  181loPI    C1 2881   8.561   9.869   9.430 -0.1882  0.2598 -0.2357
  181loPI    C2 2882   8.710  10.240   9.448 -0.0157  0.1821 -0.0016
  181loPI    C3 2883   8.364  10.154   9.630 -0.1776  0.2822 -0.2570
  181loPI   PO4 2884   8.746   9.740   9.297 -0.1031  0.0213  0.2113
  181loPI   GL1 2885   8.967   9.696   8.939  0.0787  0.1841  0.1961
  181loPI   GL2 2886   8.896   9.985   8.763  0.2318  0.1045  0.2194
  181loPI   C1A 2887   8.965   9.529   8.453 -0.0163 -0.2498  0.1697
  181loPI   C2A 2888   8.962   9.721   8.013 -0.1520 -0.0960 -0.0459
  181loPI   C3A 2889   9.095  10.018   7.661  0.2064 -0.1363  0.3679
  181loPI   C4A 2890   9.473  10.092   7.456 -0.2129 -0.0153 -0.2602
  181loPI   C5A 2891   9.571   9.969   7.067  0.1234 -0.1676 -0.1048
  181loPI   C6A 2892  10.011   9.761   7.014  0.1835 -0.0590  0.3351
  181loPI   C1B 2893   8.873  10.108   8.335 -0.0102  0.2676 -0.2461
  181loPI   C2B 2894   9.090  10.392   7.957 -0.1552 -0.2997 -0.2531
  181loPI   C3B 2895   9.138  10.713   7.684  0.1170  0.2143 -0.2034
  181loPI   C4B 2896   8.946  11.154   7.633  0.0288 -0.2767  0.3750
  182loPI    C1 2897   7.797   7.755   9.201  0.0625  0.1952 -0.1363
  182loPI    C2 2898   7.875   7.466   9.467  0.0610  0.1988 -0.1320
  182loPI    C3 2899   7.531   7.670   9.487 -0.0522  0.0274 -0.2898
  182loPI   PO4 2900   8.063   7.686   9.032  0.1486 -0.1331 -0.1677
  182loPI   GL1 2901   8.011   7.409   8.768  0.4978  0.0604  0.1826
  182loPI   GL2 2902   8.099   7.679   8.557 -0.3475 -0.1463  0.1309
  182loPI   C1A 2903   7.872   7.268   8.346  0.1064 -0.1753 -0.0894
  182loPI   C2A 2904   7.618   7.185   7.986 -0.2102  0.2164 -0.1203
  182loPI   C3A 2905   7.368   7.102   7.620  0.0937  0.1109  0.2937
  182loPI   C4A 2906   7.161   7.221   7.281  0.4201  0.1699 -0.0489
  182loPI   C5A 2907   7.004   7.091   6.765  0.1151 -0.1172 -0.1118
  182loPI   C6A 2908   7.231   6.888   6.490 -0.0475  0.0121 -0.1701
  182loPI   C1B 2909   8.369   7.741   8.147 -0.1676 -0.0284  0.0129
  182loPI   C2B 2910   8.633   7.640   7.797 -0.1207  0.2376  0.1301
  182loPI   C3B 2911   8.781   7.673   7.338  0.2423 -0.0426 -0.2267
  182loPI   C4B 2912   8.872   7.601   6.892  0.1825  0.0148 -0.4041
  183loPI    C1 2913  18.134   4.473   9.973 -0.0734 -0.1206  0.0259
  183loPI    C2 2914  17.891   4.465  10.291 -0.0287 -0.0760  0.0612
  183loPI    C3 2915  18.288   4.454  10.342 -0.0244 -0.2430 -0.0003
  183loPI   PO4 2916  18.139   4.578   9.781 -0.0954 -0.1773  0.0132
  183loPI   GL1 2917  17.988   4.452   9.444 -0.1209 -0.1898  0.3505
  183loPI   GL2 2918  17.948   4.130   9.413  0.2929 -0.2257  0.0017
  183loPI   C1A 2919  18.145   4.541   8.992 -0.0291  0.0250  0.2401
  183loPI   C2A 2920  18.208   4.562   8.486  0.1426 -0.2135  0.2116
  183loPI   C3A 2921  17.926   4.536   8.150  0.2085 -0.2486  0.0947
  183loPI   C4A 2922  17.766   4.289   7.880  0.2578 -0.0786  0.1996
  183loPI   C5A 2923  17.447   3.891   7.843  0.1825 -0.2261 -0.0335
  183loPI   C6A 2924  17.307   3.746   7.492  0.0451 -0.0457  0.1323
  183loPI   C1B 2925  18.103   3.883   9.020  0.2056  0.0001  0.2551
  183loPI   C2B 2926  18.237   3.751   8.568 -0.1313  0.0868  0.2004
  183loPI   C3B 2927  18.384   3.989   8.298  0.0298 -0.4444  0.2583
  183loPI   C4B 2928  18.294   4.259   7.994 -0.2390  0.0670  0.2164
  184loPI    C1 2929  11.992  14.103  10.124  0.0072 -0.0001  0.3055
  184loPI    C2 2930  11.606  14.007  10.075  0.0547 -0.0734  0.0630
  184loPI    C3 2931  11.882  13.718  10.106  0.1324 -0.0215 -0.1247
  184loPI   PO4 2932  11.942  14.369   9.996  0.1388  0.0570  0.1099
  184loPI   GL1 2933  12.064  14.312   9.533 -0.1227  0.1009 -0.0219
  184loPI   GL2 2934  12.131  14.056   9.555  0.0538 -0.0738  0.1619
  184loPI   C1A 2935  12.148  14.372   9.088 -0.1057 -0.2621  0.0342
  184loPI   C2A 2936  12.176  14.273   8.652  0.0480  0.1654  0.0801
  184loPI   C3A 2937  12.150  14.337   8.203  0.0528  0.0763  0.3701
  184loPI   C4A 2938  11.992  14.465   7.784  0.1778  0.0555 -0.0258
  184loPI   C5A 2939  12.314  14.705   7.519 -0.2625 -0.0505 -0.0077
  184loPI   C6A 2940  12.502  14.975   7.163  0.0417 -0.0869 -0.1099
  184loPI   C1B 2941  12.293  13.913   9.199 -0.2383  0.2528  0.0507
  184loPI   C2B 2942  12.414  13.874   8.801  0.2858  0.0730  0.1102
  184loPI   C3B 2943  12.604  13.817   8.407 -0.1062 -0.1790 -0.1595
  184loPI   C4B 2944  12.967  13.857   8.121  0.1567  0.3275 -0.1616
  185loPI    C1 2945  17.225  11.202   9.811  0.1387  0.0689  0.0808
  185loPI    C2 2946  17.066  11.546   9.682  0.4129  0.0482 -0.3344
  185loPI    C3 2947  16.855  11.207   9.661  0.1821  0.1673 -0.0243
  185loPI   PO4 2948  17.378  11.132   9.651 -0.0415  0.2064  0.0088
  185loPI   GL1 2949  17.528  11.438   9.258 -0.0542  0.1016 -0.4065
  185loPI   GL2 2950  17.769  11.216   9.301  0.5729 -0.0466 -0.1060
  185loPI   C1A 2951  17.158  11.754   9.175 -0.1016 -0.0020 -0.0232
  185loPI   C2A 2952  17.123  11.868   8.723 -0.0135  0.1757 -0.1631
  185loPI   C3A 2953  16.876  12.161   8.425  0.2779  0.0238  0.1783
  185loPI   C4A 2954  16.763  12.102   8.086 -0.0507 -0.1858  0.0519
  185loPI   C5A 2955  16.855  11.752   7.849  0.1101 -0.2501 -0.0086
  185loPI   C6A 2956  17.219  11.542   7.682  0.1603  0.0043  0.0452
  185loPI   C1B 2957  17.782  11.122   8.847  0.4362  0.0566  0.4146
  185loPI   C2B 2958  17.951  11.274   8.486 -0.0079  0.0104 -0.1102
  185loPI   C3B 2959  18.001  11.396   8.091  0.0398  0.0254 -0.0678
  185loPI   C4B 2960  17.847  11.554   7.638 -0.0377  0.0396  0.2131
  186loPI    C1 2961  15.267  11.516  10.145 -0.1800 -0.0317  0.0425
  186loPI    C2 2962  15.507  11.459  10.460 -0.0249 -0.0402 -0.0757
  186loPI    C3 2963  15.110  11.461  10.509 -0.0000  0.0654  0.1367
  186loPI   PO4 2964  15.310  11.368   9.849 -0.1629  0.2042 -0.3466
  186loPI   GL1 2965  15.038  11.313   9.523 -0.4468  0.1546  0.1230
  186loPI   GL2 2966  15.111  11.581   9.460 -0.2213 -0.1262 -0.1048
  186loPI   C1A 2967  14.888  11.109   9.065 -0.4425  0.0864 -0.2717
  186loPI   C2A 2968  14.850  11.102   8.616  0.4619  0.0580 -0.0310
  186loPI   C3A 2969  14.779  11.220   8.161 -0.2964  0.0223 -0.0366
  186loPI   C4A 2970  14.831  11.464   7.785 -0.3847  0.2368 -0.0314
  186loPI   C5A 2971  14.731  11.763   7.604 -0.0725 -0.0553 -0.1234
  186loPI   C6A 2972  14.638  11.699   7.169  0.1118 -0.2406  0.1535
  186loPI   C1B 2973  15.232  11.607   9.082  0.3858  0.0221  0.0807
  186loPI   C2B 2974  15.125  11.625   8.692  0.1377  0.1021 -0.0554
  186loPI   C3B 2975  15.343  11.919   8.378  0.3696 -0.0524  0.0166
  186loPI   C4B 2976  15.494  12.039   8.089 -0.1224 -0.0817 -0.6341
  187loPI    C1 2977  13.424   4.191  10.077 -0.1302 -0.2666  0.1873
  187loPI    C2 2978  13.738   3.953  10.004 -0.1212 -0.2607  0.2068
  187loPI    C3 2979  13.789   4.297  10.202 -0.0832 -0.0925 -0.0896
  187loPI   PO4 2980  13.297   4.211   9.817 -0.1429 -0.2276  0.0610
  187loPI   GL1 2981  13.223   3.955   9.531  0.3339  0.1492 -0.1895
  187loPI   GL2 2982  13.142   3.557   9.489  0.0793 -0.0770  0.1170
  187loPI   C1A 2983  13.215   3.884   9.114  0.0458  0.2450  0.0260
  187loPI   C2A 2984  13.191   3.630   8.751  0.1094  0.3233  0.1343
  187loPI   C3A 2985  13.271   3.631   8.267  0.1145 -0.2860 -0.1018
  187loPI   C4A 2986  13.344   3.867   7.916  0.0172 -0.0502 -0.2245
  187loPI   C5A 2987  13.236   3.932   7.572 -0.2478  0.1441  0.0408
  187loPI   C6A 2988  13.287   4.193   7.261  0.0002 -0.1274 -0.0421
  187loPI   C1B 2989  13.089   3.258   9.107  0.1485  0.3387  0.1658
  187loPI   C2B 2990  13.025   3.121   8.724 -0.1600  0.0288  0.1185
  187loPI   C3B 2991  12.964   2.941   8.250 -0.2210 -0.2324  0.3071
  187loPI   C4B 2992  12.973   3.196   7.810  0.0307 -0.0583 -0.0729
  188loPI    C1 2993   6.711   6.835  10.009  0.1889  0.1453 -0.0624
  188loPI    C2 2994   6.831   6.801  10.389  0.4610 -0.0350 -0.1611
  188loPI    C3 2995   6.756   6.473  10.173  0.0398  0.0703 -0.1840
  188loPI   PO4 2996   6.935   6.985   9.798  0.2160  0.1080 -0.1479
  188loPI   GL1 2997   6.983   6.933   9.288  0.0130  0.0776 -0.1907
  188loPI   GL2 2998   6.861   6.615   9.203  0.0659 -0.1364  0.2713
  188loPI   C1A 2999   7.047   6.945   8.854  0.0016 -0.3251  0.0844
  188loPI   C2A 3000   6.746   6.958   8.434 -0.3998  0.3409 -0.1348
  188loPI   C3A 3001   6.623   6.737   8.103  0.0463  0.0427 -0.1071
  188loPI   C4A 3002   6.531   6.574   7.738 -0.0802 -0.2283 -0.0494
  188loPI   C5A 3003   6.577   6.438   7.377  0.0128  0.3234 -0.1731
  188loPI   C6A 3004   6.755   6.294   7.106  0.1438  0.0336  0.2866
  188loPI   C1B 3005   6.715   6.561   8.806  0.3288 -0.0847  0.1661
  188loPI   C2B 3006   6.378   6.581   8.467 -0.1267 -0.1002  0.0522
  188loPI   C3B 3007   6.067   6.581   8.110  0.0508 -0.0131 -0.3124
  188loPI   C4B 3008   6.062   6.603   7.683 -0.0346 -0.3570 -0.2267
  189loPI    C1 3009   6.779   9.767   9.595  0.0281  0.2998 -0.0254
  189loPI    C2 3010   6.977   9.710   9.938  0.1168  0.1750 -0.0966
  189loPI    C3 3011   6.577   9.684   9.931  0.1229  0.0512 -0.0277
  189loPI   PO4 3012   7.133   9.853   9.467  0.3095  0.0827 -0.3025
  189loPI   GL1 3013   7.407   9.595   9.277  0.1356  0.3404  0.1458
  189loPI   GL2 3014   7.616   9.643   9.260 -0.0568 -0.0516 -0.0636
  189loPI   C1A 3015   7.161   9.461   8.931 -0.0490 -0.2125 -0.0652
  189loPI   C2A 3016   6.922   9.332   8.591 -0.1006  0.0877 -0.1222
  189loPI   C3A 3017   6.731   9.481   8.177 -0.1393  0.0313  0.0329
  189loPI   C4A 3018   6.442   9.496   7.883  0.3092 -0.1534  0.0565
  189loPI   C5A 3019   6.327   9.491   7.378 -0.1621 -0.0023  0.0525
  189loPI   C6A 3020   6.313   9.534   6.901 -0.2617  0.2188 -0.0443
  189loPI   C1B 3021   7.610   9.649   8.791 -0.0491 -0.3923 -0.3933
  189loPI   C2B 3022   7.419   9.520   8.379 -0.0079  0.2007 -0.1121
  189loPI   C3B 3023   7.414   9.640   7.943  0.0501  0.0999  0.2060
  189loPI   C4B 3024   7.290   9.581   7.473 -0.0012 -0.0076 -0.0184
  190loPI    C1 3025  18.240   0.906  10.315  0.0293 -0.0217 -0.0383
  190loPI    C2 3026  18.563   1.012  10.104  0.0558  0.0717  0.0481
  190loPI    C3 3027  18.604   0.879  10.479  0.0079 -0.0853 -0.0013
  190loPI   PO4 3028  18.101   0.865  10.165  0.1391  0.0061 -0.2731
  190loPI   GL1 3029  18.162   0.979   9.804 -0.1530  0.1077  0.0032
  190loPI   GL2 3030  18.212   1.287   9.655 -0.0429 -0.0972  0.3800
  190loPI   C1A 3031  18.396   0.831   9.464 -0.0729 -0.2730  0.1103
  190loPI   C2A 3032  18.437   0.822   9.050  0.1795  0.2602 -0.0388
  190loPI   C3A 3033  18.420   0.878   8.632 -0.0642  0.0701  0.3031
  190loPI   C4A 3034  18.345   0.842   8.289  0.0859 -0.0162 -0.0096
  190loPI   C5A 3035  18.360   0.689   7.874 -0.3165 -0.1975  0.1369
  190loPI   C6A 3036  18.258   0.704   7.433 -0.0777 -0.1645 -0.1329
  190loPI   C1B 3037  18.498   1.327   9.141 -0.0288 -0.3787  0.2688
  190loPI   C2B 3038  18.479   1.372   8.697 -0.0094  0.0007 -0.0048
  190loPI   C3B 3039  18.464   1.302   8.263  0.1557  0.3482 -0.1765
  190loPI   C4B 3040  18.362   1.258   7.812  0.0596  0.0419 -0.0642
  191loPI    C1 3041  15.189   7.296  10.078  0.0109 -0.0877  0.0082
  191loPI    C2 3042  15.070   7.664  10.180 -0.0222 -0.1256  0.1078
  191loPI    C3 3043  15.431   7.533  10.291  0.0056 -0.1089  0.0380
  191loPI   PO4 3044  15.059   7.261   9.857  0.0473  0.0244  0.0159
  191loPI   GL1 3045  14.899   7.240   9.521  0.1883  0.2010 -0.4008
  191loPI   GL2 3046  14.688   7.416   9.441 -0.0289 -0.1881 -0.0938
  191loPI   C1A 3047  15.028   7.230   9.137 -0.1579 -0.2822  0.0634
  191loPI   C2A 3048  15.201   7.272   8.804  0.3497 -0.3641  0.1727
  191loPI   C3A 3049  15.132   7.063   8.421  0.2875  0.0966 -0.3197
  191loPI   C4A 3050  15.149   6.965   8.113 -0.0154 -0.1004 -0.2192
  191loPI   C5A 3051  15.115   6.935   7.709  0.1264  0.0498  0.2013
  191loPI   C6A 3052  15.057   6.861   7.280 -0.2217 -0.1032  0.0249
  191loPI   C1B 3053  14.564   7.429   8.972  0.0217 -0.1782  0.0873
  191loPI   C2B 3054  14.731   7.334   8.588 -0.0516 -0.2576  0.0468
  191loPI   C3B 3055  14.928   7.584   8.131  0.0111  0.1640  0.0676
  191loPI   C4B 3056  15.183   7.910   8.174  0.1739  0.0224 -0.3045
  192loPI    C1 3057  18.847   7.791  10.083  0.0489  0.0276  0.1079
  192loPI    C2 3058  18.485   7.959  10.064  0.0533  0.0248 -0.0100
  192loPI    C3 3059  18.550   7.652  10.312  0.0685  0.2525  0.2729
  192loPI   PO4 3060  18.991   8.083  10.013 -0.0575  0.2734  0.2011
  192loPI   GL1 3061  18.955   8.290   9.601 -0.1104  0.0137 -0.0851
  192loPI   GL2 3062  19.071   7.950   9.431  0.4310  0.1227  0.1010
  192loPI   C1A 3063  19.003   8.589   9.278 -0.2410  0.1269 -0.0646
  192loPI   C2A 3064  18.935   8.645   8.836  0.0204 -0.0991  0.0586
  192loPI   C3A 3065  19.034   8.547   8.447 -0.0218 -0.2272 -0.2758
  192loPI   C4A 3066  19.077   8.477   7.965 -0.2481 -0.2834  0.0383
  192loPI   C5A 3067  18.945   8.484   7.446  0.1702 -0.0065 -0.1556
  192loPI   C6A 3068  18.771   8.608   7.004 -0.1795  0.2245 -0.0117
  192loPI   C1B 3069  18.968   8.145   9.050 -0.1028  0.3190  0.0321
  192loPI   C2B 3070  18.718   8.162   8.688 -0.1486  0.1773  0.1207
  192loPI   C3B 3071  18.730   8.243   8.193  0.5714 -0.1889 -0.1427
  192loPI   C4B 3072  18.498   8.167   7.772 -0.0871 -0.1897  0.1762
  193loPI    C1 3073  16.081  15.902  10.264  0.0542  0.1503  0.0739
  193loPI    C2 3074  16.425  15.974  10.456  0.0314 -0.1014  0.2141
  193loPI    C3 3075  16.147  15.740  10.624 -0.0811 -0.1480 -0.0325
  193loPI   PO4 3076  16.078  16.271  10.180  0.1051  0.0555 -0.2224
  193loPI   GL1 3077  16.045  16.477   9.711 -0.0145 -0.1753  0.0613
  193loPI   GL2 3078  15.921  16.148   9.647 -0.0058 -0.2662 -0.0747
  193loPI   C1A 3079  16.221  16.710   9.312  0.3487 -0.1296 -0.1464
  193loPI   C2A 3080  16.045  16.733   8.968 -0.1306  0.2353  0.1636
  193loPI   C3A 3081  15.814  16.785   8.499 -0.0625 -0.0520  0.1018
  193loPI   C4A 3082  15.958  16.471   8.203  0.2529  0.1911 -0.1528
  193loPI   C5A 3083  16.083  16.208   7.846 -0.1236 -0.0486  0.1445
  193loPI   C6A 3084  16.127  16.221   7.421  0.0883  0.2769  0.0925
  193loPI   C1B 3085  15.866  16.311   9.262 -0.1576  0.1179  0.3359
  193loPI   C2B 3086  15.790  16.276   8.842 -0.3121 -0.0758  0.0089
  193loPI   C3B 3087  15.787  16.040   8.361  0.1058 -0.1893 -0.1443
  193loPI   C4B 3088  15.571  16.048   7.943 -0.3658 -0.0894  0.1357
  194loPI    C1 3089   5.076   2.406  10.204 -0.1336 -0.0125  0.1335
  194loPI    C2 3090   4.899   2.067  10.322 -0.0672 -0.1883 -0.2581
  194loPI    C3 3091   5.294   2.075  10.256  0.0021  0.0794  0.1556
  194loPI   PO4 3092   4.996   2.486   9.947 -0.3254 -0.0682 -0.1239
  194loPI   GL1 3093   4.981   2.295   9.461 -0.0586 -0.2369  0.0896
  194loPI   GL2 3094   4.799   2.133   9.384  0.0603 -0.2691 -0.0676
  194loPI   C1A 3095   4.924   2.528   9.038 -0.0000  0.3710  0.2239
  194loPI   C2A 3096   4.985   2.559   8.557 -0.3974 -0.0376 -0.1488
  194loPI   C3A 3097   4.856   2.583   8.092  0.1578 -0.0222 -0.0365
  194loPI   C4A 3098   4.944   2.476   7.716 -0.0272  0.2529  0.1405
  194loPI   C5A 3099   5.057   2.358   7.311 -0.3799  0.2073  0.2393
  194loPI   C6A 3100   5.121   1.896   7.180  0.0461  0.2433  0.0690
  194loPI   C1B 3101   4.683   1.809   9.100 -0.0271 -0.0016 -0.0478
  194loPI   C2B 3102   4.539   1.479   8.839  0.0975  0.0409 -0.0350
  194loPI   C3B 3103   4.303   1.316   8.513  0.1705 -0.4229  0.0827
  194loPI   C4B 3104   4.089   0.937   8.429 -0.1706 -0.2643  0.2299
  195loPI    C1 3105  10.564   7.991   9.739  0.1334 -0.3079  0.0655
  195loPI    C2 3106  10.776   7.957   9.402  0.1490 -0.4040  0.0847
  195loPI    C3 3107  10.933   8.143   9.719  0.0730 -0.1696 -0.0127
  195loPI   PO4 3108  10.300   8.094   9.585  0.2343 -0.3945 -0.0312
  195loPI   GL1 3109  10.152   8.161   9.140 -0.0391  0.0156  0.0034
  195loPI   GL2 3110  10.485   8.372   9.227 -0.0053 -0.2924  0.1187
  195loPI   C1A 3111  10.008   8.152   8.631 -0.2491 -0.1854 -0.0158
  195loPI   C2A 3112  10.037   8.115   8.254  0.1234 -0.2157 -0.0670
  195loPI   C3A 3113  10.165   8.069   7.763  0.1235 -0.1774 -0.0940
  195loPI   C4A 3114  10.180   8.046   7.349 -0.4100  0.1083  0.2366
  195loPI   C5A 3115  10.425   8.314   6.975  0.1113 -0.1005  0.1433
  195loPI   C6A 3116  10.421   8.455   6.512  0.1125  0.1998 -0.1048
  195loPI   C1B 3117  10.646   8.312   8.822 -0.1098  0.0027  0.1374
  195loPI   C2B 3118  10.578   8.333   8.393  0.2875  0.0055  0.1988
  195loPI   C3B 3119  10.660   8.293   7.981  0.3252 -0.2431 -0.2574
  195loPI   C4B 3120  10.499   8.387   7.528  0.0818 -0.1835 -0.2522
  196loPI    C1 3121   4.840  18.138   9.933 -0.1589  0.1048 -0.0493
  196loPI    C2 3122   4.611  18.214  10.252  0.0827  0.4143  0.0563
  196loPI    C3 3123   4.951  18.008  10.295  0.0116  0.2755 -0.0385
  196loPI   PO4 3124   4.638  18.071   9.713  0.0377  0.1780  0.1937
  196loPI   GL1 3125   4.717  18.160   9.359  0.3170 -0.1280 -0.0154
  196loPI   GL2 3126   4.932  18.071   9.094 -0.1353  0.0453  0.2272
  196loPI   C1A 3127   4.404  18.387   9.064  0.0386 -0.2979  0.0525
  196loPI   C2A 3128   4.146  18.480   8.674 -0.2070  0.1761  0.1356
  196loPI   C3A 3129   4.168  18.279   8.300 -0.2492 -0.0774 -0.0053
  196loPI   C4A 3130   4.019  18.173   7.896  0.2056 -0.0329  0.0152
  196loPI   C5A 3131   4.203  18.146   7.430 -0.0622 -0.0698 -0.1194
  196loPI   C6A 3132   4.612  18.152   7.279  0.0818 -0.0679  0.2238
  196loPI   C1B 3133   4.773  18.143   8.785  0.0461 -0.1488 -0.1677
  196loPI   C2B 3134   4.738  18.221   8.355  0.0734 -0.3396 -0.0019
  196loPI   C3B 3135   4.740  18.208   7.880  0.2014 -0.0366  0.0800
  196loPI   C4B 3136   5.024  18.393   7.483  0.0868 -0.0332 -0.0933
  197loPI    C1 3137  13.787  12.807  10.103  0.0743 -0.0130  0.1400
  197loPI    C2 3138  13.466  12.601  10.223  0.0479 -0.2085 -0.2508
  197loPI    C3 3139  13.821  12.537  10.397 -0.1137 -0.0103  0.1655
  197loPI   PO4 3140  13.657  12.829   9.865 -0.0487 -0.2804 -0.0719
  197loPI   GL1 3141  13.680  13.198   9.493  0.0706 -0.1119 -0.0351
  197loPI   GL2 3142  13.951  13.033   9.317  0.2636  0.0994  0.2521
  197loPI   C1A 3143  13.478  13.089   9.067 -0.1550  0.0354 -0.0720
  197loPI   C2A 3144  13.205  13.287   8.697 -0.0986  0.0758 -0.0081
  197loPI   C3A 3145  13.263  13.428   8.307 -0.0036  0.3806 -0.1203
  197loPI   C4A 3146  13.397  13.674   7.960 -0.2174  0.1168  0.1313
  197loPI   C5A 3147  13.752  14.004   7.873 -0.3356  0.2096  0.1838
  197loPI   C6A 3148  13.916  14.209   7.576  0.1125 -0.1536  0.0338
  197loPI   C1B 3149  14.021  13.199   8.914  0.0012  0.1941 -0.2214
  197loPI   C2B 3150  14.111  13.053   8.536  0.0365  0.1447  0.1204
  197loPI   C3B 3151  14.077  13.021   8.180 -0.1687 -0.1669 -0.0062
  197loPI   C4B 3152  13.839  12.817   7.844 -0.5058 -0.1071  0.3497
  198loPI    C1 3153   7.198  10.743   9.558 -0.0376  0.2105  0.1075
  198loPI    C2 3154   7.354  10.943   9.867 -0.1443  0.3168  0.0931
  198loPI    C3 3155   6.973  11.004   9.760 -0.1294  0.2264 -0.0137
  198loPI   PO4 3156   7.337  10.767   9.369  0.3587  0.2215  0.2008
  198loPI   GL1 3157   7.575  10.997   8.967  0.0711  0.1123 -0.1601
  198loPI   GL2 3158   7.805  10.780   8.963  0.1870  0.1433 -0.1314
  198loPI   C1A 3159   7.568  10.977   8.485  0.1493  0.1606  0.0117
  198loPI   C2A 3160   7.667  10.903   8.078 -0.0068 -0.0380  0.1395
  198loPI   C3A 3161   7.921  10.999   7.697 -0.1904 -0.1395 -0.0137
  198loPI   C4A 3162   8.268  10.959   7.345  0.5082  0.1049 -0.4788
  198loPI   C5A 3163   8.447  10.569   7.205 -0.2464 -0.1812  0.1313
  198loPI   C6A 3164   8.829  10.394   7.346  0.0348  0.0734 -0.1179
  198loPI   C1B 3165   8.134  10.741   8.564 -0.2186 -0.1960  0.0311
  198loPI   C2B 3166   8.174  10.714   8.162 -0.1275 -0.2413  0.0875
  198loPI   C3B 3167   8.209  10.520   7.678 -0.1103  0.3679 -0.2925
  198loPI   C4B 3168   7.909  10.574   7.414  0.0624 -0.1303  0.0429
  199loPI    C1 3169  12.360   2.055  10.185 -0.2242  0.0731 -0.2282
  199loPI    C2 3170  12.173   2.207  10.504 -0.0121 -0.2125  0.0379
  199loPI    C3 3171  12.441   1.913  10.550 -0.1730 -0.4424 -0.4308
  199loPI   PO4 3172  12.243   1.988   9.936  0.0061 -0.2441 -0.2030
  199loPI   GL1 3173  12.484   1.972   9.597  0.1545 -0.1325  0.0004
  199loPI   GL2 3174  12.262   2.038   9.424  0.1141 -0.1487 -0.2954
  199loPI   C1A 3175  12.623   1.760   9.195  0.1107  0.2742  0.0927
  199loPI   C2A 3176  12.683   1.601   8.759  0.0048  0.0806 -0.0867
  199loPI   C3A 3177  12.712   1.505   8.361  0.0054 -0.2173  0.1223
  199loPI   C4A 3178  12.417   1.403   8.005  0.3443 -0.2309  0.1442
  199loPI   C5A 3179  12.228   1.630   7.612 -0.1504  0.3270 -0.1444
  199loPI   C6A 3180  11.862   1.896   7.461 -0.2403  0.0419 -0.1840
  199loPI   C1B 3181  12.123   1.972   8.981  0.3626  0.0627 -0.1615
  199loPI   C2B 3182  12.019   1.782   8.544 -0.1660  0.2147 -0.2362
  199loPI   C3B 3183  11.890   1.580   8.145 -0.1825 -0.1094 -0.1406
  199loPI   C4B 3184  11.671   1.507   7.664  0.1582  0.1229  0.0621
  200loPI    C1 3185  18.870  19.251  10.297  0.1028  0.2481 -0.2419
  200loPI    C2 3186  19.072  19.325  10.634 -0.1191 -0.2363  0.0082
  200loPI    C3 3187  18.980  19.625  10.386  0.0519  0.1277  0.3722
  200loPI   PO4 3188  19.012  19.028  10.209  0.4541 -0.0518  0.0175
  200loPI   GL1 3189  19.081  18.879   9.780 -0.0963 -0.4180  0.0708
  200loPI   GL2 3190  19.279  19.157   9.681 -0.0111  0.0498 -0.0719
  200loPI   C1A 3191  18.828  18.837   9.313 -0.2386  0.1205 -0.4369
  200loPI   C2A 3192  18.774  18.684   8.934  0.0981 -0.1055 -0.2016
  200loPI   C3A 3193  18.551  18.743   8.529  0.0191 -0.1086 -0.1069
  200loPI   C4A 3194  18.586  18.740   8.102 -0.0672 -0.0467 -0.0728
  200loPI   C5A 3195  18.511  18.667   7.647  0.1904 -0.2559  0.2008
  200loPI   C6A 3196  18.404  18.820   7.174  0.0525 -0.1504 -0.1631
  200loPI   C1B 3197  19.203  19.391   9.355 -0.1076 -0.3487 -0.0663
  200loPI   C2B 3198  19.296  19.489   8.914 -0.0775  0.0065 -0.0889
  200loPI   C3B 3199  19.225  19.511   8.378  0.0429 -0.1611  0.1253
  200loPI   C4B 3200  19.099  19.545   7.921  0.0085 -0.0931  0.1322
  201loPI    C1 3201   4.336   6.225   9.829 -0.1307 -0.2540 -0.1562
  201loPI    C2 3202   4.648   6.453   9.728 -0.3089 -0.0601 -0.2779
  201loPI    C3 3203   4.604   6.330  10.107 -0.0311 -0.1766 -0.2809
  201loPI   PO4 3204   4.263   6.137   9.652 -0.0448 -0.0049 -0.0847
  201loPI   GL1 3205   4.300   6.306   9.300 -0.3193 -0.0954 -0.4018
  201loPI   GL2 3206   4.399   6.760   9.438 -0.0638  0.1249  0.0846
  201loPI   C1A 3207   4.591   6.134   9.026 -0.2630  0.1157  0.0302
  201loPI   C2A 3208   4.630   6.177   8.586 -0.3387  0.0147 -0.2372
  201loPI   C3A 3209   4.610   6.077   8.202  0.1526  0.0410 -0.0202
  201loPI   C4A 3210   4.373   6.019   7.893  0.0142  0.2792 -0.1124
  201loPI   C5A 3211   4.165   6.075   7.591 -0.2259 -0.0036  0.0868
  201loPI   C6A 3212   4.407   5.935   7.224 -0.0941 -0.4609  0.2119
  201loPI   C1B 3213   4.426   6.588   8.941  0.0884 -0.3925 -0.3538
  201loPI   C2B 3214   4.305   6.608   8.567 -0.3205 -0.0098  0.0328
  201loPI   C3B 3215   4.373   6.545   8.250  0.1746  0.1902 -0.3096
  201loPI   C4B 3216   4.421   6.583   7.854 -0.2970  0.1958  0.1279
  202loPI    C1 3217  15.086  14.620  10.176  0.2026 -0.0222  0.0497
  202loPI    C2 3218  15.289  14.921  10.008  0.2511 -0.0569  0.0460
  202loPI    C3 3219  15.231  14.915  10.404  0.1002  0.0466  0.0262
  202loPI   PO4 3220  14.878  14.626   9.976 -0.2125  0.0932  0.3552
  202loPI   GL1 3221  14.774  14.866   9.536  0.0624  0.1940 -0.0544
  202loPI   GL2 3222  15.169  14.773   9.571 -0.1590  0.2842  0.3313
  202loPI   C1A 3223  14.749  14.895   9.111 -0.1625 -0.0994 -0.1641
  202loPI   C2A 3224  14.875  14.755   8.811 -0.1118  0.2000  0.0699
  202loPI   C3A 3225  14.894  14.781   8.279  0.0146 -0.0310 -0.0333
  202loPI   C4A 3226  14.876  14.969   7.893 -0.2520  0.0983 -0.1753
  202loPI   C5A 3227  14.793  15.251   7.724 -0.2127 -0.1202  0.0759
  202loPI   C6A 3228  14.566  15.512   7.766  0.1024  0.0839 -0.0142
  202loPI   C1B 3229  15.334  14.646   9.215 -0.5081 -0.0008  0.2083
  202loPI   C2B 3230  15.380  14.589   8.827  0.1493 -0.0521 -0.2262
  202loPI   C3B 3231  15.330  14.509   8.360  0.1642  0.1885 -0.2490
  202loPI   C4B 3232  15.241  14.618   7.976  0.0429  0.0928  0.1152
  203loPI    C1 3233   0.415  12.363   9.763  0.3403  0.0460 -0.1860
  203loPI    C2 3234   0.387  12.528  10.126 -0.2991 -0.0424 -0.1832
  203loPI    C3 3235   0.363  12.131  10.085 -0.1653 -0.0373 -0.3190
  203loPI   PO4 3236   0.350  12.528   9.625 -0.0763  0.2955 -0.0908
  203loPI   GL1 3237   0.260  12.748   9.353  0.1418  0.3892 -0.1835
  203loPI   GL2 3238  -0.106  12.630   9.401  0.0183 -0.1763 -0.0005
  203loPI   C1A 3239   0.433  12.730   8.918  0.2486 -0.0941  0.0914
  203loPI   C2A 3240   0.634  12.719   8.543 -0.0972  0.0121 -0.0656
  203loPI   C3A 3241   0.703  12.611   8.135 -0.0161 -0.2683  0.1011
  203loPI   C4A 3242   0.835  12.470   7.689 -0.1730 -0.1685  0.0539
  203loPI   C5A 3243   1.145  12.753   7.403 -0.2628  0.1031 -0.0662
  203loPI   C6A 3244   1.249  13.159   7.537  0.3816 -0.0597  0.4293
  203loPI   C1B 3245  -0.116  12.724   9.022 -0.0580  0.3119  0.0046
  203loPI   C2B 3246  -0.363  12.849   8.708 -0.1447  0.0827  0.0268
  203loPI   C3B 3247  -0.273  12.969   8.267 -0.2532  0.0422 -0.5289
  203loPI   C4B 3248  -0.428  13.109   7.980 -0.0758 -0.3656 -0.0826
  204loPI    C1 3249   8.743  18.701  10.319 -0.2023  0.0577 -0.0297
  204loPI    C2 3250   8.742  18.697  10.718 -0.3647 -0.1104 -0.0304
  204loPI    C3 3251   8.606  19.018  10.521  0.2473  0.2102  0.0464
  204loPI   PO4 3252   8.722  18.432  10.309 -0.1429 -0.1915 -0.0400
  204loPI   GL1 3253   8.555  18.252   9.966 -0.0131  0.0569 -0.1381
  204loPI   GL2 3254   8.453  18.483   9.826 -0.1922 -0.1518 -0.0017
  204loPI   C1A 3255   8.683  18.083   9.597 -0.1819 -0.0920  0.1424
  204loPI   C2A 3256   8.921  18.168   9.276 -0.3033  0.1817 -0.0010
  204loPI   C3A 3257   9.148  18.162   8.928  0.4180  0.2981 -0.1820
  204loPI   C4A 3258   9.042  18.034   8.495  0.2975 -0.1878 -0.1290
  204loPI   C5A 3259   9.262  17.914   8.130 -0.0803 -0.1340  0.1838
  204loPI   C6A 3260   9.486  18.141   7.784 -0.0563 -0.1872 -0.0003
  204loPI   C1B 3261   8.722  18.613   9.526  0.2943 -0.2871  0.0535
  204loPI   C2B 3262   8.820  19.004   9.275  0.2441  0.2060 -0.2111
  204loPI   C3B 3263   9.236  19.243   9.413  0.1580 -0.0879  0.2847
  204loPI   C4B 3264   9.257  19.685   9.436 -0.0141 -0.0523  0.0497
  205loPI    C1 3265  10.289  10.750   9.846 -0.1308 -0.1228  0.0933
  205loPI    C2 3266  10.637  10.791  10.039 -0.1332 -0.0289  0.0783
  205loPI    C3 3267  10.384  11.100  10.016 -0.1018 -0.0176 -0.1355
  205loPI   PO4 3268  10.346  10.443   9.759 -0.0454  0.0519 -0.2244
  205loPI   GL1 3269  10.273  10.153   9.373  0.4755 -0.3390  0.1451
  205loPI   GL2 3270   9.911  10.028   9.301 -0.3646  0.2672 -0.2964
  205loPI   C1A 3271  10.328  10.207   8.905  0.0084  0.1044 -0.1090
  205loPI   C2A 3272  10.293  10.149   8.467 -0.4472  0.1891 -0.1440
  205loPI   C3A 3273  10.454  10.124   8.084 -0.0383  0.1148  0.1847
  205loPI   C4A 3274  10.439   9.986   7.745 -0.3906  0.0642  0.1064
  205loPI   C5A 3275  10.365  10.267   7.410  0.0600  0.0461 -0.0547
  205loPI   C6A 3276  10.014  10.350   7.183 -0.0596 -0.1226 -0.0298
  205loPI   C1B 3277   9.943   9.902   8.925 -0.3361  0.0932  0.0407
  205loPI   C2B 3278   9.872   9.901   8.444 -0.0774  0.0378 -0.0969
  205loPI   C3B 3279  10.005   9.915   7.991 -0.0071 -0.1731  0.0084
  205loPI   C4B 3280  10.039   9.679   7.538 -0.0380 -0.0887  0.1594
  206loPI    C1 3281   4.359   8.533   9.483  0.2074  0.2390  0.2674
  206loPI    C2 3282   4.710   8.513   9.292  0.1961 -0.0845  0.2743
  206loPI    C3 3283   4.452   8.208   9.269 -0.0518  0.1167  0.3357
  206loPI   PO4 3284   4.231   8.742   9.436 -0.2626 -0.1161 -0.0515
  206loPI   GL1 3285   4.248   8.880   9.038  0.0534  0.0858 -0.0823
  206loPI   GL2 3286   4.240   8.530   8.983  0.0228  0.0451 -0.3276
  206loPI   C1A 3287   4.619   8.846   8.836  0.0109 -0.2067 -0.3427
  206loPI   C2A 3288   4.727   8.801   8.447 -0.1509 -0.1985 -0.0502
  206loPI   C3A 3289   4.837   8.908   8.055  0.1456  0.0265 -0.1870
  206loPI   C4A 3290   4.507   8.849   7.846 -0.1319  0.0333 -0.2945
  206loPI   C5A 3291   4.219   8.576   7.449  0.2896  0.1172  0.0699
  206loPI   C6A 3292   3.957   8.787   7.164 -0.1357  0.0977 -0.2757
  206loPI   C1B 3293   4.396   8.388   8.634  0.0582 -0.2773 -0.1075
  206loPI   C2B 3294   4.650   8.379   8.180 -0.1469 -0.3225 -0.0370
  206loPI   C3B 3295   4.753   8.406   7.814  0.0018 -0.1112  0.3866
  206loPI   C4B 3296   4.769   8.240   7.519 -0.2627  0.1999  0.0548
  207loPI    C1 3297   1.364  16.607  10.294  0.0528  0.1351 -0.0030
  207loPI    C2 3298   1.079  16.640  10.573  0.1274 -0.0045  0.0912
  207loPI    C3 3299   1.410  16.862  10.598  0.0900  0.0552  0.0591
  207loPI   PO4 3300   1.282  16.635  10.091 -0.1893 -0.2257  0.2548
  207loPI   GL1 3301   1.340  16.739   9.777  0.4495 -0.0807  0.0989
  207loPI   GL2 3302   1.304  17.029   9.507 -0.1119  0.1105 -0.0963
  207loPI   C1A 3303   1.344  16.576   9.316 -0.0834 -0.1765  0.4637
  207loPI   C2A 3304   1.416  16.604   8.796 -0.3220 -0.1195  0.1804
  207loPI   C3A 3305   1.365  16.497   8.429 -0.1805 -0.0522 -0.0116
  207loPI   C4A 3306   1.218  16.469   8.005  0.4780  0.3411  0.2491
  207loPI   C5A 3307   1.073  16.363   7.616 -0.3719  0.0477 -0.1359
  207loPI   C6A 3308   1.034  16.098   7.259 -0.2061  0.2024 -0.0603
  207loPI   C1B 3309   1.022  16.973   9.124 -0.1506  0.2719 -0.1369
  207loPI   C2B 3310   1.016  16.924   8.632 -0.0295 -0.1323 -0.3304
  207loPI   C3B 3311   0.878  16.768   8.174 -0.1416 -0.2487 -0.0840
  207loPI   C4B 3312   0.798  16.746   7.742 -0.0146  0.2469  0.0141
  208loPI    C1 3313   5.352   3.794   9.744 -0.0356 -0.0468  0.2536
  208loPI    C2 3314   5.501   3.467   9.920  0.1915 -0.0591  0.0428
  208loPI    C3 3315   5.330   3.753  10.141 -0.1792 -0.4034  0.2128
  208loPI   PO4 3316   5.087   3.786   9.594 -0.0654  0.0312 -0.1987
  208loPI   GL1 3317   4.821   3.980   9.394  0.0653  0.2715  0.0951
  208loPI   GL2 3318   5.034   4.159   9.264  0.0671 -0.0582 -0.1590
  208loPI   C1A 3319   4.555   4.346   8.995  0.1585  0.1196 -0.0821
  208loPI   C2A 3320   4.574   4.215   8.584 -0.1460  0.0457  0.0853
  208loPI   C3A 3321   4.458   4.139   8.134 -0.1476 -0.2204  0.1748
  208loPI   C4A 3322   4.535   4.153   7.692  0.0194 -0.0765  0.0258
  208loPI   C5A 3323   4.967   4.194   7.529 -0.0794  0.0177  0.2814
  208loPI   C6A 3324   5.221   4.328   7.217  0.2797  0.2806 -0.1294
  208loPI   C1B 3325   4.954   4.141   8.877  0.1936  0.0248  0.4506
  208loPI   C2B 3326   5.050   4.211   8.454  0.0945  0.1897  0.0877
  208loPI   C3B 3327   5.031   4.037   8.037  0.0589  0.3152 -0.0903
  208loPI   C4B 3328   5.157   3.821   7.722 -0.1427  0.4126 -0.0359
  209loPI    C1 3329  18.662  13.087  10.004  0.0107  0.0248 -0.1339
  209loPI    C2 3330  18.846  12.899  10.305  0.0881  0.1496 -0.1027
  209loPI    C3 3331  18.537  13.143  10.380  0.0629  0.1261 -0.1311
  209loPI   PO4 3332  18.668  12.895   9.813 -0.1825  0.0316 -0.1997
  209loPI   GL1 3333  18.713  12.896   9.403 -0.0303  0.0939 -0.0038
  209loPI   GL2 3334  18.344  13.009   9.358  0.0752 -0.0913 -0.1894
  209loPI   C1A 3335  18.677  12.654   9.139  0.2136 -0.2873  0.0727
  209loPI   C2A 3336  18.577  12.512   8.749 -0.0557  0.0447 -0.4255
  209loPI   C3A 3337  18.500  12.614   8.406  0.2827 -0.0799 -0.4861
  209loPI   C4A 3338  18.583  12.713   8.018  0.1645 -0.0491  0.0388
  209loPI   C5A 3339  18.532  12.788   7.587  0.0570  0.1712 -0.3077
  209loPI   C6A 3340  18.815  13.081   7.520 -0.2726 -0.4296  0.2729
  209loPI   C1B 3341  18.499  13.060   8.882  0.2500 -0.1900  0.0789
  209loPI   C2B 3342  18.417  13.157   8.438 -0.1332  0.0918  0.0931
  209loPI   C3B 3343  18.371  13.253   8.010 -0.3581  0.1966 -0.1847
  209loPI   C4B 3344  18.189  13.181   7.631 -0.1227 -0.1297 -0.0528
  210loPI    C1 3345  18.921   4.216   9.957 -0.0741  0.0349  0.1929
  210loPI    C2 3346  18.936   3.935  10.240 -0.3024 -0.0359  0.1365
  210loPI    C3 3347  18.793   4.298  10.326 -0.1955  0.0012  0.1586
  210loPI   PO4 3348  18.862   4.034   9.721  0.0541  0.0713  0.1237
  210loPI   GL1 3349  18.878   3.952   9.336 -0.1201  0.1988 -0.2098
  210loPI   GL2 3350  18.603   3.999   9.233 -0.1390 -0.1309 -0.1953
  210loPI   C1A 3351  18.811   3.610   8.993  0.1132 -0.0277 -0.1908
  210loPI   C2A 3352  18.684   3.629   8.622 -0.0306 -0.0833  0.0150
  210loPI   C3A 3353  18.602   3.544   8.195 -0.0207  0.0428 -0.0267
  210loPI   C4A 3354  18.537   3.696   7.768  0.1866  0.5888 -0.1415
  210loPI   C5A 3355  18.571   3.974   7.347  0.1397  0.1965 -0.0031
  210loPI   C6A 3356  18.462   4.041   6.961 -0.2398 -0.2217 -0.0040
  210loPI   C1B 3357  18.469   4.200   8.834 -0.0966  0.0084 -0.0064
  210loPI   C2B 3358  18.729   4.309   8.488 -0.1147 -0.0560  0.0571
  210loPI   C3B 3359  18.882   4.435   7.940  0.1939  0.3777 -0.3498
  210loPI   C4B 3360  18.668   4.496   7.547 -0.1121 -0.1838 -0.0594
  211loPI    C1 3361   3.342  13.729   9.993 -0.1223 -0.0647  0.1941
  211loPI    C2 3362   3.580  13.408  10.009 -0.0637 -0.0304  0.0340
  211loPI    C3 3363   3.645  13.718  10.253  0.0079 -0.0537  0.0447
  211loPI   PO4 3364   3.257  13.706   9.760  0.0157 -0.0512  0.0763
  211loPI   GL1 3365   3.435  13.725   9.328 -0.1060  0.0780  0.1836
  211loPI   GL2 3366   3.190  13.729   9.176  0.0826 -0.2827  0.1629
  211loPI   C1A 3367   3.676  13.802   8.945 -0.4156 -0.0918  0.1482
  211loPI   C2A 3368   3.748  13.816   8.518  0.0355 -0.0842 -0.2733
  211loPI   C3A 3369   3.737  13.602   8.100  0.0473  0.0195 -0.1776
  211loPI   C4A 3370   3.617  13.733   7.781  0.1474 -0.1734  0.1771
  211loPI   C5A 3371   3.337  13.618   7.473  0.1104  0.1400 -0.0067
  211loPI   C6A 3372   3.100  13.516   7.139 -0.1456  0.1685  0.3137
  211loPI   C1B 3373   2.939  13.580   8.801  0.5929 -0.0021 -0.1272
  211loPI   C2B 3374   3.140  13.625   8.560  0.1200  0.0272 -0.2822
  211loPI   C3B 3375   3.393  13.962   8.240 -0.2881 -0.1989  0.0273
  211loPI   C4B 3376   3.663  14.321   8.100  0.1624 -0.0152  0.3136
  212loPI    C1 3377  18.132   9.643  10.166 -0.0576  0.1549  0.3294
  212loPI    C2 3378  18.247   9.273  10.268 -0.1240  0.0595  0.0672
  212loPI    C3 3379  18.500   9.580  10.310 -0.0962 -0.0012  0.3610
  212loPI   PO4 3380  18.123   9.637   9.862  0.1190  0.0152 -0.0239
  212loPI   GL1 3381  18.091   9.224   9.592 -0.0576  0.2923 -0.0086
  212loPI   GL2 3382  17.734   9.451   9.626  0.4914  0.1479 -0.1056
  212loPI   C1A 3383  17.900   9.235   9.238 -0.2996  0.0118  0.1916
  212loPI   C2A 3384  17.855   8.973   8.825 -0.3119  0.0904 -0.1028
  212loPI   C3A 3385  17.664   8.953   8.454 -0.1844 -0.0515 -0.0570
  212loPI   C4A 3386  17.780   8.672   8.076  0.3982 -0.0937  0.3366
  212loPI   C5A 3387  17.622   8.532   7.717 -0.0575 -0.0043 -0.0476
  212loPI   C6A 3388  17.448   8.298   7.500  0.1400 -0.1631  0.2664
  212loPI   C1B 3389  17.376   9.290   9.278 -0.4360  0.0071 -0.1920
  212loPI   C2B 3390  17.423   9.335   8.827 -0.2582 -0.1214 -0.2362
  212loPI   C3B 3391  17.663   9.547   8.484  0.0258 -0.1835 -0.2569
  212loPI   C4B 3392  17.850   9.310   8.109  0.1774  0.0996 -0.0602
  213loPI    C1 3393   0.327   1.051  10.379  0.0539 -0.0466 -0.0617
  213loPI    C2 3394   0.371   1.443  10.314  0.4574 -0.0401  0.2130
  213loPI    C3 3395   0.020   1.299  10.441  0.2596  0.2065 -0.0418
  213loPI   PO4 3396   0.498   0.970  10.140 -0.1451  0.1165  0.0825
  213loPI   GL1 3397   0.579   0.735   9.840  0.1222 -0.1814  0.2825
  213loPI   GL2 3398   0.462   0.484   9.675  0.1129 -0.1034  0.1703
  213loPI   C1A 3399   0.334   0.987   9.462 -0.2112 -0.2371 -0.3745
  213loPI   C2A 3400   0.099   1.131   9.134  0.2013 -0.1080 -0.0475
  213loPI   C3A 3401  -0.014   1.329   8.725 -0.1502 -0.1533 -0.2993
  213loPI   C4A 3402   0.108   1.215   8.281  0.1592  0.0058  0.1982
  213loPI   C5A 3403  -0.019   1.151   7.744 -0.1080 -0.0728  0.2263
  213loPI   C6A 3404  -0.103   1.322   7.379  0.2332 -0.0068 -0.1336
  213loPI   C1B 3405   0.622   0.625   9.369 -0.2895 -0.0303 -0.2546
  213loPI   C2B 3406   0.644   0.941   8.981 -0.2226  0.0202  0.2246
  213loPI   C3B 3407   0.294   0.907   8.657  0.0912  0.0129  0.1742
  213loPI   C4B 3408  -0.076   0.710   8.705 -0.0430  0.2841  0.0674
  214loPI    C1 3409  12.896  18.073  10.786 -0.0287  0.0793  0.0028
  214loPI    C2 3410  13.282  18.021  10.877 -0.0937 -0.0646  0.2038
  214loPI    C3 3411  13.034  18.183  11.145 -0.1935 -0.0617  0.1105
  214loPI   PO4 3412  12.869  17.898  10.562  0.0830 -0.1919 -0.0552
  214loPI   GL1 3413  12.628  17.864  10.202  0.0460  0.0187 -0.0981
  214loPI   GL2 3414  12.359  18.053  10.148  0.3283  0.2288 -0.2322
  214loPI   C1A 3415  12.679  17.680   9.841 -0.2935  0.0305 -0.0349
  214loPI   C2A 3416  12.804  17.885   9.416  0.0981 -0.0719 -0.1126
  214loPI   C3A 3417  12.982  18.102   9.004  0.1268  0.0680 -0.2058
  214loPI   C4A 3418  12.894  17.948   8.564 -0.1023  0.2352 -0.1402
  214loPI   C5A 3419  12.653  17.632   8.282  0.1998  0.3128 -0.1649
  214loPI   C6A 3420  12.416  17.408   8.069  0.2053 -0.0695 -0.0569
  214loPI   C1B 3421  12.574  18.183   9.775  0.0834 -0.0505 -0.0615
  214loPI   C2B 3422  12.657  18.374   9.363  0.1368  0.1586 -0.1281
  214loPI   C3B 3423  12.610  18.695   9.109  0.0484  0.1279 -0.2249
  214loPI   C4B 3424  12.540  18.613   8.728  0.1085  0.1360  0.5763
  215loPI    C1 3425  11.614   9.451   9.931 -0.0232 -0.1218 -0.1362
  215loPI    C2 3426  11.848   9.257  10.190 -0.1594  0.0149  0.0921
  215loPI    C3 3427  11.532   9.072  10.029 -0.2665  0.0313  0.2796
  215loPI   PO4 3428  11.812   9.635   9.756 -0.1256 -0.0792 -0.2859
  215loPI   GL1 3429  11.768   9.584   9.423  0.0676 -0.1017  0.1184
  215loPI   GL2 3430  12.027   9.438   9.359 -0.0455 -0.0437 -0.0287
  215loPI   C1A 3431  11.627   9.919   9.094 -0.2293 -0.0299 -0.2160
  215loPI   C2A 3432  11.638  10.216   8.810 -0.2925 -0.2255 -0.2018
  215loPI   C3A 3433  11.695  10.377   8.495  0.2656 -0.0542 -0.0967
  215loPI   C4A 3434  11.627  10.177   8.134 -0.0426  0.2838  0.0575
  215loPI   C5A 3435  11.744   9.989   7.902 -0.2931  0.2028  0.0544
  215loPI   C6A 3436  11.959   9.660   7.622 -0.2457 -0.2159  0.2151
  215loPI   C1B 3437  12.085   9.654   8.941  0.2105  0.0015 -0.0342
  215loPI   C2B 3438  12.088   9.508   8.478  0.0749 -0.0709  0.1484
  215loPI   C3B 3439  12.159   9.470   8.016  0.0209  0.0816 -0.3912
  215loPI   C4B 3440  12.401   9.519   7.768  0.1209  0.1810 -0.0624
  216loPI    C1 3441   1.593   6.378   9.639  0.0811  0.1525  0.1507
  216loPI    C2 3442   1.226   6.356   9.797 -0.0204  0.0949 -0.0890
  216loPI    C3 3443   1.542   6.415  10.034 -0.1279 -0.3656  0.1800
  216loPI   PO4 3444   1.660   6.556   9.445 -0.0205 -0.0822  0.4323
  216loPI   GL1 3445   1.830   6.732   9.046  0.1191 -0.0164 -0.2123
  216loPI   GL2 3446   1.584   6.886   8.970 -0.1964  0.0570 -0.3247
  216loPI   C1A 3447   1.983   6.697   8.661 -0.3213 -0.0965 -0.0510
  216loPI   C2A 3448   2.104   6.794   8.236  0.0970 -0.1230 -0.1212
  216loPI   C3A 3449   2.392   6.906   7.979  0.4329  0.0097  0.1219
  216loPI   C4A 3450   2.781   6.865   7.847  0.0372  0.2224 -0.0986
  216loPI   C5A 3451   3.166   6.936   7.513 -0.0628 -0.0555 -0.0036
  216loPI   C6A 3452   3.192   6.876   7.069  0.0563 -0.1407 -0.2354
  216loPI   C1B 3453   1.566   6.943   8.517 -0.0202 -0.0064  0.4556
  216loPI   C2B 3454   1.683   7.084   8.069 -0.1470  0.1732 -0.1236
  216loPI   C3B 3455   1.905   7.091   7.848 -0.0708 -0.1017  0.0904
  216loPI   C4B 3456   2.214   6.988   7.516 -0.1952 -0.0683 -0.0618
  217loPI    C1 3457  17.041  15.563  10.041 -0.0708  0.1801  0.1500
  217loPI    C2 3458  17.148  15.540  10.425  0.1149  0.0754  0.0934
  217loPI    C3 3459  16.820  15.745  10.321 -0.1456 -0.2020  0.3456
  217loPI   PO4 3460  17.206  15.652   9.929 -0.1587  0.1483 -0.1805
  217loPI   GL1 3461  17.254  15.869   9.655  0.0612  0.0041 -0.1640
  217loPI   GL2 3462  16.870  15.863   9.590  0.1297  0.1771  0.2586
  217loPI   C1A 3463  17.175  15.899   9.175 -0.5405 -0.3328  0.2470
  217loPI   C2A 3464  16.977  15.932   8.753  0.2249  0.3069  0.2531
  217loPI   C3A 3465  16.849  16.122   8.290  0.0603  0.0899  0.1851
  217loPI   C4A 3466  16.871  16.230   7.894 -0.3583 -0.1299 -0.0146
  217loPI   C5A 3467  16.972  16.535   7.686  0.0714 -0.0028 -0.0556
  217loPI   C6A 3468  17.314  16.785   7.729 -0.0076  0.0038  0.1679
  217loPI   C1B 3469  16.689  15.846   9.173  0.2703 -0.1148 -0.0135
  217loPI   C2B 3470  16.624  15.562   8.863  0.1307 -0.1552 -0.0751
  217loPI   C3B 3471  16.700  15.600   8.502  0.1490 -0.0040  0.1317
  217loPI   C4B 3472  16.810  15.584   7.960 -0.0943 -0.1645 -0.0412
  218loPI    C1 3473  17.149   7.291   9.982  0.1098 -0.1116 -0.0228
  218loPI    C2 3474  17.422   7.244  10.272  0.0498 -0.0659  0.0414
  218loPI    C3 3475  17.178   7.562  10.276  0.0136 -0.0925 -0.0307
  218loPI   PO4 3476  17.285   7.319   9.792  0.1366 -0.2121 -0.0938
  218loPI   GL1 3477  17.212   7.608   9.441 -0.0476 -0.3085  0.0277
  218loPI   GL2 3478  17.387   7.340   9.248  0.2368 -0.0451  0.0883
  218loPI   C1A 3479  17.110   7.829   9.067  0.0942 -0.1669 -0.1099
  218loPI   C2A 3480  17.174   8.017   8.678 -0.1145 -0.2205 -0.0259
  218loPI   C3A 3481  17.310   7.940   8.292  0.0380  0.0358 -0.0805
  218loPI   C4A 3482  17.152   7.823   7.913 -0.0509 -0.1453 -0.2344
  218loPI   C5A 3483  17.024   8.015   7.598  0.0843  0.1250  0.1238
  218loPI   C6A 3484  16.856   8.376   7.385  0.0793  0.2107  0.1200
  218loPI   C1B 3485  17.501   7.557   8.885  0.1391 -0.3379  0.1112
  218loPI   C2B 3486  17.386   7.446   8.461 -0.2570 -0.2157 -0.1605
  218loPI   C3B 3487  17.423   7.313   8.103 -0.1929  0.1040  0.1774
  218loPI   C4B 3488  17.227   7.432   7.683 -0.1552  0.1362 -0.3742
  219loPI    C1 3489   5.070   8.673   9.816 -0.1204 -0.3292 -0.2817
  219loPI    C2 3490   4.726   8.825   9.679 -0.1945 -0.1516  0.0890
  219loPI    C3 3491   4.739   8.654  10.040  0.1026 -0.1751  0.0696
  219loPI   PO4 3492   5.155   8.574   9.630 -0.0363 -0.3716  0.0587
  219loPI   GL1 3493   5.199   8.485   9.206 -0.2098 -0.1143 -0.0052
  219loPI   GL2 3494   5.392   8.294   9.293  0.2275 -0.0043  0.3577
  219loPI   C1A 3495   5.123   8.752   8.904 -0.2212  0.0149 -0.1542
  219loPI   C2A 3496   5.454   8.812   8.562 -0.1357 -0.2241  0.3373
  219loPI   C3A 3497   5.405   8.964   8.171 -0.1545 -0.2282  0.0250
  219loPI   C4A 3498   5.504   8.965   7.748 -0.0520  0.1270  0.1697
  219loPI   C5A 3499   5.972   8.886   7.442  0.2062 -0.0428  0.3239
  219loPI   C6A 3500   6.343   9.020   7.112  0.1126  0.4493 -0.0646
  219loPI   C1B 3501   5.568   8.154   8.800  0.0618  0.1842 -0.2763
  219loPI   C2B 3502   5.615   8.332   8.358  0.0372 -0.0301  0.0475
  219loPI   C3B 3503   5.651   8.507   7.862 -0.0606  0.2530  0.3643
  219loPI   C4B 3504   5.630   8.565   7.424 -0.0048  0.4945 -0.0712
  220loPI    C1 3505  16.401  13.630  10.162  0.0271  0.1439 -0.0517
  220loPI    C2 3506  16.008  13.559  10.175 -0.0055  0.3023 -0.1445
  220loPI    C3 3507  16.267  13.254  10.176 -0.1210  0.2022  0.1383
  220loPI   PO4 3508  16.389  13.767   9.923 -0.2210 -0.3216  0.2281
  220loPI   GL1 3509  16.714  13.704   9.665 -0.0833  0.0341 -0.2470
  220loPI   GL2 3510  17.022  13.673   9.458 -0.0053  0.0715 -0.3518
  220loPI   C1A 3511  16.575  13.358   9.293  0.3428  0.0118  0.0690
  220loPI   C2A 3512  16.689  13.452   8.840  0.1168  0.3568  0.0983
  220loPI   C3A 3513  16.606  13.466   8.468  0.0846  0.0591 -0.1183
  220loPI   C4A 3514  16.347  13.455   8.051 -0.1298 -0.2063 -0.5526
  220loPI   C5A 3515  16.540  13.348   7.672 -0.1463 -0.0532  0.1104
  220loPI   C6A 3516  16.455  13.172   7.266  0.0831 -0.2090 -0.1033
  220loPI   C1B 3517  16.791  13.844   9.156 -0.0755  0.0822  0.1717
  220loPI   C2B 3518  16.471  13.894   8.817 -0.2809 -0.2567 -0.1476
  220loPI   C3B 3519  16.378  13.945   8.308 -0.1782 -0.1433 -0.1225
  220loPI   C4B 3520  16.388  14.070   7.859 -0.1908  0.1597 -0.0120
  221loPI    C1 3521   0.793  16.037  10.037  0.0295 -0.1372  0.1032
  221loPI    C2 3522   0.899  15.800  10.342  0.1758 -0.3004 -0.0719
  221loPI    C3 3523   1.059  16.165  10.307  0.0500 -0.2245  0.1249
  221loPI   PO4 3524   0.827  15.761   9.802  0.2847 -0.0667  0.1246
  221loPI   GL1 3525   1.086  15.399   9.480 -0.2383 -0.0414 -0.1494
  221loPI   GL2 3526   0.716  15.489   9.378 -0.1794  0.0892  0.2339
  221loPI   C1A 3527   1.091  15.604   9.048 -0.1625 -0.0738 -0.0563
  221loPI   C2A 3528   1.054  15.457   8.685  0.1290  0.1173 -0.1733
  221loPI   C3A 3529   0.924  15.429   8.301 -0.0339 -0.3497  0.0234
  221loPI   C4A 3530   1.082  15.365   7.897 -0.1197  0.1469  0.3307
  221loPI   C5A 3531   1.252  15.247   7.494  0.0995  0.0106  0.1392
  221loPI   C6A 3532   1.563  15.128   7.355  0.1638  0.2152  0.3352
  221loPI   C1B 3533   0.572  15.492   8.901 -0.0056 -0.4769  0.1249
  221loPI   C2B 3534   0.515  15.355   8.557  0.2331  0.2490 -0.1103
  221loPI   C3B 3535   0.464  15.273   8.180  0.1198  0.1121 -0.0090
  221loPI   C4B 3536   0.594  15.296   7.752  0.1707  0.0279 -0.0228
  222loPI    C1 3537  17.418   3.581  10.335 -0.0137  0.0125 -0.2447
  222loPI    C2 3538  17.027   3.610  10.413 -0.0150  0.0431 -0.2632
  222loPI    C3 3539  17.182   3.259  10.300  0.0408 -0.0774  0.1697
  222loPI   PO4 3540  17.465   3.806  10.100 -0.1508 -0.2726  0.1005
  222loPI   GL1 3541  17.476   3.776   9.602 -0.1796  0.1844 -0.3620
  222loPI   GL2 3542  17.473   4.133   9.474 -0.0679  0.0290 -0.0121
  222loPI   C1A 3543  17.717   3.700   9.236 -0.0452  0.2782 -0.0946
  222loPI   C2A 3544  17.784   3.602   8.748 -0.0446  0.1092  0.0709
  222loPI   C3A 3545  17.728   3.599   8.315 -0.0346  0.1180  0.0557
  222loPI   C4A 3546  17.550   3.359   7.888 -0.2070  0.1089  0.0714
  222loPI   C5A 3547  17.562   3.312   7.492  0.1197  0.1256  0.0838
  222loPI   C6A 3548  17.495   2.967   7.189 -0.2021  0.1114 -0.0062
  222loPI   C1B 3549  17.445   4.039   9.023 -0.4209 -0.3693  0.2969
  222loPI   C2B 3550  17.488   3.938   8.561  0.0471 -0.0587 -0.1384
  222loPI   C3B 3551  17.366   4.143   8.262 -0.2177 -0.2411  0.1884
  222loPI   C4B 3552  17.341   4.571   8.136  0.1599 -0.0970 -0.1449
  223loPI    C1 3553  18.906  13.671   9.908  0.1912 -0.0568  0.0566
  223loPI    C2 3554  18.899  13.553  10.291 -0.2216 -0.0066  0.0690
  223loPI    C3 3555  18.732  13.901  10.186 -0.1760 -0.0546 -0.1692
  223loPI   PO4 3556  19.155  13.791   9.747  0.3145  0.0973  0.0749
  223loPI   GL1 3557  19.066  14.027   9.446  0.1022  0.2856 -0.2770
  223loPI   GL2 3558  18.892  14.297   9.280  0.2361 -0.0120  0.0473
  223loPI   C1A 3559  18.887  13.742   9.152 -0.0356 -0.1364 -0.0888
  223loPI   C2A 3560  18.528  13.562   8.746  0.0762  0.0826 -0.5893
  223loPI   C3A 3561  18.344  13.670   8.325 -0.2469 -0.0590  0.3273
  223loPI   C4A 3562  18.116  13.690   7.877 -0.5024 -0.2113  0.1362
  223loPI   C5A 3563  17.794  13.710   7.434 -0.1848  0.0742  0.3444
  223loPI   C6A 3564  17.621  13.695   7.004 -0.1368  0.1312  0.1458
  223loPI   C1B 3565  18.930  14.399   8.883 -0.4445  0.0630  0.0130
  223loPI   C2B 3566  18.957  14.311   8.451  0.3150  0.0434  0.0055
  223loPI   C3B 3567  18.706  14.169   8.127 -0.0769  0.1935 -0.6436
  223loPI   C4B 3568  18.634  14.018   7.728 -0.2033  0.0493  0.0523
  224loPI    C1 3569   8.669  10.759   9.534  0.1839 -0.1071 -0.3203
  224loPI    C2 3570   8.908  11.069   9.452 -0.0385  0.0801 -0.2717
  224loPI    C3 3571   8.898  10.916   9.822  0.2555 -0.1490 -0.3539
  224loPI   PO4 3572   8.543  10.739   9.332  0.0348  0.3537 -0.1321
  224loPI   GL1 3573   8.384  10.885   8.991 -0.0763  0.0236  0.0911
  224loPI   GL2 3574   8.635  11.157   9.037 -0.0848 -0.2608  0.1361
  224loPI   C1A 3575   8.715  10.841   8.676 -0.1069  0.2298  0.3998
  224loPI   C2A 3576   9.059  10.550   8.510  0.2148 -0.0068  0.0301
  224loPI   C3A 3577   9.477  10.657   8.344  0.0157 -0.0506  0.3075
  224loPI   C4A 3578   9.573  10.823   7.939  0.0265  0.1864 -0.2890
  224loPI   C5A 3579   9.589  10.744   7.470  0.2151  0.1257  0.0669
  224loPI   C6A 3580   9.643  11.064   7.145  0.1840  0.0324 -0.3493
  224loPI   C1B 3581   8.749  11.339   8.701 -0.1218  0.0935  0.0971
  224loPI   C2B 3582   8.871  11.489   8.327  0.1174 -0.2036  0.3889
  224loPI   C3B 3583   8.822  11.546   7.968 -0.0558  0.3106 -0.0094
  224loPI   C4B 3584   8.826  11.592   7.577  0.4877  0.1519 -0.2328
  225loPI    C1 3585  14.906   1.973  10.173 -0.1405 -0.1880 -0.2466
  225loPI    C2 3586  14.571   1.994  10.391  0.1240  0.0313  0.1524
  225loPI    C3 3587  14.907   1.854  10.555  0.2761 -0.0141 -0.1886
  225loPI   PO4 3588  14.765   1.906   9.938 -0.1446  0.1249  0.0380
  225loPI   GL1 3589  14.729   2.068   9.608  0.1705 -0.0651  0.4140
  225loPI   GL2 3590  15.011   2.272   9.528  0.2709 -0.0948  0.3329
  225loPI   C1A 3591  14.892   1.967   9.106  0.2831 -0.3760  0.4477
  225loPI   C2A 3592  15.086   2.002   8.675  0.0976  0.0419  0.0501
  225loPI   C3A 3593  15.288   2.111   8.278  0.0433 -0.2587 -0.1174
  225loPI   C4A 3594  15.377   2.274   7.871 -0.1047 -0.2625 -0.0342
  225loPI   C5A 3595  15.590   2.403   7.559  0.1518  0.2866  0.1399
  225loPI   C6A 3596  16.092   2.478   7.482  0.0973 -0.0890  0.0162
  225loPI   C1B 3597  15.318   2.130   9.276  0.2424  0.3701  0.2814
  225loPI   C2B 3598  15.535   1.919   8.936 -0.1042  0.0961  0.1704
  225loPI   C3B 3599  15.648   1.928   8.528 -0.0564  0.2890  0.0324
  225loPI   C4B 3600  15.714   1.774   8.170  0.2266  0.0560 -0.3684
  226loPI    C1 3601  16.503   9.516   9.675  0.1683  0.1854 -0.0000
  226loPI    C2 3602  16.561   9.520  10.071  0.0398 -0.2128  0.0277
  226loPI    C3 3603  16.861   9.614   9.823  0.0898  0.1480  0.2182
  226loPI   PO4 3604  16.409   9.261   9.555  0.1874  0.2705  0.5755
  226loPI   GL1 3605  16.433   9.184   9.129 -0.1720 -0.2824 -0.0713
  226loPI   GL2 3606  16.080   9.099   9.103  0.2331 -0.4166 -0.1190
  226loPI   C1A 3607  16.452   9.465   8.722 -0.2240  0.1596 -0.3950
  226loPI   C2A 3608  16.749   9.774   8.576  0.0417  0.1403  0.0817
  226loPI   C3A 3609  16.840   9.862   8.094 -0.0293 -0.2017 -0.3580
  226loPI   C4A 3610  17.018   9.718   7.706  0.0366 -0.2988 -0.0620
  226loPI   C5A 3611  17.159   9.320   7.535  0.2145  0.1203  0.0499
  226loPI   C6A 3612  17.399   8.932   7.441 -0.0239 -0.0688  0.0363
  226loPI   C1B 3613  16.151   9.065   8.691  0.0170 -0.1034  0.2786
  226loPI   C2B 3614  16.333   8.914   8.238  0.1066  0.0472 -0.0140
  226loPI   C3B 3615  16.659   8.870   7.967 -0.0722 -0.0928  0.2349
  226loPI   C4B 3616  17.044   8.741   7.782 -0.1350 -0.1760  0.1464
  227loPI    C1 3617   1.970  10.462   9.726 -0.0745  0.1612 -0.0002
  227loPI    C2 3618   1.935  10.704  10.042 -0.0272  0.0823  0.0661
  227loPI    C3 3619   1.946  10.308  10.095 -0.1484  0.0636 -0.0453
  227loPI   PO4 3620   1.802  10.619   9.505 -0.0891 -0.2318  0.1431
  227loPI   GL1 3621   1.820  10.392   9.128  0.4647 -0.0817 -0.0345
  227loPI   GL2 3622   1.916  10.111   8.979  0.1061 -0.2888 -0.3595
  227loPI   C1A 3623   1.721  10.533   8.727  0.1527 -0.3257  0.0002
  227loPI   C2A 3624   1.473  10.513   8.338  0.3324 -0.0789 -0.1717
  227loPI   C3A 3625   1.450  10.494   7.936 -0.0584  0.0030 -0.0202
  227loPI   C4A 3626   1.262  10.706   7.566 -0.2353  0.1597  0.0794
  227loPI   C5A 3627   0.871  10.912   7.539 -0.2184 -0.1059 -0.2482
  227loPI   C6A 3628   0.519  11.081   7.637 -0.0011  0.3764  0.1978
  227loPI   C1B 3629   1.984  10.103   8.582  0.1519 -0.0035 -0.1707
  227loPI   C2B 3630   1.869  10.231   8.241  0.4730 -0.0397  0.0203
  227loPI   C3B 3631   1.777  10.212   7.745  0.0713 -0.1691  0.0879
  227loPI   C4B 3632   1.607  10.375   7.377 -0.1278  0.1328  0.0393
  228loPI    C1 3633  16.018  18.822  10.626 -0.0762  0.2994 -0.3733
  228loPI    C2 3634  15.636  18.706  10.647  0.0315 -0.0329 -0.1551
  228loPI    C3 3635  15.750  19.052  10.813 -0.0887 -0.1622  0.2056
  228loPI   PO4 3636  16.142  18.752  10.445 -0.1257  0.1305 -0.2643
  228loPI   GL1 3637  16.121  18.775   9.987 -0.2592 -0.1626  0.1059
  228loPI   GL2 3638  16.260  18.445  10.040  0.1771 -0.2425 -0.1082
  228loPI   C1A 3639  16.257  18.920   9.538  0.2872  0.2205 -0.1821
  228loPI   C2A 3640  16.039  19.127   9.098 -0.1735  0.1512 -0.2914
  228loPI   C3A 3641  16.036  19.081   8.656  0.2964  0.0092  0.2773
  228loPI   C4A 3642  15.969  19.063   8.200 -0.1818 -0.0789  0.0537
  228loPI   C5A 3643  15.693  19.127   7.781 -0.1729 -0.1275  0.0267
  228loPI   C6A 3644  15.589  18.919   7.361 -0.2656 -0.2443 -0.2504
  228loPI   C1B 3645  16.114  18.438   9.584  0.1305 -0.2124 -0.1293
  228loPI   C2B 3646  16.271  18.538   9.095 -0.2958  0.1383 -0.0319
  228loPI   C3B 3647  16.170  18.542   8.647 -0.2851  0.0144 -0.1841
  228loPI   C4B 3648  15.905  18.588   8.264 -0.2364  0.1853  0.0486
  229loPI    C1 3649   7.445   8.623   9.535 -0.1263  0.0422  0.0969
  229loPI    C2 3650   7.595   8.537   9.896 -0.1954  0.2706  0.1817
  229loPI    C3 3651   7.224   8.422   9.801 -0.1136  0.0552  0.1174
  229loPI   PO4 3652   7.598   8.730   9.424 -0.0315 -0.1174  0.0190
  229loPI   GL1 3653   7.570   8.721   8.977  0.1815 -0.0344  0.0439
  229loPI   GL2 3654   7.528   9.080   8.886 -0.0461 -0.1070 -0.1525
  229loPI   C1A 3655   7.782   8.750   8.622 -0.2439  0.2371 -0.1488
  229loPI   C2A 3656   7.991   8.669   8.207 -0.0077 -0.0879 -0.0173
  229loPI   C3A 3657   8.010   8.872   7.784  0.0693  0.0047 -0.1425
  229loPI   C4A 3658   7.940   8.839   7.336  0.0429  0.0343 -0.0647
  229loPI   C5A 3659   7.864   8.919   6.913 -0.0250  0.0196 -0.0066
  229loPI   C6A 3660   7.962   8.535   6.595  0.0841 -0.0961 -0.1008
  229loPI   C1B 3661   7.334   8.992   8.473 -0.0830  0.1980 -0.0213
  229loPI   C2B 3662   7.044   9.190   8.028 -0.0594  0.0823 -0.4060
  229loPI   C3B 3663   6.887   9.370   7.723 -0.0806 -0.1268  0.1947
  229loPI   C4B 3664   6.778   9.480   7.193 -0.1223 -0.0081  0.1029
  230loPI    C1 3665  13.937   8.755   9.550 -0.0900 -0.1955  0.1729
  230loPI    C2 3666  14.125   8.403   9.564 -0.2776 -0.2919  0.3177
  230loPI    C3 3667  14.128   8.644   9.883 -0.1516 -0.1618  0.2196
  230loPI   PO4 3668  13.806   8.736   9.338  0.1002  0.0562  0.0613
  230loPI   GL1 3669  13.655   8.839   9.020  0.1515  0.0393 -0.0753
  230loPI   GL2 3670  13.413   8.563   9.058 -0.3005  0.1614 -0.2729
  230loPI   C1A 3671  13.833   9.088   8.665  0.0025 -0.0684  0.1371
  230loPI   C2A 3672  13.902   9.150   8.256  0.2110 -0.0933 -0.2655
  230loPI   C3A 3673  14.168   9.360   7.936 -0.2271  0.5080 -0.0939
  230loPI   C4A 3674  14.106   9.516   7.575 -0.0569  0.1409 -0.1423
  230loPI   C5A 3675  14.085   9.905   7.378 -0.2288 -0.0133  0.0169
  230loPI   C6A 3676  14.407  10.181   7.041 -0.0298  0.0305  0.0162
  230loPI   C1B 3677  13.230   8.830   8.769  0.6962  0.0773 -0.0632
  230loPI   C2B 3678  12.989   8.887   8.421  0.1524 -0.0714 -0.0125
  230loPI   C3B 3679  13.116   8.811   8.023  0.0375  0.1739 -0.0114
  230loPI   C4B 3680  13.514   8.805   7.817 -0.1549 -0.0248  0.0073
  231loPI    C1 3681  10.615  15.521   9.981 -0.2839  0.4073 -0.1392
  231loPI    C2 3682  10.637  15.683  10.345  0.0781 -0.2391  0.1445
  231loPI    C3 3683  10.281  15.596  10.187 -0.0818  0.0249  0.3487
  231loPI   PO4 3684  10.701  15.635   9.838 -0.3854 -0.2415 -0.1287
  231loPI   GL1 3685  10.414  15.686   9.484 -0.0558 -0.1174 -0.2333
  231loPI   GL2 3686  10.201  15.843   9.739 -0.3078 -0.0410  0.3394
  231loPI   C1A 3687  10.822  15.498   9.220  0.2146  0.0673  0.1215
  231loPI   C2A 3688  11.166  15.583   8.878  0.0219 -0.1840  0.0583
  231loPI   C3A 3689  11.354  15.605   8.482  0.1599 -0.0569 -0.4245
  231loPI   C4A 3690  11.510  15.519   8.082  0.0469 -0.1358 -0.0425
  231loPI   C5A 3691  11.716  15.320   7.831 -0.1960 -0.1213  0.2270
  231loPI   C6A 3692  11.703  14.945   7.579 -0.2448  0.3636  0.1884
  231loPI   C1B 3693  10.189  16.163   9.455 -0.0574 -0.1049 -0.0521
  231loPI   C2B 3694  10.326  16.126   9.044  0.0355 -0.2134 -0.1648
  231loPI   C3B 3695  10.404  16.116   8.584  0.1476 -0.0611 -0.5361
  231loPI   C4B 3696  10.398  16.051   8.096  0.1137 -0.1061  0.0517
  232loPI    C1 3697  13.805  14.685  10.648  0.0999  0.1364  0.0841
  232loPI    C2 3698  14.069  14.402  10.749  0.0133 -0.0145 -0.1054
  232loPI    C3 3699  14.191  14.779  10.694  0.0938  0.0349  0.3659
  232loPI   PO4 3700  13.587  14.521  10.365 -0.1510  0.3796 -0.0850
  232loPI   GL1 3701  13.621  14.449   9.879 -0.0540 -0.2117 -0.0424
  232loPI   GL2 3702  13.418  14.289   9.679  0.5339 -0.3771  0.3829
  232loPI   C1A 3703  13.499  14.720   9.578 -0.1581 -0.0016 -0.3168
  232loPI   C2A 3704  13.387  14.696   9.112  0.0048 -0.2021 -0.0335
  232loPI   C3A 3705  13.335  14.744   8.657  0.4014  0.0530  0.3616
  232loPI   C4A 3706  13.441  14.805   8.236 -0.0682  0.0742 -0.1421
  232loPI   C5A 3707  13.515  14.747   7.847 -0.0048 -0.1576  0.1117
  232loPI   C6A 3708  13.909  14.687   7.677 -0.2937 -0.1768  0.0100
  232loPI   C1B 3709  13.760  14.368   9.326  0.0484  0.2190 -0.1566
  232loPI   C2B 3710  13.930  14.541   8.925 -0.2120  0.0024  0.1493
  232loPI   C3B 3711  13.929  14.714   8.523  0.1243  0.0001 -0.1591
  232loPI   C4B 3712  13.954  14.869   8.116 -0.0877  0.0898  0.2497
  233loPI    C1 3713   8.422   3.060   9.511  0.1962  0.1812 -0.1713
  233loPI    C2 3714   8.547   3.316   9.791 -0.0732  0.2096 -0.0738
  233loPI    C3 3715   8.199   3.124   9.837  0.1812 -0.2700 -0.0861
  233loPI   PO4 3716   8.544   3.112   9.306  0.1373  0.1516 -0.4069
  233loPI   GL1 3717   8.671   3.325   8.902 -0.1193 -0.1027  0.2592
  233loPI   GL2 3718   8.931   3.508   8.868 -0.0074  0.1670 -0.2361
  233loPI   C1A 3719   8.418   3.668   8.690 -0.1433  0.1636  0.1585
  233loPI   C2A 3720   8.251   3.630   8.336  0.0023  0.3399  0.0713
  233loPI   C3A 3721   8.359   3.651   7.921  0.0507  0.0488  0.1098
  233loPI   C4A 3722   8.467   3.540   7.523  0.0231 -0.1864  0.0829
  233loPI   C5A 3723   8.662   3.742   7.155 -0.0312 -0.0467  0.1843
  233loPI   C6A 3724   8.891   3.996   6.898  0.2099 -0.1412 -0.1513
  233loPI   C1B 3725   8.715   3.361   8.364 -0.1623 -0.2242  0.3601
  233loPI   C2B 3726   8.855   3.472   7.975  0.0367  0.0026 -0.4004
  233loPI   C3B 3727   9.025   3.651   7.549 -0.2376 -0.0917  0.0538
  233loPI   C4B 3728   9.198   3.704   7.230  0.1435  0.0751  0.2314
  234loPI    C1 3729   1.916  14.158   9.838  0.0635 -0.0279  0.0133
  234loPI    C2 3730   2.242  14.167  10.070 -0.0219 -0.0354  0.1340
  234loPI    C3 3731   1.912  14.364  10.180 -0.0778 -0.0764  0.0412
  234loPI   PO4 3732   1.942  14.254   9.600  0.1891  0.2697 -0.0334
  234loPI   GL1 3733   2.003  14.397   9.193  0.0943  0.1176 -0.2581
  234loPI   GL2 3734   2.221  14.169   9.076 -0.4267 -0.0020 -0.2959
  234loPI   C1A 3735   2.047  14.453   8.728 -0.1443 -0.0769 -0.1089
  234loPI   C2A 3736   2.504  14.510   8.515 -0.2090  0.1388  0.1165
  234loPI   C3A 3737   2.695  14.349   8.004 -0.1258  0.0846 -0.2358
  234loPI   C4A 3738   2.608  14.228   7.524 -0.4125  0.2795  0.2581
  234loPI   C5A 3739   2.578  14.351   7.171 -0.1476 -0.1326 -0.2128
  234loPI   C6A 3740   2.913  14.460   6.897 -0.0048 -0.0128 -0.3757
  234loPI   C1B 3741   2.322  14.041   8.679 -0.2263  0.2839  0.0164
  234loPI   C2B 3742   2.451  13.978   8.256  0.1023  0.3583 -0.0171
  234loPI   C3B 3743   2.399  13.915   7.900 -0.1892  0.1334  0.1607
  234loPI   C4B 3744   2.711  13.700   7.618 -0.0410  0.1276 -0.0677
  235loPI    C1 3745  10.830   4.900  10.100  0.1583 -0.2038  0.0688
  235loPI    C2 3746  10.685   4.545  10.214 -0.0185 -0.2125 -0.1745
  235loPI    C3 3747  11.007   4.697  10.395 -0.1738 -0.3150  0.1968
  235loPI   PO4 3748  10.826   4.813   9.815 -0.1070  0.1706 -0.1546
  235loPI   GL1 3749  10.901   4.880   9.313 -0.0309 -0.0340  0.0647
  235loPI   GL2 3750  10.759   5.158   9.148  0.0268 -0.2400  0.0439
  235loPI   C1A 3751  11.045   4.865   8.854 -0.0541 -0.1315 -0.0680
  235loPI   C2A 3752  11.130   4.958   8.418  0.0314 -0.1299  0.0071
  235loPI   C3A 3753  11.005   5.134   8.030  0.3154 -0.0517  0.1556
  235loPI   C4A 3754  11.117   5.404   7.670 -0.2110 -0.0257  0.0907
  235loPI   C5A 3755  11.420   5.720   7.490 -0.0253  0.0468  0.0126
  235loPI   C6A 3756  11.408   5.998   7.159  0.1617 -0.1101 -0.1475
  235loPI   C1B 3757  10.696   5.307   8.660  0.1149  0.0200  0.1537
  235loPI   C2B 3758  10.886   5.584   8.359 -0.3168 -0.2517 -0.3503
  235loPI   C3B 3759  10.613   5.754   8.001 -0.1583 -0.0844  0.2925
  235loPI   C4B 3760  10.284   5.965   7.881 -0.1335 -0.1384  0.1877
  236loPI    C1 3761   7.259  13.592   9.594  0.0335  0.0303  0.2498
  236loPI    C2 3762   7.197  13.197   9.603 -0.4745  0.0899 -0.1406
  236loPI    C3 3763   7.183  13.409   9.941 -0.2669 -0.2119  0.0626
  236loPI   PO4 3764   7.399  13.616   9.370 -0.1588 -0.0023 -0.0717
  236loPI   GL1 3765   7.261  13.614   8.964 -0.0199 -0.2618 -0.1928
  236loPI   GL2 3766   7.338  13.292   8.949  0.1591  0.0358 -0.1624
  236loPI   C1A 3767   7.030  13.432   8.496 -0.0941 -0.0111 -0.0867
  236loPI   C2A 3768   6.846  13.412   8.151 -0.1677  0.1545  0.0389
  236loPI   C3A 3769   6.669  13.574   7.815 -0.0371  0.1683 -0.0315
  236loPI   C4A 3770   6.509  13.352   7.523  0.0984  0.1131 -0.1287
  236loPI   C5A 3771   6.380  13.078   7.241  0.2663 -0.0976 -0.0604
  236loPI   C6A 3772   6.375  12.726   7.321  0.4233 -0.3786  0.0023
  236loPI   C1B 3773   7.523  13.454   8.531 -0.0569 -0.2113  0.0151
  236loPI   C2B 3774   7.711  13.395   8.131 -0.2526  0.1013 -0.1541
  236loPI   C3B 3775   7.882  13.500   7.701  0.1578 -0.0803  0.2348
  236loPI   C4B 3776   8.144  13.426   7.393  0.1370  0.0719 -0.0741
  237loPI    C1 3777  13.380  16.014  10.799 -0.1447  0.1098 -0.0781
  237loPI    C2 3778  13.484  16.395  10.739  0.4277 -0.0332 -0.0539
  237loPI    C3 3779  13.386  16.270  11.106 -0.0930  0.1578 -0.1192
  237loPI   PO4 3780  13.308  15.955  10.568  0.3360 -0.1129  0.0778
  237loPI   GL1 3781  13.022  15.927  10.165  0.1490 -0.0288  0.0341
  237loPI   GL2 3782  12.798  15.746  10.157 -0.3151 -0.2641  0.0850
  237loPI   C1A 3783  13.107  16.100   9.847 -0.1774  0.0314 -0.0400
  237loPI   C2A 3784  13.307  16.503   9.796 -0.1888 -0.0857  0.1460
  237loPI   C3A 3785  13.219  16.881   9.603  0.0998  0.0246  0.2041
  237loPI   C4A 3786  12.999  17.007   9.099  0.1814  0.0199 -0.3166
  237loPI   C5A 3787  12.863  16.993   8.732 -0.0940  0.1526 -0.2830
  237loPI   C6A 3788  12.829  17.152   8.361  0.1882 -0.2597  0.1639
  237loPI   C1B 3789  12.866  15.567   9.803 -0.1877  0.1562 -0.3270
  237loPI   C2B 3790  12.893  15.721   9.405  0.1074  0.1449 -0.1752
  237loPI   C3B 3791  12.904  15.653   8.978 -0.1684 -0.1604 -0.0358
  237loPI   C4B 3792  12.883  15.787   8.552  0.1080  0.0527  0.0826
  238loPI    C1 3793   2.695   2.999   9.911 -0.0341  0.4615 -0.2513
  238loPI    C2 3794   2.648   3.191  10.259 -0.3215  0.3637 -0.2330
  238loPI    C3 3795   2.479   2.833  10.204  0.0347  0.2073 -0.3417
  238loPI   PO4 3796   2.791   3.247   9.763  0.1780  0.2620 -0.1473
  238loPI   GL1 3797   2.915   3.198   9.413  0.2882  0.0134 -0.1288
  238loPI   GL2 3798   2.974   3.259   9.256  0.0550 -0.1986  0.0103
  238loPI   C1A 3799   3.042   2.785   9.146  0.0235  0.0182 -0.0411
  238loPI   C2A 3800   3.003   2.558   8.845  0.0519 -0.0201 -0.1565
  238loPI   C3A 3801   3.025   2.523   8.343  0.3427  0.2549 -0.2193
  238loPI   C4A 3802   2.834   2.305   8.108 -0.0765  0.0565  0.0361
  238loPI   C5A 3803   2.773   2.565   7.737  0.2415  0.1207  0.0620
  238loPI   C6A 3804   2.677   2.688   7.436 -0.1394  0.1797  0.2515
  238loPI   C1B 3805   2.987   3.231   8.799  0.0218  0.2799  0.1855
  238loPI   C2B 3806   2.917   3.010   8.522  0.1436  0.0917  0.2084
  238loPI   C3B 3807   2.850   3.102   8.092  0.0870 -0.1796 -0.2222
  238loPI   C4B 3808   2.867   3.072   7.685 -0.1669  0.3000  0.0127
  239loPI    C1 3809   9.750  18.368  10.268  0.2314 -0.0632 -0.0104
  239loPI    C2 3810   9.625  18.379  10.648  0.1110 -0.4747 -0.0327
  239loPI    C3 3811  10.002  18.479  10.559  0.0268  0.0251  0.1359
  239loPI   PO4 3812   9.491  18.209  10.189 -0.1656 -0.2559 -0.1457
  239loPI   GL1 3813   9.437  17.900   9.847 -0.0192 -0.1363  0.0764
  239loPI   GL2 3814   9.476  18.164   9.653  0.1501  0.0889 -0.1754
  239loPI   C1A 3815   9.084  17.753   9.616  0.0615 -0.0800 -0.1197
  239loPI   C2A 3816   9.141  17.532   9.284 -0.0800 -0.1991  0.0451
  239loPI   C3A 3817   9.063  17.301   8.918  0.1559  0.0939  0.1979
  239loPI   C4A 3818   9.168  17.352   8.481 -0.0166  0.0649 -0.2152
  239loPI   C5A 3819   9.259  17.458   8.012 -0.1721  0.3067  0.0078
  239loPI   C6A 3820   9.212  17.777   7.633  0.3459 -0.1141 -0.3493
  239loPI   C1B 3821   9.524  17.904   9.243  0.5177 -0.2908  0.0196
  239loPI   C2B 3822   9.386  17.672   8.843  0.0948 -0.0610 -0.1744
  239loPI   C3B 3823   9.635  17.821   8.501 -0.0161 -0.0905  0.0921
  239loPI   C4B 3824   9.847  18.062   8.129  0.2943  0.1069  0.1641
  240loPI    C1 3825   7.268   6.463   9.586 -0.1309  0.2834  0.0224
  240loPI    C2 3826   7.527   6.726   9.741  0.0673  0.1205 -0.0272
  240loPI    C3 3827   7.515   6.351   9.880  0.0240  0.0611 -0.1886
  240loPI   PO4 3828   7.304   6.476   9.333 -0.2441 -0.2792  0.1396
  240loPI   GL1 3829   7.563   6.597   9.086 -0.0905  0.0312  0.1920
  240loPI   GL2 3830   7.615   6.214   8.943 -0.4077 -0.4688 -0.0212
  240loPI   C1A 3831   7.347   6.595   8.686 -0.0516  0.0873 -0.0057
  240loPI   C2A 3832   7.386   6.488   8.382  0.0042  0.2631  0.2721
  240loPI   C3A 3833   7.138   6.425   8.034  0.0565  0.2078 -0.1758
  240loPI   C4A 3834   7.116   6.528   7.697 -0.3775  0.0462 -0.0547
  240loPI   C5A 3835   6.969   6.798   7.324  0.0042  0.2116 -0.2500
  240loPI   C6A 3836   6.697   6.759   7.003 -0.0654 -0.1946 -0.2217
  240loPI   C1B 3837   7.516   6.043   8.593  0.2726  0.2437  0.0837
  240loPI   C2B 3838   7.257   6.013   8.331 -0.2542 -0.1261  0.0399
  240loPI   C3B 3839   7.069   5.946   7.957  0.1107 -0.2720 -0.0832
  240loPI   C4B 3840   6.867   6.077   7.590 -0.4100 -0.0995 -0.2191
  241loPI    C1 3841  15.901   9.339   9.680  0.0180 -0.0422 -0.1664
  241loPI    C2 3842  15.729   9.139   9.980  0.0104 -0.1118 -0.2171
  241loPI    C3 3843  16.123   9.207   9.986 -0.0403  0.1868 -0.0222
  241loPI   PO4 3844  15.738   9.234   9.492  0.1439  0.6966 -0.2311
  241loPI   GL1 3845  15.336   9.325   9.353 -0.0728  0.3129  0.1567
  241loPI   GL2 3846  14.985   9.447   9.313 -0.0939 -0.0511 -0.2053
  241loPI   C1A 3847  15.304   9.141   8.992 -0.2765 -0.0288 -0.0163
  241loPI   C2A 3848  15.558   9.015   8.650  0.1728 -0.1914 -0.0042
  241loPI   C3A 3849  15.667   9.067   8.262 -0.0059 -0.3235 -0.0810
  241loPI   C4A 3850  15.675   9.062   7.737 -0.1037  0.0401  0.0270
  241loPI   C5A 3851  15.862   9.025   7.375 -0.1086 -0.0214  0.0054
  241loPI   C6A 3852  16.303   8.830   7.249 -0.0266  0.2463 -0.0121
  241loPI   C1B 3853  15.117   9.700   9.056 -0.1368  0.2672  0.2265
  241loPI   C2B 3854  14.995   9.855   8.604 -0.0246  0.1540 -0.1643
  241loPI   C3B 3855  14.958   9.730   8.103 -0.0303 -0.1941  0.0734
  241loPI   C4B 3856  15.183   9.755   7.654 -0.0455  0.3945 -0.0871
  242loPI    C1 3857   7.409   5.389   9.955 -0.0021 -0.0843  0.0470
  242loPI    C2 3858   7.444   5.787   9.932 -0.0040 -0.0863  0.0074
  242loPI    C3 3859   7.634   5.585  10.221 -0.1673 -0.0350  0.1517
  242loPI   PO4 3860   7.555   5.344   9.626  0.3109  0.1382  0.1450
  242loPI   GL1 3861   7.466   5.466   9.260  0.1456  0.3053  0.0075
  242loPI   GL2 3862   7.428   5.804   9.106  0.4073 -0.2761  0.0028
  242loPI   C1A 3863   7.257   5.372   8.884  0.1993  0.3179 -0.1169
  242loPI   C2A 3864   7.028   5.205   8.525 -0.0674  0.2597 -0.2217
  242loPI   C3A 3865   6.746   5.052   8.273 -0.0394 -0.4026  0.0020
  242loPI   C4A 3866   6.838   4.843   7.920 -0.0415  0.0154  0.1081
  242loPI   C5A 3867   6.871   4.813   7.423 -0.2584  0.1426  0.3228
  242loPI   C6A 3868   7.240   4.809   7.168 -0.2371  0.1225 -0.1180
  242loPI   C1B 3869   7.071   5.805   8.727 -0.1210 -0.2255 -0.1987
  242loPI   C2B 3870   6.919   5.685   8.382 -0.1769 -0.1415 -0.1015
  242loPI   C3B 3871   6.944   5.414   8.086 -0.2101  0.1879 -0.0388
  242loPI   C4B 3872   6.762   5.309   7.747 -0.2340 -0.1700 -0.3457
  243loPI    C1 3873   8.519  14.125   9.534 -0.1060 -0.0539 -0.0119
  243loPI    C2 3874   8.268  14.314   9.781  0.0363 -0.0702  0.1470
  243loPI    C3 3875   8.357  13.929   9.843 -0.2188 -0.1811 -0.1499
  243loPI   PO4 3876   8.649  14.304   9.475 -0.3939  0.2569  0.2823
  243loPI   GL1 3877   8.508  14.693   9.408  0.0501  0.1363 -0.1940
  243loPI   GL2 3878   8.473  14.805   9.612  0.0573 -0.1089 -0.0702
  243loPI   C1A 3879   8.397  14.641   9.052 -0.0164  0.0859  0.2177
  243loPI   C2A 3880   8.420  14.704   8.553  0.1774 -0.0651 -0.1424
  243loPI   C3A 3881   8.353  14.910   8.105 -0.1024 -0.0793 -0.3701
  243loPI   C4A 3882   8.406  15.001   7.697 -0.1209 -0.1767 -0.2137
  243loPI   C5A 3883   8.537  15.269   7.341 -0.1059 -0.2820 -0.1069
  243loPI   C6A 3884   8.701  15.134   6.920 -0.1143  0.0859  0.1267
  243loPI   C1B 3885   8.433  15.188   9.232  0.2571  0.2721 -0.2440
  243loPI   C2B 3886   8.473  15.195   8.828 -0.0129 -0.0804 -0.0204
  243loPI   C3B 3887   8.696  15.098   8.423  0.0672  0.0001 -0.1393
  243loPI   C4B 3888   8.741  15.296   8.056  0.0141 -0.0959  0.0310
  244loPI    C1 3889  17.742   8.063  10.173 -0.0442 -0.1902 -0.1774
  244loPI    C2 3890  17.683   7.681  10.278  0.0344 -0.1488  0.0220
  244loPI    C3 3891  18.052   7.837  10.287  0.0164 -0.0938 -0.1499
  244loPI   PO4 3892  17.696   8.196   9.964 -0.2026 -0.0387 -0.2150
  244loPI   GL1 3893  17.635   8.229   9.538 -0.0247  0.2686  0.1123
  244loPI   GL2 3894  17.245   8.204   9.553  0.0206  0.1228  0.0708
  244loPI   C1A 3895  17.843   8.475   9.207 -0.0274 -0.1222 -0.0962
  244loPI   C2A 3896  18.072   8.428   8.889  0.1419  0.0582 -0.1169
  244loPI   C3A 3897  17.950   8.526   8.510 -0.1444 -0.2980  0.1698
  244loPI   C4A 3898  18.130   8.891   8.363  0.1794 -0.1093 -0.0253
  244loPI   C5A 3899  18.272   8.915   7.986 -0.0534 -0.3625 -0.2271
  244loPI   C6A 3900  18.617   8.656   7.769 -0.2981 -0.0985 -0.0420
  244loPI   C1B 3901  17.236   8.392   9.174 -0.2722  0.1145  0.0788
  244loPI   C2B 3902  17.496   8.508   8.778  0.1739  0.0756  0.0220
  244loPI   C3B 3903  17.415   8.481   8.446  0.1342 -0.3018  0.0298
  244loPI   C4B 3904  17.284   8.334   7.997  0.3767 -0.0226 -0.1326
  245loPI    C1 3905  11.151   6.124   9.818  0.1069  0.0542  0.0427
  245loPI    C2 3906  10.898   6.356  10.023  0.1242  0.0462  0.0732
  245loPI    C3 3907  11.191   6.162  10.214  0.1334  0.0297  0.0424
  245loPI   PO4 3908  11.296   6.280   9.660  0.3093  0.2910  0.1352
  245loPI   GL1 3909  11.409   6.344   9.232  0.0604 -0.0234  0.3654
  245loPI   GL2 3910  11.531   6.606   9.181 -0.2858 -0.0633 -0.0403
  245loPI   C1A 3911  11.330   6.394   8.741 -0.0956  0.1025 -0.0764
  245loPI   C2A 3912  11.199   6.382   8.346 -0.0442  0.1361  0.0225
  245loPI   C3A 3913  11.091   6.518   7.882 -0.1572  0.2658 -0.0933
  245loPI   C4A 3914  11.043   6.522   7.432  0.0949 -0.0408 -0.1128
  245loPI   C5A 3915  11.204   6.384   7.079  0.0675  0.1002 -0.0768
  245loPI   C6A 3916  11.346   6.231   6.706 -0.0430 -0.0539 -0.0939
  245loPI   C1B 3917  11.482   6.842   8.788  0.0160 -0.1387  0.1125
  245loPI   C2B 3918  11.492   6.811   8.280 -0.0230  0.1151  0.0061
  245loPI   C3B 3919  11.552   6.827   7.862 -0.0587  0.0444 -0.3351
  245loPI   C4B 3920  11.402   6.884   7.508  0.3894  0.3380  0.0145
  246loPI    C1 3921  18.394  14.282   9.956  0.1218 -0.0171  0.2153
  246loPI    C2 3922  18.463  14.350   9.568 -0.0666 -0.1952  0.1482
  246loPI    C3 3923  18.741  14.170   9.792 -0.0661 -0.3451  0.0290
  246loPI   PO4 3924  18.164  14.092   9.907  0.1531 -0.1819 -0.0685
  246loPI   GL1 3925  17.988  14.014   9.578  0.0557  0.1064 -0.0785
  246loPI   GL2 3926  18.015  14.344   9.357 -0.3202 -0.0320  0.0336
  246loPI   C1A 3927  17.907  13.755   9.183 -0.1958  0.0665 -0.1485
  246loPI   C2A 3928  18.091  13.829   8.751 -0.1357  0.2221  0.1638
  246loPI   C3A 3929  18.303  14.138   8.437 -0.0859 -0.1223  0.1223
  246loPI   C4A 3930  18.248  14.181   8.068  0.0229 -0.1130  0.1493
  246loPI   C5A 3931  18.152  14.242   7.547 -0.1168 -0.0222 -0.2468
  246loPI   C6A 3932  18.141  14.462   7.234 -0.0880 -0.0606  0.3625
  246loPI   C1B 3933  18.030  14.352   8.893  0.2093 -0.2254  0.1836
  246loPI   C2B 3934  17.881  14.504   8.462  0.1394  0.0258 -0.1166
  246loPI   C3B 3935  17.949  14.687   8.063  0.2825 -0.0736 -0.1319
  246loPI   C4B 3936  17.815  15.130   7.908 -0.1550 -0.0760 -0.1257
  247loPI    C1 3937   3.380   4.953   9.836  0.2185 -0.0489 -0.0717
  247loPI    C2 3938   3.285   5.221  10.117  0.0341 -0.0738 -0.1094
  247loPI    C3 3939   3.483   4.888  10.217 -0.0186 -0.0759 -0.0109
  247loPI   PO4 3940   3.529   5.041   9.675  0.0535 -0.1473 -0.2194
  247loPI   GL1 3941   3.686   4.830   9.324  0.1404  0.1988  0.0442
  247loPI   GL2 3942   3.819   5.148   9.299 -0.0226  0.0722  0.1692
  247loPI   C1A 3943   3.869   4.744   8.934 -0.0652  0.1715  0.1920
  247loPI   C2A 3944   3.867   4.753   8.476 -0.3006 -0.0957 -0.0920
  247loPI   C3A 3945   3.849   4.811   8.008  0.3278 -0.0504  0.1688
  247loPI   C4A 3946   3.782   4.693   7.684  0.5942 -0.1493 -0.1926
  247loPI   C5A 3947   3.865   4.518   7.235 -0.1954 -0.1700 -0.4477
  247loPI   C6A 3948   4.265   4.304   7.112  0.2001  0.1130  0.0507
  247loPI   C1B 3949   3.893   5.367   8.886  0.0906 -0.1497  0.0461
  247loPI   C2B 3950   3.819   5.266   8.441  0.0141  0.1623  0.0963
  247loPI   C3B 3951   3.686   5.332   7.962 -0.1692  0.1460  0.2111
  247loPI   C4B 3952   3.604   5.514   7.501  0.2447  0.0286 -0.3148
  248loPI    C1 3953   8.065  17.129  10.140  0.0017 -0.0789  0.0547
  248loPI    C2 3954   8.459  17.196  10.113 -0.0025 -0.0148  0.1499
  248loPI    C3 3955   8.293  17.118  10.469 -0.0901  0.0485  0.1233
  248loPI   PO4 3956   7.976  17.218   9.916  0.0599  0.1737  0.1464
  248loPI   GL1 3957   7.912  17.371   9.461  0.0359 -0.0731  0.2203
  248loPI   GL2 3958   7.929  17.046   9.402 -0.3421 -0.1095 -0.0070
  248loPI   C1A 3959   8.204  17.614   9.180 -0.1164  0.1186  0.0039
  248loPI   C2A 3960   8.286  17.791   8.789  0.0401  0.1751  0.0132
  248loPI   C3A 3961   8.457  17.956   8.445 -0.1747  0.1483  0.2694
  248loPI   C4A 3962   8.528  18.235   8.143 -0.2379  0.1355  0.1040
  248loPI   C5A 3963   8.316  18.246   7.768  0.0136  0.0209 -0.3360
  248loPI   C6A 3964   7.945  18.080   7.678  0.2025 -0.1004  0.3570
  248loPI   C1B 3965   7.909  17.221   8.984  0.3710  0.1654  0.3420
  248loPI   C2B 3966   7.853  17.475   8.662  0.0350  0.2992  0.2732
  248loPI   C3B 3967   7.764  17.649   8.292 -0.1174 -0.1175 -0.3369
  248loPI   C4B 3968   8.029  18.017   8.166 -0.0267  0.0764  0.0493
  249loPI    C1 3969   5.165   3.222   9.625 -0.1881  0.0256  0.0997
  249loPI    C2 3970   5.007   3.436   9.923 -0.2699  0.1494 -0.0309
  249loPI    C3 3971   5.186   3.087  10.000 -0.2233  0.2168  0.1716
  249loPI   PO4 3972   5.302   3.399   9.423 -0.0756 -0.0904  0.0362
  249loPI   GL1 3973   5.454   3.771   9.243  0.2308  0.1274  0.0857
  249loPI   GL2 3974   5.174   3.753   9.065  0.1196  0.1529  0.3133
  249loPI   C1A 3975   5.606   3.717   8.905  0.3216 -0.0209  0.1514
  249loPI   C2A 3976   5.708   3.772   8.442 -0.0636 -0.0886  0.2620
  249loPI   C3A 3977   5.976   3.687   8.057  0.2071  0.1224 -0.1448
  249loPI   C4A 3978   6.210   3.682   7.655  0.0361  0.2829 -0.0016
  249loPI   C5A 3979   6.466   3.901   7.392 -0.1084  0.3380 -0.1254
  249loPI   C6A 3980   6.761   3.685   7.175  0.0432 -0.0118  0.0921
  249loPI   C1B 3981   5.204   3.719   8.572  0.1716  0.0215 -0.1274
  249loPI   C2B 3982   5.149   3.462   8.281  0.2994  0.1629  0.2135
  249loPI   C3B 3983   5.164   3.186   7.879 -0.0824 -0.2290 -0.3463
  249loPI   C4B 3984   5.140   3.356   7.432 -0.1543 -0.5227  0.0065
  250loPI    C1 3985  17.595   9.650  10.182 -0.0153 -0.0117 -0.0718
  250loPI    C2 3986  17.510   9.291  10.336 -0.0210 -0.0450 -0.1515
  250loPI    C3 3987  17.731   9.552  10.545 -0.2475  0.0106  0.0228
  250loPI   PO4 3988  17.353   9.671   9.963 -0.2982  0.0845  0.1937
  250loPI   GL1 3989  17.302   9.717   9.512  0.1606  0.0970 -0.1514
  250loPI   GL2 3990  17.021   9.857   9.419  0.1557  0.0304 -0.2720
  250loPI   C1A 3991  17.611   9.699   9.100 -0.1857 -0.0874  0.1444
  250loPI   C2A 3992  18.001   9.589   8.848 -0.0079  0.0413 -0.2180
  250loPI   C3A 3993  18.156   9.418   8.469 -0.2448 -0.1480 -0.1994
  250loPI   C4A 3994  18.426   9.370   8.139 -0.1357 -0.3330  0.4359
  250loPI   C5A 3995  18.488   9.311   7.729 -0.2137  0.0491 -0.1528
  250loPI   C6A 3996  18.493   9.470   7.402 -0.0818 -0.1210  0.2644
  250loPI   C1B 3997  17.086   9.834   9.049  0.1778 -0.1213  0.3012
  250loPI   C2B 3998  17.250   9.869   8.591  0.2748  0.0024  0.0616
  250loPI   C3B 3999  17.299   9.808   8.158 -0.1251 -0.0630  0.1630
  250loPI   C4B 4000  17.548   9.536   7.870 -0.1003  0.2249 -0.3995
  251loPI    C1 4001  12.387   0.457  10.549  0.1178  0.0361 -0.0338
  251loPI    C2 4002  12.355   0.112  10.749  0.0202  0.0286 -0.0621
  251loPI    C3 4003  12.309   0.460  10.941 -0.1527  0.0197 -0.0856
  251loPI   PO4 4004  12.307   0.357  10.265 -0.1862  0.3364  0.2421
  251loPI   GL1 4005  12.248   0.545   9.865 -0.5400  0.2060  0.1076
  251loPI   GL2 4006  12.382   0.821   9.743 -0.0990  0.0007 -0.1425
  251loPI   C1A 4007  12.036   0.435   9.527 -0.0615 -0.3334 -0.1506
  251loPI   C2A 4008  11.882   0.612   9.186  0.0860 -0.1010 -0.0849
  251loPI   C3A 4009  11.816   0.984   8.970 -0.0402  0.4196  0.1558
  251loPI   C4A 4010  11.990   0.951   8.504 -0.2243  0.2482  0.1348
  251loPI   C5A 4011  12.000   1.107   8.064  0.1588  0.2697 -0.0442
  251loPI   C6A 4012  12.118   1.156   7.644 -0.1171  0.0903  0.1244
  251loPI   C1B 4013  12.438   0.731   9.331  0.3377  0.0205  0.1033
  251loPI   C2B 4014  12.272   0.499   8.933  0.0713 -0.1268 -0.1241
  251loPI   C3B 4015  12.038   0.490   8.519  0.2247 -0.4850  0.5159
  251loPI   C4B 4016  11.650   0.698   8.200 -0.0624 -0.1080 -0.1102
  252loPI    C1 4017  11.750  10.446  10.030 -0.0306  0.0088  0.0075
  252loPI    C2 4018  11.548  10.301  10.343  0.2552  0.0125  0.1967
  252loPI    C3 4019  11.850  10.557  10.401  0.3147  0.0082 -0.0819
  252loPI   PO4 4020  11.552  10.564   9.860 -0.2530 -0.1582 -0.1931
  252loPI   GL1 4021  11.649  10.609   9.393  0.2073  0.0267 -0.0205
  252loPI   GL2 4022  11.934  10.641   9.403  0.1016 -0.0920  0.1508
  252loPI   C1A 4023  11.403  10.660   8.993  0.4088  0.0854  0.0169
  252loPI   C2A 4024  11.166  10.581   8.621 -0.0296 -0.0174  0.1362
  252loPI   C3A 4025  11.220  10.545   8.250  0.0661  0.3611  0.0815
  252loPI   C4A 4026  11.456  10.618   7.890  0.1539  0.0631  0.1672
  252loPI   C5A 4027  11.672  10.812   7.655 -0.2625 -0.1928 -0.0936
  252loPI   C6A 4028  11.963  10.994   7.282  0.1867 -0.1982  0.2031
  252loPI   C1B 4029  12.098  10.334   9.126  0.0911  0.2088  0.1466
  252loPI   C2B 4030  12.193  10.120   8.894 -0.1016 -0.0603  0.2473
  252loPI   C3B 4031  12.482   9.998   8.559  0.1274  0.1811  0.0047
  252loPI   C4B 4032  12.554   9.657   8.328 -0.0457  0.3002  0.3067
  253loPI    C1 4033  14.631  15.777  10.329 -0.2812 -0.3453 -0.0040
  253loPI    C2 4034  14.463  15.702  10.684  0.2111 -0.0028  0.3148
  253loPI    C3 4035  14.845  15.602  10.618  0.1738  0.0880 -0.0634
  253loPI   PO4 4036  14.576  15.689  10.153 -0.0032 -0.1214  0.2826
  253loPI   GL1 4037  14.713  15.821   9.765 -0.0294 -0.1022 -0.0723
  253loPI   GL2 4038  14.441  15.829   9.567 -0.2068  0.1697 -0.1687
  253loPI   C1A 4039  14.957  15.830   9.369 -0.0792 -0.2719  0.2832
  253loPI   C2A 4040  14.937  15.885   8.914  0.1742  0.1579 -0.2403
  253loPI   C3A 4041  14.810  15.754   8.450  0.2700 -0.4178  0.1762
  253loPI   C4A 4042  14.442  15.557   8.259 -0.1286  0.1392  0.4153
  253loPI   C5A 4043  14.184  15.341   8.121 -0.0143 -0.0543  0.2779
  253loPI   C6A 4044  13.967  15.224   7.762 -0.0542  0.1069  0.1261
  253loPI   C1B 4045  14.301  16.134   9.261 -0.2124 -0.0499 -0.0787
  253loPI   C2B 4046  14.043  16.497   9.181 -0.0561  0.0434 -0.0336
  253loPI   C3B 4047  13.788  16.509   8.882  0.0498  0.1020 -0.1592
  253loPI   C4B 4048  13.505  16.302   8.761  0.0932  0.1051 -0.1441
  254loPI    C1 4049  13.938   5.128   9.697 -0.0597  0.3712 -0.2016
  254loPI    C2 4050  13.723   5.326   9.970 -0.0244  0.0431  0.0711
  254loPI    C3 4051  14.016   5.080  10.086  0.2223  0.1622 -0.2805
  254loPI   PO4 4052  14.071   5.298   9.513  0.2968  0.0759  0.0407
  254loPI   GL1 4053  13.943   5.568   9.175  0.2399  0.0258 -0.0587
  254loPI   GL2 4054  13.741   5.749   8.982  0.1329 -0.2027  0.1449
  254loPI   C1A 4055  14.078   5.505   8.658 -0.2567  0.2107 -0.0559
  254loPI   C2A 4056  14.043   5.619   8.193  0.1882  0.1528 -0.3058
  254loPI   C3A 4057  13.977   5.622   7.748 -0.0163  0.0199 -0.2201
  254loPI   C4A 4058  13.656   5.354   7.601  0.2394  0.1318 -0.3057
  254loPI   C5A 4059  13.716   5.168   7.101 -0.1222 -0.0832  0.1213
  254loPI   C6A 4060  13.761   5.164   6.680 -0.0162  0.0302 -0.1898
  254loPI   C1B 4061  13.587   5.513   8.629  0.0502 -0.2307  0.1194
  254loPI   C2B 4062  13.352   5.286   8.338  0.0514  0.0801 -0.0572
  254loPI   C3B 4063  13.000   5.085   8.074  0.2567 -0.0270 -0.1555
  254loPI   C4B 4064  13.095   5.029   7.641  0.0455  0.1108  0.1834
  255loPI    C1 4065  15.166   6.757   9.957  0.2730 -0.1343  0.2410
  255loPI    C2 4066  14.889   6.858  10.227  0.0694  0.0336 -0.0255
  255loPI    C3 4067  15.135   6.551  10.299  0.0054  0.0623  0.3390
  255loPI   PO4 4068  15.062   6.726   9.708 -0.0133  0.1103  0.1518
  255loPI   GL1 4069  15.221   6.698   9.307  0.0207  0.1417 -0.1188
  255loPI   GL2 4070  15.110   6.409   9.154 -0.1338 -0.3018  0.2363
  255loPI   C1A 4071  15.426   6.727   8.909 -0.1787 -0.0293 -0.1157
  255loPI   C2A 4072  15.443   6.734   8.528 -0.3375  0.4292 -0.2257
  255loPI   C3A 4073  15.583   6.611   8.004  0.0674  0.2054 -0.2785
  255loPI   C4A 4074  15.503   6.672   7.560  0.1921 -0.1892 -0.1957
  255loPI   C5A 4075  15.484   6.690   7.125 -0.1202 -0.1303  0.3054
  255loPI   C6A 4076  15.211   6.569   6.739 -0.0432  0.0761 -0.1619
  255loPI   C1B 4077  15.067   6.284   8.731  0.1157 -0.3271 -0.1810
  255loPI   C2B 4078  15.246   6.255   8.266 -0.0559  0.3728 -0.0491
  255loPI   C3B 4079  15.283   6.258   7.818  0.0016  0.0886  0.2032
  255loPI   C4B 4080  15.077   6.236   7.473  0.1043 -0.2574 -0.0425
  256loPI    C1 4081   9.876  19.234  10.062 -0.2701 -0.3099  0.2296
  256loPI    C2 4082   9.670  19.576  10.029  0.0414 -0.1365  0.0279
  256loPI    C3 4083   9.581  19.316  10.319 -0.2738  0.0619  0.1140
  256loPI   PO4 4084   9.900  19.065   9.798  0.1918 -0.2980 -0.1646
  256loPI   GL1 4085   9.674  19.004   9.434  0.0069 -0.4872  0.0352
  256loPI   GL2 4086  10.005  19.208   9.217 -0.1970 -0.0274 -0.0438
  256loPI   C1A 4087   9.673  18.819   9.014  0.0219  0.2697  0.1678
  256loPI   C2A 4088   9.658  18.819   8.655 -0.3162  0.0276  0.2826
  256loPI   C3A 4089   9.733  19.068   8.273 -0.0652  0.2527 -0.0195
  256loPI   C4A 4090   9.528  19.029   7.931  0.2573 -0.0695 -0.4595
  256loPI   C5A 4091   9.517  18.672   7.687 -0.0502 -0.0886  0.2214
  256loPI   C6A 4092   9.309  18.388   7.360  0.0125 -0.3236  0.1126
  256loPI   C1B 4093  10.072  19.120   8.747  0.1288 -0.0633  0.2063
  256loPI   C2B 4094  10.342  18.978   8.275 -0.1377  0.1184  0.2448
  256loPI   C3B 4095  10.071  19.016   7.900 -0.2867  0.1241  0.1358
  256loPI   C4B 4096  10.069  18.777   7.509  0.0826 -0.2066  0.3791
  257loPI    C1 4097  10.596   2.157  10.129  0.0981  0.0426 -0.1491
  257loPI    C2 4098  10.317   2.255  10.399 -0.0188  0.0725 -0.2794
  257loPI    C3 4099  10.520   1.913  10.437  0.2177  0.2430  0.0421
  257loPI   PO4 4100  10.591   2.293   9.941 -0.2974 -0.0828  0.0018
  257loPI   GL1 4101  10.592   2.181   9.535 -0.1581 -0.1976  0.0738
  257loPI   GL2 4102  10.478   1.947   9.493  0.0054 -0.0021 -0.2404
  257loPI   C1A 4103  10.389   2.441   9.221 -0.1493 -0.0015  0.1207
  257loPI   C2A 4104  10.234   2.537   8.855  0.0382 -0.1692 -0.2254
  257loPI   C3A 4105   9.940   2.385   8.460  0.1214  0.2819  0.1918
  257loPI   C4A 4106   9.918   2.206   8.045 -0.3410  0.0951 -0.2572
  257loPI   C5A 4107   9.919   1.926   7.744 -0.2279  0.0104  0.2480
  257loPI   C6A 4108  10.199   1.718   7.413 -0.1415  0.0882  0.1980
  257loPI   C1B 4109  10.131   1.987   9.157  0.2029 -0.0985 -0.1012
  257loPI   C2B 4110  10.174   1.915   8.714  0.0479 -0.1078 -0.1550
  257loPI   C3B 4111  10.283   1.848   8.221  0.0996  0.2608  0.0407
  257loPI   C4B 4112  10.410   1.924   7.794 -0.1744  0.0483 -0.1069
  258loPI    C1 4113   1.600   3.175  10.080 -0.1040  0.2019 -0.1862
  258loPI    C2 4114   1.560   2.786   9.994 -0.0441  0.2183 -0.2903
  258loPI    C3 4115   1.391   2.936  10.324  0.1917  0.0417 -0.0856
  258loPI   PO4 4116   1.758   3.283   9.933  0.2838  0.5598 -0.1504
  258loPI   GL1 4117   1.774   2.923   9.551 -0.0405  0.0093 -0.0243
  258loPI   GL2 4118   1.648   3.221   9.399  0.0620 -0.2427  0.1856
  258loPI   C1A 4119   1.944   2.692   9.259 -0.3043  0.1463 -0.0009
  258loPI   C2A 4120   2.090   2.775   8.873 -0.0546  0.0763 -0.0416
  258loPI   C3A 4121   2.036   2.636   8.515 -0.0771  0.1403 -0.0727
  258loPI   C4A 4122   2.029   2.778   8.161 -0.3614  0.1234  0.3606
  258loPI   C5A 4123   1.837   2.843   7.809  0.3565  0.0087 -0.1574
  258loPI   C6A 4124   1.549   3.015   7.463  0.1625  0.0125  0.3571
  258loPI   C1B 4125   1.590   2.932   9.054 -0.2729 -0.1213 -0.0362
  258loPI   C2B 4126   1.463   2.944   8.654 -0.1591  0.0355  0.1142
  258loPI   C3B 4127   1.528   2.827   8.312 -0.3191 -0.2846 -0.1314
  258loPI   C4B 4128   1.371   3.004   7.946 -0.0768  0.1821  0.0846
  259loPI    C1 4129   4.391  10.676   9.622  0.1061 -0.0896 -0.1017
  259loPI    C2 4130   4.535  10.485   9.942 -0.1314 -0.0473  0.0329
  259loPI    C3 4131   4.778  10.577   9.638  0.1373  0.0761  0.2794
  259loPI   PO4 4132   4.162  10.554   9.528  0.2078  0.2106  0.2110
  259loPI   GL1 4133   3.807  10.564   9.446  0.1499 -0.0241 -0.1108
  259loPI   GL2 4134   3.420  10.539   9.375 -0.1040 -0.0671  0.1856
  259loPI   C1A 4135   3.608  10.619   8.978 -0.0719 -0.0625  0.1009
  259loPI   C2A 4136   3.456  10.618   8.666 -0.1481 -0.5716  0.1006
  259loPI   C3A 4137   3.416  10.507   8.241  0.0150 -0.0545  0.1620
  259loPI   C4A 4138   3.419  10.343   7.785  0.0424 -0.3192 -0.0074
  259loPI   C5A 4139   3.228   9.981   7.569  0.2271 -0.0082 -0.0857
  259loPI   C6A 4140   2.786   9.708   7.627 -0.1233  0.1491 -0.0142
  259loPI   C1B 4141   3.055  10.440   9.058  0.3949 -0.0171 -0.0069
  259loPI   C2B 4142   2.926  10.292   8.691  0.2718  0.0270 -0.0041
  259loPI   C3B 4143   3.029  10.153   8.258 -0.3421  0.2207 -0.0330
  259loPI   C4B 4144   2.804  10.051   7.952  0.0017 -0.0578 -0.1968
  260loPI    C1 4145   2.795  18.963  10.130  0.1350 -0.0018  0.0262
  260loPI    C2 4146   2.443  18.903  10.311  0.2009 -0.0341  0.1447
  260loPI    C3 4147   2.779  18.758  10.473  0.2596 -0.0736 -0.0103
  260loPI   PO4 4148   2.661  19.100   9.833 -0.0549 -0.1074  0.0033
  260loPI   GL1 4149   2.558  19.218   9.427  0.1121  0.1374 -0.1815
  260loPI   GL2 4150   2.307  19.475   9.549 -0.0891  0.0020  0.2274
  260loPI   C1A 4151   2.083  19.062   9.308 -0.5018  0.4654  0.2058
  260loPI   C2A 4152   1.794  19.177   9.094  0.1710  0.2330 -0.0922
  260loPI   C3A 4153   1.712  19.247   8.646  0.2587  0.1149  0.0989
  260loPI   C4A 4154   1.674  19.223   8.195 -0.4299  0.2706 -0.0517
  260loPI   C5A 4155   1.643  19.176   7.787 -0.2375 -0.0273 -0.0264
  260loPI   C6A 4156   1.409  18.952   7.443 -0.0843 -0.0507  0.2051
  260loPI   C1B 4157   2.367  19.399   9.061  0.0924  0.0653 -0.2944
  260loPI   C2B 4158   2.170  19.369   8.775 -0.2361  0.2219  0.1706
  260loPI   C3B 4159   2.128  19.400   8.343  0.0105  0.0894 -0.0602
  260loPI   C4B 4160   2.250  19.466   7.938  0.1506 -0.2016 -0.0452
  261loPI    C1 4161   8.347   0.339  10.071  0.2131  0.0818  0.0845
  261loPI    C2 4162   8.715   0.191  10.021 -0.0049 -0.3935 -0.1722
  261loPI    C3 4163   8.564   0.231  10.389  0.2654 -0.2835 -0.0709
  261loPI   PO4 4164   8.216   0.211   9.855 -0.0050 -0.1072 -0.3086
  261loPI   GL1 4165   8.418  -0.014   9.608 -0.0598  0.1725  0.1193
  261loPI   GL2 4166   8.196  -0.308   9.524  0.1341 -0.0130  0.0351
  261loPI   C1A 4167   8.237   0.125   9.194  0.2521  0.0767  0.2464
  261loPI   C2A 4168   8.435   0.208   8.816  0.0801  0.0313  0.1521
  261loPI   C3A 4169   8.383   0.331   8.293  0.1153  0.2845 -0.1970
  261loPI   C4A 4170   8.278   0.313   7.915  0.2361 -0.0793  0.0467
  261loPI   C5A 4171   7.981   0.359   7.662 -0.0987 -0.1131  0.0796
  261loPI   C6A 4172   7.851   0.782   7.499 -0.0278 -0.0452 -0.1151
  261loPI   C1B 4173   8.322  -0.318   9.070 -0.0983  0.0635  0.0249
  261loPI   C2B 4174   8.329  -0.477   8.652  0.1938  0.0035  0.1080
  261loPI   C3B 4175   8.529  -0.522   8.311 -0.3433 -0.0784 -0.3958
  261loPI   C4B 4176   8.656  -0.604   7.958 -0.0617 -0.0518 -0.1198
  262loPI    C1 4177  13.275  10.195   9.393  0.1047 -0.1107 -0.0192
  262loPI    C2 4178  13.229   9.946   9.703  0.0092  0.3980  0.3891
  262loPI    C3 4179  12.915  10.041   9.474  0.0975 -0.0480  0.0700
  262loPI   PO4 4180  13.548  10.105   9.334  0.2323 -0.0155  0.0520
  262loPI   GL1 4181  13.810  10.003   8.960 -0.1689  0.0520  0.2125
  262loPI   GL2 4182  14.158  10.070   8.851  0.2586 -0.1546  0.3302
  262loPI   C1A 4183  13.716  10.062   8.525  0.0219  0.1812  0.0584
  262loPI   C2A 4184  13.488  10.207   8.267 -0.0706  0.0712 -0.1561
  262loPI   C3A 4185  13.199  10.193   7.978 -0.3338 -0.3227  0.1580
  262loPI   C4A 4186  13.056  10.304   7.545  0.0273  0.0792  0.3589
  262loPI   C5A 4187  12.904  10.663   7.518  0.3510  0.0089  0.0119
  262loPI   C6A 4188  13.042  11.073   7.440 -0.0472 -0.1731  0.2667
  262loPI   C1B 4189  14.208  10.109   8.391 -0.3286  0.0116 -0.3569
  262loPI   C2B 4190  14.064  10.326   8.059  0.0668  0.4356 -0.2319
  262loPI   C3B 4191  13.686  10.289   7.799  0.0375 -0.4160  0.1361
  262loPI   C4B 4192  13.547  10.228   7.483  0.2054 -0.0226 -0.1787
  263loPI    C1 4193  13.210   3.195  10.190  0.0028  0.0520  0.0950
  263loPI    C2 4194  12.980   3.090  10.500 -0.0565  0.0461  0.0490
  263loPI    C3 4195  12.987   3.471  10.376 -0.2078  0.0066 -0.0858
  263loPI   PO4 4196  13.169   2.990  10.047 -0.0986 -0.1328  0.2915
  263loPI   GL1 4197  13.229   2.695   9.673 -0.1362 -0.0510 -0.3937
  263loPI   GL2 4198  13.042   2.984   9.523  0.3121  0.0017  0.0007
  263loPI   C1A 4199  13.460   2.568   9.262 -0.0716 -0.0447 -0.0362
  263loPI   C2A 4200  13.384   2.374   8.964 -0.5008 -0.0217  0.2268
  263loPI   C3A 4201  13.297   2.275   8.416 -0.0309  0.0711  0.2817
  263loPI   C4A 4202  13.543   2.309   7.928  0.3433  0.2697  0.0213
  263loPI   C5A 4203  13.510   2.067   7.553  0.0240 -0.1960  0.0869
  263loPI   C6A 4204  13.625   2.272   7.143  0.3688 -0.3851  0.1249
  263loPI   C1B 4205  12.983   2.760   9.134 -0.0954 -0.0222  0.0072
  263loPI   C2B 4206  12.873   2.526   8.829 -0.0659 -0.0201 -0.0393
  263loPI   C3B 4207  12.792   2.457   8.460 -0.1794 -0.1977 -0.4733
  263loPI   C4B 4208  12.967   2.541   8.007  0.0793  0.3097 -0.0497
  264loPI    C1 4209  19.128   5.204   9.850  0.1554  0.3557  0.2754
  264loPI    C2 4210  19.506   5.190   9.719 -0.0091 -0.0300 -0.1873
  264loPI    C3 4211  19.425   5.120  10.104  0.3901  0.0885 -0.0777
  264loPI   PO4 4212  18.961   5.013   9.699 -0.1952  0.1666 -0.0562
  264loPI   GL1 4213  18.974   5.009   9.247  0.0340  0.1983 -0.1164
  264loPI   GL2 4214  18.796   5.133   9.065  0.1623  0.0781 -0.1490
  264loPI   C1A 4215  19.192   4.753   8.987 -0.2880 -0.3441 -0.1081
  264loPI   C2A 4216  19.117   4.730   8.571 -0.1184  0.1166  0.0607
  264loPI   C3A 4217  19.054   4.786   8.253 -0.3360  0.1230 -0.1253
  264loPI   C4A 4218  19.171   4.894   7.823 -0.3234 -0.3339  0.2237
  264loPI   C5A 4219  18.999   4.896   7.464  0.2052  0.1317 -0.0606
  264loPI   C6A 4220  19.054   4.847   7.012 -0.0493  0.0469  0.1498
  264loPI   C1B 4221  18.649   5.323   8.815 -0.3006  0.6704 -0.0013
  264loPI   C2B 4222  18.373   5.264   8.552 -0.0129  0.1011  0.4582
  264loPI   C3B 4223  18.178   5.121   8.310 -0.0028 -0.0936  0.0655
  264loPI   C4B 4224  18.133   5.029   7.968 -0.2667 -0.1136  0.3168
  265loPI    C1 4225  12.347   3.868   9.885 -0.1967 -0.0201 -0.2070
  265loPI    C2 4226  12.031   3.950   9.655 -0.2503  0.0195 -0.1197
  265loPI    C3 4227  12.037   4.070  10.036 -0.0971  0.0849 -0.1421
  265loPI   PO4 4228  12.419   3.652   9.848 -0.0370  0.0959  0.2262
  265loPI   GL1 4229  12.590   3.570   9.446 -0.2675  0.0561 -0.0271
  265loPI   GL2 4230  12.695   3.646   9.142  0.0422 -0.0910  0.1755
  265loPI   C1A 4231  12.612   3.160   9.286 -0.0725 -0.0957  0.0671
  265loPI   C2A 4232  12.502   2.975   8.920 -0.1248  0.0469  0.0421
  265loPI   C3A 4233  12.494   2.901   8.487  0.2223  0.1120 -0.5357
  265loPI   C4A 4234  12.515   2.733   8.055 -0.1382 -0.1177 -0.2911
  265loPI   C5A 4235  12.713   2.783   7.651  0.3408  0.0180  0.1760
  265loPI   C6A 4236  12.732   2.498   7.215 -0.2674  0.0315 -0.0302
  265loPI   C1B 4237  12.684   3.495   8.721  0.0260 -0.1279 -0.1026
  265loPI   C2B 4238  12.724   3.432   8.299  0.3782 -0.0871  0.2435
  265loPI   C3B 4239  12.509   3.202   7.933  0.2104 -0.0397  0.3267
  265loPI   C4B 4240  12.324   3.110   7.521 -0.0895 -0.1952 -0.1923
  266loPI    C1 4241   8.410  18.017  10.368  0.0758 -0.0876  0.0839
  266loPI    C2 4242   8.045  18.035  10.531  0.0754  0.2896  0.0497
  266loPI    C3 4243   8.342  18.258  10.680  0.2400  0.1437 -0.0557
  266loPI   PO4 4244   8.339  17.802  10.160 -0.2560 -0.2182  0.0095
  266loPI   GL1 4245   8.339  17.551   9.738 -0.0162  0.1418  0.1954
  266loPI   GL2 4246   8.227  17.939   9.657 -0.1063 -0.0526  0.1446
  266loPI   C1A 4247   8.612  17.599   9.439  0.1455 -0.1509  0.0234
  266loPI   C2A 4248   8.772  17.764   8.987 -0.1807  0.0907 -0.2144
  266loPI   C3A 4249   8.791  17.564   8.623  0.0709 -0.2872  0.0683
  266loPI   C4A 4250   8.731  17.508   8.169 -0.1099  0.0077 -0.2873
  266loPI   C5A 4251   8.805  17.442   7.788 -0.1396 -0.1187  0.0213
  266loPI   C6A 4252   8.707  17.483   7.303 -0.1130  0.3378 -0.0387
  266loPI   C1B 4253   8.363  18.071   9.197 -0.2679  0.1910  0.1418
  266loPI   C2B 4254   8.248  18.239   8.827  0.0220 -0.0239 -0.4316
  266loPI   C3B 4255   8.140  18.372   8.417 -0.0251  0.1383  0.0884
  266loPI   C4B 4256   8.135  18.661   8.007 -0.2903  0.1438  0.2068
  267loPI    C1 4257   6.573   7.896   9.671 -0.0787  0.2491 -0.0776
  267loPI    C2 4258   6.605   7.635   9.972 -0.1548  0.1461 -0.1583
  267loPI    C3 4259   6.294   7.886   9.957 -0.2974 -0.0354 -0.2947
  267loPI   PO4 4260   6.650   7.811   9.449  0.2694  0.0886 -0.0173
  267loPI   GL1 4261   6.562   7.787   9.087 -0.0846 -0.3913 -0.0912
  267loPI   GL2 4262   6.807   8.078   9.105  0.2372  0.1158 -0.4661
  267loPI   C1A 4263   6.389   8.050   8.763 -0.0539  0.2227  0.1788
  267loPI   C2A 4264   6.394   8.186   8.380 -0.3093  0.1883 -0.1901
  267loPI   C3A 4265   6.426   8.102   7.852 -0.1172  0.0648  0.1603
  267loPI   C4A 4266   6.568   7.864   7.440 -0.0860 -0.0965  0.0036
  267loPI   C5A 4267   6.691   8.081   6.981 -0.2640  0.0040  0.3163
  267loPI   C6A 4268   7.123   8.064   6.686  0.0815  0.3164 -0.0571
  267loPI   C1B 4269   6.864   7.859   8.666 -0.2913 -0.1179  0.2230
  267loPI   C2B 4270   6.871   7.840   8.250 -0.0776  0.0328 -0.1008
  267loPI   C3B 4271   6.905   7.970   7.733 -0.1725  0.0238 -0.1966
  267loPI   C4B 4272   7.123   7.850   7.354 -0.0803 -0.2984 -0.2415
  268loPI    C1 4273  16.569   9.010   9.935 -0.3738 -0.0297  0.0116
  268loPI    C2 4274  16.685   8.717  10.180 -0.0505  0.0989  0.0173
  268loPI    C3 4275  16.381   8.657   9.927 -0.0067 -0.2303  0.0376
  268loPI   PO4 4276  16.804   9.109   9.913  0.1010  0.0439 -0.0376
  268loPI   GL1 4277  16.895   9.147   9.473  0.3303 -0.2224  0.1656
  268loPI   GL2 4278  16.869   9.394   9.257 -0.1790  0.1124  0.2552
  268loPI   C1A 4279  16.863   8.925   9.009  0.1475 -0.1878 -0.2721
  268loPI   C2A 4280  16.666   9.092   8.560  0.1407 -0.1213 -0.0022
  268loPI   C3A 4281  16.534   9.358   8.245 -0.0891  0.1581  0.0472
  268loPI   C4A 4282  16.137   9.312   7.991  0.0089  0.0830  0.1626
  268loPI   C5A 4283  16.101   9.461   7.590  0.0145  0.3948 -0.1640
  268loPI   C6A 4284  16.340   9.630   7.255  0.1169  0.0895  0.0294
  268loPI   C1B 4285  16.916   9.394   8.873  0.0059 -0.2180  0.0468
  268loPI   C2B 4286  17.070   9.419   8.468 -0.0372 -0.2710  0.1060
  268loPI   C3B 4287  16.979   9.371   8.032  0.1496  0.0842  0.0195
  268loPI   C4B 4288  16.635   9.292   7.636 -0.1352 -0.0850  0.0413
  269loPI    C1 4289  14.429  11.469   9.919 -0.0699  0.0491  0.0736
  269loPI    C2 4290  14.306  11.590  10.280  0.0144  0.1437  0.0712
  269loPI    C3 4291  14.259  11.208  10.170  0.1569  0.0721  0.2542
  269loPI   PO4 4292  14.461  11.687   9.738  0.0126 -0.2460 -0.1799
  269loPI   GL1 4293  14.612  11.775   9.448  0.2176  0.2762  0.1864
  269loPI   GL2 4294  14.901  12.011   9.333 -0.1643  0.0140  0.1542
  269loPI   C1A 4295  14.583  11.646   9.016  0.2245 -0.0211  0.1526
  269loPI   C2A 4296  14.631  11.596   8.591  0.0510  0.0400 -0.1727
  269loPI   C3A 4297  14.846  11.742   8.208 -0.2508 -0.1415 -0.2349
  269loPI   C4A 4298  14.965  12.040   7.953  0.3173 -0.4465  0.2041
  269loPI   C5A 4299  14.906  12.399   7.780 -0.4375 -0.0016 -0.2870
  269loPI   C6A 4300  15.191  12.650   7.461  0.0259 -0.3041  0.1711
  269loPI   C1B 4301  14.863  12.049   8.874  0.0291 -0.1950  0.0441
  269loPI   C2B 4302  14.603  12.083   8.512 -0.1061 -0.2974 -0.0120
  269loPI   C3B 4303  14.546  12.287   8.081 -0.0973  0.1847  0.1680
  269loPI   C4B 4304  14.341  12.413   7.712  0.0734 -0.0835 -0.1339
  270loPI    C1 4305   4.099  16.984  10.029 -0.0945  0.2233 -0.1590
  270loPI    C2 4306   4.072  17.361  10.162  0.0135  0.1086  0.1969
  270loPI    C3 4307   4.177  17.066  10.413  0.2778 -0.1073 -0.1576
  270loPI   PO4 4308   3.891  17.093   9.748 -0.3763  0.0868 -0.1584
  270loPI   GL1 4309   4.009  17.333   9.403 -0.1876  0.1600 -0.0430
  270loPI   GL2 4310   4.255  17.447   9.147  0.2356  0.0495  0.2729
  270loPI   C1A 4311   3.684  17.481   9.185  0.1122 -0.1325 -0.3274
  270loPI   C2A 4312   3.543  17.680   8.726 -0.0872 -0.0217 -0.1068
  270loPI   C3A 4313   3.359  17.993   8.359 -0.3312  0.3598  0.0791
  270loPI   C4A 4314   3.291  18.146   7.948 -0.0859  0.3381  0.0972
  270loPI   C5A 4315   3.242  18.175   7.517  0.0466 -0.0003 -0.0455
  270loPI   C6A 4316   3.303  18.211   7.076 -0.2422  0.2587  0.3878
  270loPI   C1B 4317   4.095  17.493   8.805 -0.0947  0.4326 -0.0153
  270loPI   C2B 4318   4.166  17.475   8.305  0.1639  0.1544 -0.0201
  270loPI   C3B 4319   4.095  17.547   7.940  0.0202 -0.1893  0.3024
  270loPI   C4B 4320   4.070  17.654   7.505 -0.1785  0.1345  0.0856
  271loPI    C1 4321  12.275   9.489   9.794 -0.1225 -0.4381  0.1656
  271loPI    C2 4322  12.576   9.512  10.056  0.2421  0.1618 -0.2789
  271loPI    C3 4323  12.202   9.591  10.174  0.3328 -0.0253  0.1525
  271loPI   PO4 4324  12.460   9.200   9.643  0.1776 -0.2238  0.2874
  271loPI   GL1 4325  12.632   9.283   9.267 -0.0549  0.0971 -0.0913
  271loPI   GL2 4326  12.619   9.579   9.247  0.0594 -0.2773  0.0999
  271loPI   C1A 4327  12.549   9.368   8.707  0.2222 -0.0748  0.0195
  271loPI   C2A 4328  12.569   9.153   8.313 -0.1426 -0.1941 -0.0854
  271loPI   C3A 4329  12.403   9.037   7.971 -0.0435 -0.0038  0.1474
  271loPI   C4A 4330  12.102   9.148   7.659 -0.1928 -0.0516 -0.1171
  271loPI   C5A 4331  11.841   9.250   7.392 -0.4363  0.2629  0.0750
  271loPI   C6A 4332  11.423   9.299   7.170 -0.1380 -0.0602  0.1194
  271loPI   C1B 4333  12.712   9.835   9.010  0.2032 -0.0462  0.1321
  271loPI   C2B 4334  12.966  10.209   9.031 -0.3508  0.1965 -0.0224
  271loPI   C3B 4335  13.419  10.411   8.765 -0.0063 -0.1816  0.1733
  271loPI   C4B 4336  13.875  10.465   8.687 -0.2861 -0.4082 -0.0713
  272loPI    C1 4337   1.776  11.219   9.620 -0.2141  0.2179  0.0590
  272loPI    C2 4338   1.965  11.228   9.973  0.2176  0.0639 -0.1616
  272loPI    C3 4339   1.608  11.050   9.942  0.2569 -0.0783  0.1592
  272loPI   PO4 4340   1.901  11.099   9.483 -0.0608  0.0081 -0.0892
  272loPI   GL1 4341   1.982  11.100   9.104 -0.2657 -0.3656  0.3764
  272loPI   GL2 4342   1.905  10.840   9.046  0.0515  0.1969 -0.2112
  272loPI   C1A 4343   2.174  11.174   8.752  0.0508  0.0580  0.0352
  272loPI   C2A 4344   2.312  11.050   8.297  0.1081  0.0255 -0.0229
  272loPI   C3A 4345   2.435  10.897   7.942 -0.0424  0.1659 -0.0943
  272loPI   C4A 4346   2.344  10.891   7.481  0.0545 -0.1213  0.0812
  272loPI   C5A 4347   2.185  10.851   7.077  0.0590  0.1050  0.0450
  272loPI   C6A 4348   2.014  10.471   6.912 -0.3158  0.1135  0.0115
  272loPI   C1B 4349   1.804  10.941   8.521  0.2079  0.0042 -0.0408
  272loPI   C2B 4350   1.641  11.011   8.049 -0.0401 -0.2137 -0.0703
  272loPI   C3B 4351   1.271  11.047   7.911  0.2789  0.1228  0.2371
  272loPI   C4B 4352   0.819  11.195   7.977 -0.3885 -0.0455 -0.3577
  273loPI    C1 4353  11.269   6.893   9.454  0.2357  0.1007  0.0937
  273loPI    C2 4354  11.198   6.870   9.847  0.2133 -0.1575  0.0764
  273loPI    C3 4355  11.535   6.717   9.696  0.3119  0.1107  0.0177
  273loPI   PO4 4356  11.015   6.767   9.399 -0.0092 -0.1987  0.2461
  273loPI   GL1 4357  10.907   6.650   8.964  0.1873 -0.4275  0.2063
  273loPI   GL2 4358  10.679   6.816   8.997  0.1559 -0.1065 -0.4124
  273loPI   C1A 4359  11.082   6.891   8.548 -0.3591  0.3632  0.1305
  273loPI   C2A 4360  11.236   7.220   8.290  0.0516  0.1877  0.2771
  273loPI   C3A 4361  11.113   7.135   7.873 -0.1712 -0.1052  0.0641
  273loPI   C4A 4362  10.984   7.133   7.472 -0.2347  0.1248  0.1982
  273loPI   C5A 4363  11.043   6.883   7.094  0.2076  0.1224  0.0156
  273loPI   C6A 4364  11.152   6.723   6.616  0.0163  0.0115 -0.0921
  273loPI   C1B 4365  10.597   7.057   8.586 -0.1618  0.1281  0.1423
  273loPI   C2B 4366  10.727   6.994   8.127 -0.2474 -0.0593 -0.1581
  273loPI   C3B 4367  10.643   6.862   7.676  0.0809 -0.2025  0.3140
  273loPI   C4B 4368  10.551   6.680   7.309  0.0521 -0.0985  0.2419
  274loPI    C1 4369  16.840  10.876  10.268 -0.0513  0.0841  0.2333
  274loPI    C2 4370  16.477  10.992  10.389 -0.0425  0.1432  0.2035
  274loPI    C3 4371  16.620  10.635  10.499 -0.1915  0.0349  0.0506
  274loPI   PO4 4372  16.875  10.884  10.038  0.3629 -0.1965  0.0224
  274loPI   GL1 4373  16.816  10.696   9.706  0.0841 -0.2098 -0.1792
  274loPI   GL2 4374  16.797  10.463   9.620 -0.0688  0.0798 -0.0661
  274loPI   C1A 4375  16.773  10.851   9.291  0.0813 -0.0853  0.2378
  274loPI   C2A 4376  16.791  10.911   8.857  0.2637  0.3663 -0.1036
  274loPI   C3A 4377  16.998  11.080   8.462 -0.0325 -0.2274  0.0141
  274loPI   C4A 4378  17.004  11.132   8.048 -0.1358 -0.1537  0.0586
  274loPI   C5A 4379  17.007  11.121   7.582  0.2806  0.1519 -0.0843
  274loPI   C6A 4380  16.900  11.421   7.284 -0.1164 -0.2163  0.0291
  274loPI   C1B 4381  16.887  10.346   9.131  0.1508  0.1900 -0.0197
  274loPI   C2B 4382  17.026  10.229   8.777 -0.0876 -0.3612 -0.3377
  274loPI   C3B 4383  17.287  10.387   8.504 -0.2422 -0.0943  0.1185
  274loPI   C4B 4384  17.613  10.213   8.238  0.0143  0.5923 -0.1106
  275loPI    C1 4385   6.056  11.491   9.727 -0.1231 -0.0540 -0.0505
  275loPI    C2 4386   6.249  11.276  10.005 -0.0628 -0.0897 -0.1196
  275loPI    C3 4387   5.910  11.467  10.099  0.0859  0.0976  0.0432
  275loPI   PO4 4388   6.128  11.381   9.533 -0.0004  0.0226  0.0917
  275loPI   GL1 4389   6.336  11.585   9.209 -0.3927 -0.1235 -0.1771
  275loPI   GL2 4390   6.527  11.941   9.208  0.1566  0.3221  0.1608
  275loPI   C1A 4391   6.540  11.679   8.787  0.2320  0.2031 -0.0583
  275loPI   C2A 4392   6.511  12.029   8.394 -0.0253  0.2137  0.3067
  275loPI   C3A 4393   6.307  11.954   8.045  0.0881  0.0823  0.1801
  275loPI   C4A 4394   6.596  11.857   7.722 -0.2118 -0.0375  0.2895
  275loPI   C5A 4395   6.657  11.603   7.469  0.0884 -0.1578 -0.0530
  275loPI   C6A 4396   6.690  11.180   7.476 -0.2466  0.0238 -0.1369
  275loPI   C1B 4397   6.125  11.893   8.904  0.2284 -0.0446 -0.1626
  275loPI   C2B 4398   5.782  11.804   8.631 -0.1546 -0.0637  0.2379
  275loPI   C3B 4399   5.777  11.502   8.268  0.1718 -0.1694  0.1357
  275loPI   C4B 4400   5.749  11.308   7.951 -0.2437 -0.1781  0.1318
  276loPI    C1 4401   7.862   2.668   9.639  0.4145  0.0874 -0.0052
  276loPI    C2 4402   7.863   2.684  10.039 -0.2653  0.0040  0.0109
  276loPI    C3 4403   7.700   2.982   9.827 -0.1292 -0.0682 -0.1982
  276loPI   PO4 4404   8.081   2.660   9.586  0.3413  0.0820  0.1506
  276loPI   GL1 4405   8.209   2.662   9.146  0.1200 -0.2054  0.0938
  276loPI   GL2 4406   8.391   2.929   8.882 -0.2561 -0.2167  0.0713
  276loPI   C1A 4407   8.370   2.446   8.731 -0.2024 -0.1596  0.2570
  276loPI   C2A 4408   8.544   2.045   8.481  0.1063  0.0317  0.0583
  276loPI   C3A 4409   8.652   2.130   8.023  0.0835 -0.1786 -0.1853
  276loPI   C4A 4410   8.606   1.977   7.670  0.0187 -0.0692  0.0731
  276loPI   C5A 4411   8.676   1.947   7.146 -0.2307  0.2227 -0.0812
  276loPI   C6A 4412   8.622   2.339   7.004  0.1492  0.1413  0.1966
  276loPI   C1B 4413   8.614   2.936   8.608  0.0286 -0.1109  0.1989
  276loPI   C2B 4414   8.509   2.632   8.318  0.0125  0.0129 -0.1738
  276loPI   C3B 4415   8.524   2.627   7.840 -0.1991  0.2009  0.2128
  276loPI   C4B 4416   8.135   2.767   7.669  0.0715  0.0743 -0.0933
  277loPI    C1 4417  13.755  18.402  10.935 -0.1292 -0.1526  0.0740
  277loPI    C2 4418  14.076  18.240  11.109 -0.0747 -0.2056 -0.0738
  277loPI    C3 4419  13.717  18.204  11.281 -0.0056 -0.1647  0.0813
  277loPI   PO4 4420  13.739  18.275  10.644 -0.0359 -0.0292 -0.0412
  277loPI   GL1 4421  13.529  18.100  10.293 -0.2867 -0.1050  0.0396
  277loPI   GL2 4422  13.274  18.241  10.366  0.0741 -0.2492 -0.0825
  277loPI   C1A 4423  13.641  18.226   9.870 -0.1174 -0.0822 -0.1624
  277loPI   C2A 4424  13.625  18.625   9.659  0.0253  0.1879  0.1646
  277loPI   C3A 4425  13.634  18.928   9.316 -0.1602 -0.1463 -0.2644
  277loPI   C4A 4426  13.791  19.068   8.944 -0.0236  0.1019  0.0339
  277loPI   C5A 4427  13.735  19.222   8.583  0.1323 -0.1138 -0.0881
  277loPI   C6A 4428  13.888  19.596   8.461  0.0567  0.0901  0.0018
  277loPI   C1B 4429  13.339  18.634  10.157 -0.1084 -0.2090 -0.1103
  277loPI   C2B 4430  13.368  18.964   9.894  0.4059 -0.3789  0.0784
  277loPI   C3B 4431  13.174  19.168   9.526 -0.0285 -0.1700  0.1469
  277loPI   C4B 4432  12.937  19.182   9.167 -0.0049 -0.0862  0.0207
  278loPI    C1 4433  11.693  11.579   9.782 -0.1056 -0.0480  0.0096
  278loPI    C2 4434  11.907  11.841   9.996  0.1328 -0.1586 -0.0901
  278loPI    C3 4435  11.727  11.958   9.659  0.1259 -0.0908 -0.0630
  278loPI   PO4 4436  11.761  11.400   9.670 -0.0468  0.1007  0.2046
  278loPI   GL1 4437  11.728  11.132   9.334  0.1679  0.4244  0.0591
  278loPI   GL2 4438  11.927  11.342   9.174  0.1122 -0.1037 -0.0095
  278loPI   C1A 4439  11.471  11.137   8.943  0.3246  0.0018  0.3250
  278loPI   C2A 4440  11.233  11.188   8.683  0.1567 -0.0608 -0.4271
  278loPI   C3A 4441  10.800  11.380   8.581  0.1170 -0.3575 -0.2341
  278loPI   C4A 4442  10.459  11.656   8.648 -0.1215  0.1207  0.1740
  278loPI   C5A 4443  10.412  12.030   8.587 -0.0611  0.3576  0.1442
  278loPI   C6A 4444  10.402  12.458   8.420  0.0542  0.0843  0.2076
  278loPI   C1B 4445  11.981  11.200   8.824 -0.2190  0.1007  0.0658
  278loPI   C2B 4446  12.128  10.992   8.433  0.2561  0.0752 -0.0491
  278loPI   C3B 4447  11.983  10.682   8.179 -0.3421 -0.2508 -0.3588
  278loPI   C4B 4448  12.058  10.429   7.856 -0.1218  0.0167  0.0078
  279loPI    C1 4449   5.835  13.611   9.987 -0.0123 -0.0196 -0.0314
  279loPI    C2 4450   5.921  13.413  10.324  0.2638  0.0733 -0.0444
  279loPI    C3 4451   5.678  13.731  10.334  0.1102 -0.0449  0.0332
  279loPI   PO4 4452   5.984  13.548   9.827 -0.2603 -0.0786  0.3138
  279loPI   GL1 4453   6.058  13.501   9.410 -0.2778 -0.1026 -0.1391
  279loPI   GL2 4454   6.349  13.294   9.302  0.0128 -0.1572 -0.0925
  279loPI   C1A 4455   6.103  13.646   9.042  0.0545  0.1077  0.3155
  279loPI   C2A 4456   6.175  13.740   8.650  0.1801 -0.1584 -0.0713
  279loPI   C3A 4457   6.323  13.538   8.138  0.1261 -0.3257 -0.5054
  279loPI   C4A 4458   6.333  13.145   7.950 -0.3538 -0.2525 -0.0884
  279loPI   C5A 4459   6.135  12.999   7.648 -0.0707 -0.2260 -0.4273
  279loPI   C6A 4460   5.918  13.024   7.350 -0.3082 -0.1886  0.2315
  279loPI   C1B 4461   6.168  13.197   8.892 -0.1269 -0.0684  0.0174
  279loPI   C2B 4462   5.981  13.318   8.467  0.1983 -0.0810  0.2887
  279loPI   C3B 4463   5.904  13.330   8.166  0.1288 -0.0045 -0.0377
  279loPI   C4B 4464   5.862  13.404   7.724 -0.0972  0.1165 -0.0022
  280loPI    C1 4465  18.985  16.873  10.172  0.1418  0.0899  0.3593
  280loPI    C2 4466  18.722  16.655  10.379  0.0098  0.0672  0.1703
  280loPI    C3 4467  19.099  16.527  10.338 -0.1518 -0.3061 -0.2286
  280loPI   PO4 4468  18.937  16.955   9.945 -0.0860  0.1551  0.1658
  280loPI   GL1 4469  19.005  16.964   9.482 -0.0192 -0.1109  0.1450
  280loPI   GL2 4470  18.999  16.634   9.525 -0.1451  0.2242  0.0319
  280loPI   C1A 4471  18.853  16.940   9.079  0.3025  0.1333  0.4109
  280loPI   C2A 4472  18.893  16.959   8.670  0.2507 -0.2821 -0.1490
  280loPI   C3A 4473  18.790  16.940   8.303 -0.1856  0.3619  0.2760
  280loPI   C4A 4474  18.610  16.857   7.936 -0.1635 -0.0290 -0.0031
  280loPI   C5A 4475  18.250  16.611   7.732 -0.1574  0.1437 -0.0344
  280loPI   C6A 4476  17.833  16.384   7.817  0.0082 -0.0562 -0.0592
  280loPI   C1B 4477  18.738  16.498   9.248 -0.0271 -0.1634 -0.1208
  280loPI   C2B 4478  18.801  16.440   8.877  0.0610  0.4100  0.5018
  280loPI   C3B 4479  18.569  16.244   8.513 -0.1026  0.0610 -0.0042
  280loPI   C4B 4480  18.762  16.448   8.310  0.3084  0.0440 -0.1822
  281loPI    C1 4481   2.583   2.050  10.049  0.1012  0.0376  0.0859
  281loPI    C2 4482   2.237   2.116   9.859  0.1332  0.2232  0.0901
  281loPI    C3 4483   2.236   1.965  10.229  0.0479  0.4055  0.1654
  281loPI   PO4 4484   2.713   1.943   9.875  0.0634 -0.2795  0.0640
  281loPI   GL1 4485   2.592   2.037   9.446 -0.0644  0.0221 -0.1646
  281loPI   GL2 4486   2.390   1.707   9.435  0.1759 -0.4754 -0.1094
  281loPI   C1A 4487   2.745   2.061   8.975 -0.0218  0.1380  0.2619
  281loPI   C2A 4488   2.566   2.057   8.586  0.4971 -0.2771 -0.0280
  281loPI   C3A 4489   2.311   2.254   8.222  0.0124  0.3041  0.1217
  281loPI   C4A 4490   2.387   2.291   7.874 -0.0249 -0.0671 -0.1115
  281loPI   C5A 4491   2.671   2.013   7.735 -0.0933 -0.2443  0.1380
  281loPI   C6A 4492   3.022   1.789   7.542  0.0255 -0.0520 -0.2536
  281loPI   C1B 4493   2.215   1.719   9.043 -0.0615 -0.0595 -0.2493
  281loPI   C2B 4494   2.297   1.638   8.664 -0.0463  0.0381  0.2908
  281loPI   C3B 4495   2.319   1.702   8.192 -0.1038  0.3241  0.1622
  281loPI   C4B 4496   2.797   1.776   8.109 -0.0015 -0.1867  0.4964
  282loPI    C1 4497   2.397   4.272  10.241 -0.1427  0.2656  0.0547
  282loPI    C2 4498   2.554   4.468   9.929  0.0929  0.1357  0.0885
  282loPI    C3 4499   2.194   4.571  10.071  0.0681  0.3209 -0.1044
  282loPI   PO4 4500   2.343   4.025  10.127 -0.1907 -0.2246 -0.0349
  282loPI   GL1 4501   2.356   3.967   9.679  0.0422 -0.1280  0.1022
  282loPI   GL2 4502   2.369   3.901   9.343 -0.1322  0.1562 -0.1240
  282loPI   C1A 4503   2.336   4.422   9.477 -0.1347 -0.2810  0.1402
  282loPI   C2A 4504   2.131   4.721   9.117  0.0324 -0.1777  0.0491
  282loPI   C3A 4505   2.153   4.840   8.736 -0.0827 -0.1641 -0.0840
  282loPI   C4A 4506   1.987   4.665   8.279  0.1225  0.0501 -0.0594
  282loPI   C5A 4507   1.916   4.646   7.828 -0.1154  0.0769  0.0047
  282loPI   C6A 4508   1.801   4.637   7.425  0.0219 -0.0685  0.1571
  282loPI   C1B 4509   2.472   3.609   9.108 -0.3681 -0.2658  0.4389
  282loPI   C2B 4510   2.579   3.508   8.736 -0.3911 -0.1861  0.3835
  282loPI   C3B 4511   2.891   3.530   8.406 -0.2082 -0.2231  0.1146
  282loPI   C4B 4512   3.267   3.419   8.121  0.2108  0.0485 -0.1023
  283loPI    C1 4513   1.911  15.950   9.993 -0.2887 -0.0187 -0.0465
  283loPI    C2 4514   1.702  16.213  10.211 -0.1538  0.0585 -0.0089
  283loPI    C3 4515   1.936  15.944  10.392 -0.1425  0.0377 -0.0542
  283loPI   PO4 4516   1.802  15.898   9.750 -0.0505  0.4106  0.1559
  283loPI   GL1 4517   1.688  16.025   9.389 -0.1276  0.3113  0.3871
  283loPI   GL2 4518   1.567  15.678   9.249  0.0621 -0.0823 -0.0364
  283loPI   C1A 4519   1.966  15.891   9.042 -0.3127 -0.1651  0.2976
  283loPI   C2A 4520   2.069  15.827   8.525  0.2058  0.1909 -0.2873
  283loPI   C3A 4521   2.032  15.772   8.109 -0.1232  0.0326 -0.2458
  283loPI   C4A 4522   1.945  15.946   7.747  0.1996  0.1913 -0.1754
  283loPI   C5A 4523   1.976  16.091   7.417 -0.1557  0.0150  0.5744
  283loPI   C6A 4524   2.238  16.342   7.131 -0.0497  0.0900  0.1095
  283loPI   C1B 4525   1.569  15.704   8.806  0.0372 -0.2545 -0.0297
  283loPI   C2B 4526   1.485  15.641   8.404 -0.0140  0.1229 -0.0436
  283loPI   C3B 4527   1.643  15.609   7.865 -0.1389 -0.1514  0.0868
  283loPI   C4B 4528   1.804  15.569   7.418  0.1263 -0.1849  0.1390
  284loPI    C1 4529   9.674   7.454   9.821  0.0830 -0.0753 -0.0396
  284loPI    C2 4530   9.983   7.708   9.845  0.2343 -0.2493 -0.1260
  284loPI    C3 4531   9.806   7.577  10.179  0.2349 -0.1268 -0.0772
  284loPI   PO4 4532   9.573   7.560   9.670  0.0846  0.2793 -0.1334
  284loPI   GL1 4533   9.621   7.605   9.273  0.1811 -0.2245 -0.0536
  284loPI   GL2 4534   9.528   7.285   9.218 -0.2315  0.1417  0.3369
  284loPI   C1A 4535   9.904   7.717   8.897  0.2222  0.1297  0.1134
  284loPI   C2A 4536   9.903   7.584   8.383 -0.0125 -0.0122  0.0631
  284loPI   C3A 4537   9.986   7.628   7.949 -0.0777  0.2105 -0.0073
  284loPI   C4A 4538  10.117   7.615   7.583  0.0181 -0.1394  0.2545
  284loPI   C5A 4539  10.211   7.509   7.159 -0.1386  0.1554  0.2702
  284loPI   C6A 4540  10.200   7.391   6.703  0.0203  0.2202  0.2281
  284loPI   C1B 4541   9.503   7.470   8.727 -0.0573 -0.1946 -0.3426
  284loPI   C2B 4542   9.409   7.438   8.264 -0.0321  0.0127 -0.0180
  284loPI   C3B 4543   9.552   7.440   7.941  0.1287 -0.1378 -0.1147
  284loPI   C4B 4544   9.609   7.425   7.466 -0.1160 -0.1334 -0.2821
  285loPI    C1 4545   3.212   6.345   9.987  0.0902 -0.0339  0.0311
  285loPI    C2 4546   3.585   6.445  10.092  0.0045  0.0174  0.2961
  285loPI    C3 4547   3.463   6.065  10.124  0.0751 -0.0254  0.0766
  285loPI   PO4 4548   3.121   6.446   9.726 -0.0907 -0.1552  0.0625
  285loPI   GL1 4549   2.875   6.490   9.351  0.1393 -0.0992  0.3173
  285loPI   GL2 4550   2.603   6.659   9.414  0.2717  0.0028  0.3756
  285loPI   C1A 4551   2.910   6.501   8.954 -0.0821 -0.0968  0.2857
  285loPI   C2A 4552   2.912   6.400   8.501 -0.0891  0.1008  0.2232
  285loPI   C3A 4553   2.739   6.316   8.036 -0.0772  0.0391 -0.2259
  285loPI   C4A 4554   2.670   6.412   7.605 -0.0733 -0.2233  0.0489
  285loPI   C5A 4555   2.269   6.478   7.401 -0.2199 -0.1426  0.1150
  285loPI   C6A 4556   2.202   6.404   6.848 -0.1608 -0.0311 -0.1301
  285loPI   C1B 4557   2.450   6.645   9.043  0.2464 -0.3397 -0.2588
  285loPI   C2B 4558   2.461   6.540   8.606 -0.0416  0.2696  0.0894
  285loPI   C3B 4559   2.304   6.371   8.275  0.1050 -0.1374  0.3203
  285loPI   C4B 4560   2.213   6.446   7.924 -0.3538 -0.1895 -0.0539
  286loPI    C1 4561   6.293  17.553   9.632 -0.2067 -0.5693  0.3637
  286loPI    C2 4562   6.468  17.556   9.992 -0.0721 -0.3916  0.2978
  286loPI    C3 4563   6.168  17.808   9.913  0.0645 -0.2556  0.2059
  286loPI   PO4 4564   6.583  17.485   9.493  0.3156  0.1201  0.0298
  286loPI   GL1 4565   6.490  17.284   9.139  0.1002  0.0182  0.1587
  286loPI   GL2 4566   6.175  17.231   8.964  0.1937 -0.3656  0.0958
  286loPI   C1A 4567   6.502  17.545   8.736 -0.1817  0.1702  0.0380
  286loPI   C2A 4568   6.560  17.684   8.282 -0.0739 -0.4175 -0.0560
  286loPI   C3A 4569   6.553  17.685   7.819 -0.0483  0.0873 -0.0893
  286loPI   C4A 4570   6.567  17.679   7.445 -0.0345 -0.1640 -0.1739
  286loPI   C5A 4571   6.777  17.717   7.128  0.3194  0.2735  0.0527
  286loPI   C6A 4572   7.068  17.932   6.858  0.0122  0.1843 -0.1283
  286loPI   C1B 4573   6.038  17.434   8.495  0.4308  0.0829  0.2761
  286loPI   C2B 4574   6.102  17.618   8.092 -0.1778 -0.0067  0.2092
  286loPI   C3B 4575   6.120  17.535   7.686  0.2982  0.1533  0.1048
  286loPI   C4B 4576   6.013  17.586   7.231  0.0630  0.0720  0.1911
  287loPI    C1 4577   7.262   9.113   9.338  0.0352 -0.1273  0.2966
  287loPI    C2 4578   7.036   9.367   9.549 -0.0532  0.1390 -0.1054
  287loPI    C3 4579   7.377   9.225   9.704 -0.1938  0.2012  0.2722
  287loPI   PO4 4580   7.156   8.940   9.257  0.3833  0.0205 -0.2557
  287loPI   GL1 4581   7.088   8.879   8.909  0.0643 -0.0896  0.2182
  287loPI   GL2 4582   6.792   9.022   8.892 -0.1849  0.1627  0.0636
  287loPI   C1A 4583   7.280   8.549   8.668  0.2416  0.1091 -0.0288
  287loPI   C2A 4584   7.456   8.491   8.214  0.3203  0.3021 -0.1138
  287loPI   C3A 4585   7.657   8.419   7.867 -0.3674 -0.0973  0.1670
  287loPI   C4A 4586   7.833   8.404   7.503 -0.1911  0.1640  0.2613
  287loPI   C5A 4587   8.031   8.322   7.082  0.1452  0.0036  0.3261
  287loPI   C6A 4588   8.517   8.343   6.855  0.1056 -0.0957 -0.2704
  287loPI   C1B 4589   6.871   8.856   8.413  0.1353  0.5138  0.2454
  287loPI   C2B 4590   6.636   8.700   8.067  0.2763 -0.0268 -0.0775
  287loPI   C3B 4591   6.712   8.506   7.657 -0.0337  0.0887 -0.3838
  287loPI   C4B 4592   6.602   8.572   7.209  0.0877  0.3849 -0.4083
  288loPI    C1 4593  16.432  15.362  10.477 -0.1267  0.1889  0.0128
  288loPI    C2 4594  16.605  15.600  10.747  0.1772  0.0331 -0.0407
  288loPI    C3 4595  16.792  15.269  10.624 -0.1474 -0.1223 -0.1260
  288loPI   PO4 4596  16.411  15.508  10.245  0.0931 -0.0671  0.0492
  288loPI   GL1 4597  16.472  15.832   9.922  0.1455  0.1899  0.4443
  288loPI   GL2 4598  16.412  16.127   9.863 -0.1475 -0.0144  0.2023
  288loPI   C1A 4599  16.408  15.656   9.498 -0.0855 -0.1860 -0.2249
  288loPI   C2A 4600  16.251  15.316   9.166  0.2160 -0.0019 -0.2282
  288loPI   C3A 4601  16.139  15.212   8.757  0.3283 -0.0469 -0.0242
  288loPI   C4A 4602  16.194  15.368   8.328 -0.1572 -0.1464 -0.1708
  288loPI   C5A 4603  16.102  15.454   7.915 -0.0150 -0.2053  0.1720
  288loPI   C6A 4604  15.913  15.776   7.697  0.1475  0.2188 -0.0745
  288loPI   C1B 4605  16.435  16.205   9.427 -0.3871 -0.0196 -0.1302
  288loPI   C2B 4606  16.310  16.180   8.966 -0.1386 -0.1613  0.2629
  288loPI   C3B 4607  16.371  16.285   8.540  0.3678 -0.0368 -0.1023
  288loPI   C4B 4608  16.422  16.433   8.080  0.0889  0.0110  0.2422
  289loPI    C1 4609   1.850  16.910  10.203  0.3497 -0.2415 -0.0275
  289loPI    C2 4610   2.042  17.201  10.008  0.1276 -0.1604 -0.1295
  289loPI    C3 4611   1.839  17.284  10.342  0.0725 -0.1996 -0.1531
  289loPI   PO4 4612   1.828  16.762  10.009  0.1618  0.1343  0.0996
  289loPI   GL1 4613   1.774  16.824   9.492  0.0948  0.4335  0.0402
  289loPI   GL2 4614   1.840  17.037   9.485  0.2617 -0.0522 -0.1417
  289loPI   C1A 4615   1.794  16.446   9.184  0.2749 -0.0554  0.0831
  289loPI   C2A 4616   1.760  16.211   8.732  0.2218 -0.2257 -0.2664
  289loPI   C3A 4617   1.683  16.095   8.320 -0.4551 -0.1067  0.1361
  289loPI   C4A 4618   1.519  16.110   7.913 -0.0205  0.1719 -0.0444
  289loPI   C5A 4619   1.483  16.162   7.494 -0.1557 -0.0198 -0.1612
  289loPI   C6A 4620   1.526  16.195   7.062  0.5084 -0.1488 -0.0026
  289loPI   C1B 4621   1.526  17.072   9.057 -0.0241  0.0307 -0.1377
  289loPI   C2B 4622   1.508  17.127   8.580 -0.0247  0.3839  0.1085
  289loPI   C3B 4623   1.349  16.948   8.153 -0.3221 -0.0553  0.0155
  289loPI   C4B 4624   1.260  16.928   7.754 -0.0388  0.1403 -0.3118
  290loPI    C1 4625   5.269   9.361   9.857 -0.0040 -0.0200 -0.4173
  290loPI    C2 4626   4.966   9.162  10.027  0.1825  0.2108  0.2128
  290loPI    C3 4627   4.933   9.294   9.651 -0.2866 -0.2226  0.0917
  290loPI   PO4 4628   5.452   9.202   9.792 -0.3355 -0.0348 -0.1517
  290loPI   GL1 4629   5.757   9.227   9.359 -0.0963  0.1892  0.3785
  290loPI   GL2 4630   5.908   9.412   9.295  0.0769  0.2862 -0.0076
  290loPI   C1A 4631   5.493   9.198   8.977 -0.2788  0.0747 -0.0150
  290loPI   C2A 4632   5.500   9.351   8.596  0.0826 -0.0105  0.2232
  290loPI   C3A 4633   5.588   9.460   8.165  0.2711  0.2595 -0.2183
  290loPI   C4A 4634   5.478   9.672   7.777  0.0961  0.3150 -0.3263
  290loPI   C5A 4635   5.459   9.757   7.373 -0.1684  0.3343 -0.2222
  290loPI   C6A 4636   5.433  10.079   7.066 -0.1469 -0.1010 -0.0064
  290loPI   C1B 4637   5.943   9.534   8.854  0.2447  0.0650 -0.1851
  290loPI   C2B 4638   5.810   9.748   8.600 -0.0171  0.1074  0.0422
  290loPI   C3B 4639   5.665   9.942   8.233  0.2767 -0.1795  0.0065
  290loPI   C4B 4640   5.828  10.273   8.031  0.1243 -0.1641  0.0945
  291loPI    C1 4641   7.960  19.171  10.073  0.1467  0.0653 -0.0886
  291loPI    C2 4642   8.169  19.133  10.412 -0.0033  0.0688  0.0049
  291loPI    C3 4643   7.972  19.473  10.335 -0.0826  0.0171 -0.0207
  291loPI   PO4 4644   7.881  18.883  10.006 -0.0605  0.0344  0.1997
  291loPI   GL1 4645   7.695  18.777   9.548 -0.1926  0.3338 -0.1369
  291loPI   GL2 4646   7.398  19.002   9.344 -0.0758 -0.2165 -0.2712
  291loPI   C1A 4647   7.819  18.889   9.161  0.2726 -0.1942 -0.0256
  291loPI   C2A 4648   7.912  18.705   8.921  0.3137  0.1541 -0.0045
  291loPI   C3A 4649   7.894  18.750   8.443  0.2180  0.0134  0.0782
  291loPI   C4A 4650   7.654  18.505   8.227 -0.3774 -0.0005  0.4387
  291loPI   C5A 4651   7.685  18.485   7.735 -0.0057  0.0077 -0.0205
  291loPI   C6A 4652   7.545  18.738   7.502  0.1298  0.1959  0.0460
  291loPI   C1B 4653   7.246  19.246   8.997 -0.0067 -0.1149  0.0156
  291loPI   C2B 4654   6.893  19.211   8.780  0.2762 -0.1343  0.1104
  291loPI   C3B 4655   6.834  19.290   8.343 -0.0097 -0.0148 -0.1519
  291loPI   C4B 4656   6.714  19.674   8.080 -0.0787  0.2212 -0.0547
  292loPI    C1 4657   7.647   6.995   9.333  0.1046 -0.0898  0.0137
  292loPI    C2 4658   7.383   7.256   9.186  0.2022 -0.0704 -0.1292
  292loPI    C3 4659   7.381   7.168   9.576  0.0502  0.0047 -0.1122
  292loPI   PO4 4660   7.867   7.041   9.125 -0.3618  0.0696  0.1564
  292loPI   GL1 4661   7.650   7.069   8.801  0.1215  0.1155  0.0341
  292loPI   GL2 4662   7.789   6.811   8.644 -0.1664 -0.1905 -0.0159
  292loPI   C1A 4663   7.370   7.063   8.468 -0.2046 -0.1051 -0.0938
  292loPI   C2A 4664   7.186   6.944   8.055  0.3135  0.3006  0.0098
  292loPI   C3A 4665   6.826   6.990   7.756 -0.1930 -0.0021  0.2680
  292loPI   C4A 4666   6.769   7.453   7.603 -0.0040 -0.1911  0.1477
  292loPI   C5A 4667   6.798   7.525   7.161  0.1502 -0.1198  0.0020
  292loPI   C6A 4668   6.627   7.526   6.803 -0.0166 -0.0179  0.2046
  292loPI   C1B 4669   7.865   6.778   8.227 -0.0761  0.0251  0.1395
  292loPI   C2B 4670   7.651   6.685   7.835 -0.0276 -0.2417 -0.2076
  292loPI   C3B 4671   7.497   6.712   7.347  0.1312 -0.0983 -0.2479
  292loPI   C4B 4672   7.392   6.740   6.949  0.1629 -0.2441  0.0547
  293loPI    C1 4673   2.922  17.034   9.661 -0.0382 -0.0296  0.1864
  293loPI    C2 4674   3.150  16.709   9.707 -0.3892 -0.3348 -0.1567
  293loPI    C3 4675   2.835  16.768   9.947 -0.0225  0.0347  0.2515
  293loPI   PO4 4676   2.805  17.007   9.364  0.0647 -0.1270  0.0284
  293loPI   GL1 4677   2.749  17.131   8.945  0.4031 -0.1161  0.0769
  293loPI   GL2 4678   2.453  17.045   8.907 -0.2369  0.1841 -0.0905
  293loPI   C1A 4679   2.782  17.159   8.522  0.1931  0.3151 -0.0861
  293loPI   C2A 4680   2.586  17.048   8.079 -0.0105 -0.0309 -0.2310
  293loPI   C3A 4681   2.466  17.126   7.600 -0.2795  0.1377 -0.0768
  293loPI   C4A 4682   2.415  17.345   7.216 -0.2543  0.2171  0.2282
  293loPI   C5A 4683   2.509  17.819   7.122  0.3632 -0.0145 -0.2573
  293loPI   C6A 4684   2.392  18.216   7.231  0.0646 -0.1063  0.0781
  293loPI   C1B 4685   2.258  16.975   8.503 -0.0180  0.0099 -0.2771
  293loPI   C2B 4686   2.190  16.793   8.007  0.2272  0.0727 -0.0759
  293loPI   C3B 4687   2.102  16.687   7.653  0.0505 -0.0575 -0.1732
  293loPI   C4B 4688   2.128  16.896   7.248 -0.0890  0.1738 -0.0990
  294loPI    C1 4689   6.858  13.889   9.715 -0.1156  0.1448 -0.0376
  294loPI    C2 4690   7.079  13.968  10.039  0.2275  0.0305 -0.2385
  294loPI    C3 4691   6.801  13.681  10.051  0.2896 -0.0236 -0.0661
  294loPI   PO4 4692   6.805  14.089   9.596 -0.0182  0.2409  0.0788
  294loPI   GL1 4693   6.977  14.396   9.287 -0.2323  0.0800  0.1648
  294loPI   GL2 4694   7.041  14.087   9.121 -0.4680 -0.3148 -0.4243
  294loPI   C1A 4695   6.876  14.528   8.844  0.1525  0.2420  0.0218
  294loPI   C2A 4696   7.118  14.649   8.452 -0.1059 -0.0185  0.2041
  294loPI   C3A 4697   7.329  14.741   8.002 -0.1327  0.0101 -0.0880
  294loPI   C4A 4698   7.414  14.953   7.522  0.1833  0.0170 -0.0843
  294loPI   C5A 4699   7.679  14.687   7.156  0.1304 -0.0503  0.1219
  294loPI   C6A 4700   7.849  14.227   7.156 -0.2100  0.1828 -0.0917
  294loPI   C1B 4701   7.210  14.133   8.778 -0.0653 -0.1529  0.1186
  294loPI   C2B 4702   7.304  13.940   8.418 -0.0543 -0.2091  0.0858
  294loPI   C3B 4703   7.287  13.679   8.147 -0.0131  0.0694 -0.2479
  294loPI   C4B 4704   7.151  13.488   7.774 -0.1705 -0.1356 -0.2069
  295loPI    C1 4705  13.188   8.664   9.849 -0.1270  0.1246 -0.1414
  295loPI    C2 4706  13.579   8.650   9.936 -0.1708 -0.1457  0.0245
  295loPI    C3 4707  13.336   8.888  10.146 -0.1207 -0.0908  0.0206
  295loPI   PO4 4708  13.164   8.667   9.524  0.1396  0.1593  0.2611
  295loPI   GL1 4709  12.970   8.334   9.282 -0.0735  0.1152 -0.0573
  295loPI   GL2 4710  12.891   8.583   9.022  0.1148 -0.0420 -0.3116
  295loPI   C1A 4711  13.283   8.121   8.940 -0.0065 -0.1459  0.1929
  295loPI   C2A 4712  13.064   7.942   8.507 -0.0439 -0.3375 -0.0194
  295loPI   C3A 4713  13.044   7.831   8.055 -0.0246 -0.1258  0.0990
  295loPI   C4A 4714  13.155   7.968   7.562  0.1449  0.1704  0.2869
  295loPI   C5A 4715  13.190   8.316   7.361  0.3545 -0.0264  0.0352
  295loPI   C6A 4716  13.519   8.646   7.331 -0.0393 -0.0442 -0.0008
  295loPI   C1B 4717  12.619   8.878   8.774 -0.4190 -0.0099  0.2161
  295loPI   C2B 4718  12.198   8.842   8.477 -0.2086  0.2974  0.1635
  295loPI   C3B 4719  11.944   9.030   8.183 -0.2932 -0.0729  0.3026
  295loPI   C4B 4720  11.595   9.138   7.841 -0.0569  0.1461 -0.0298
  296loPI    C1 4721  12.082  18.496  10.545  0.3013  0.1033 -0.1260
  296loPI    C2 4722  11.838  18.745  10.741  0.0375 -0.1062 -0.1836
  296loPI    C3 4723  12.005  18.437  10.933 -0.1419 -0.2534 -0.2597
  296loPI   PO4 4724  12.252  18.669  10.477 -0.2423 -0.4967  0.2433
  296loPI   GL1 4725  12.342  18.581  10.107  0.1667 -0.0567 -0.0918
  296loPI   GL2 4726  12.175  18.867   9.906 -0.1211  0.1266 -0.0770
  296loPI   C1A 4727  12.840  18.532   9.998 -0.2206  0.0996  0.0402
  296loPI   C2A 4728  12.978  18.694   9.676  0.2239 -0.0206 -0.0935
  296loPI   C3A 4729  13.107  18.694   9.243  0.1732  0.1427  0.0605
  296loPI   C4A 4730  13.296  18.901   8.966  0.1369  0.4562 -0.4202
  296loPI   C5A 4731  13.315  18.988   8.431  0.2972 -0.1344  0.0381
  296loPI   C6A 4732  12.943  18.970   8.158 -0.1423 -0.1095  0.0904
  296loPI   C1B 4733  12.279  19.280   9.658 -0.1255  0.2741 -0.1269
  296loPI   C2B 4734  11.963  19.365   9.214  0.0191  0.0595  0.0194
  296loPI   C3B 4735  12.006  19.377   8.834 -0.2103  0.0089 -0.2194
  296loPI   C4B 4736  12.040  19.263   8.379 -0.1709 -0.2110 -0.2665
  297loPI    C1 4737   1.918   0.113  10.004 -0.0818 -0.0025  0.0464
  297loPI    C2 4738   2.290   0.089  10.149 -0.0150  0.1171 -0.1024
  297loPI    C3 4739   2.163  -0.178   9.879 -0.0489  0.0567 -0.0273
  297loPI   PO4 4740   1.941   0.426   9.920 -0.4971  0.0701 -0.2173
  297loPI   GL1 4741   1.894   0.523   9.577  0.3779 -0.1136  0.1379
  297loPI   GL2 4742   2.082   0.711   9.454 -0.2513  0.2550  0.0033
  297loPI   C1A 4743   1.917   0.340   9.137  0.0776 -0.3583  0.1569
  297loPI   C2A 4744   1.836   0.435   8.701 -0.0426 -0.2329 -0.4113
  297loPI   C3A 4745   1.839   0.563   8.348  0.1309  0.1428 -0.2414
  297loPI   C4A 4746   1.748   0.448   7.948  0.3274  0.1784  0.2342
  297loPI   C5A 4747   1.669   0.547   7.580 -0.0472  0.1087 -0.0958
  297loPI   C6A 4748   1.977   0.798   7.284 -0.1102 -0.0985  0.2394
  297loPI   C1B 4749   2.326   0.662   9.049 -0.3331  0.0450  0.0480
  297loPI   C2B 4750   2.349   0.649   8.549  0.1827  0.4015  0.2468
  297loPI   C3B 4751   2.229   0.662   8.094 -0.1539 -0.0141 -0.0382
  297loPI   C4B 4752   2.326   0.654   7.706  0.0957 -0.0014 -0.2353
  298loPI    C1 4753  15.277   1.332   9.914  0.0750 -0.0168 -0.0081
  298loPI    C2 4754  15.168   1.480  10.270  0.0368  0.1361 -0.0826
  298loPI    C3 4755  14.891   1.331  10.022  0.0588  0.0637 -0.0639
  298loPI   PO4 4756  15.460   1.502   9.864  0.3112 -0.1498  0.1240
  298loPI   GL1 4757  15.597   1.642   9.492  0.0145  0.2563  0.0972
  298loPI   GL2 4758  15.753   1.884   9.471  0.3458  0.0183  0.1376
  298loPI   C1A 4759  15.243   1.589   9.184 -0.0579  0.1425 -0.2844
  298loPI   C2A 4760  15.134   1.586   8.861 -0.0019  0.4010 -0.1102
  298loPI   C3A 4761  15.206   1.628   8.401 -0.6709 -0.0044 -0.0255
  298loPI   C4A 4762  15.260   1.546   8.026 -0.1796  0.0315  0.1429
  298loPI   C5A 4763  15.402   1.811   7.738 -0.1664  0.2174  0.1338
  298loPI   C6A 4764  15.375   1.621   7.322  0.3842  0.0901 -0.1626
  298loPI   C1B 4765  15.963   1.647   9.103  0.1688  0.0986 -0.1358
  298loPI   C2B 4766  16.086   1.506   8.672  0.0259  0.0545 -0.2929
  298loPI   C3B 4767  16.260   1.419   8.332 -0.2651  0.2008  0.0804
  298loPI   C4B 4768  16.423   1.193   8.053 -0.2312 -0.2165 -0.0297
  299loPI    C1 4769  15.302   4.135   9.899  0.2432  0.0361 -0.0113
  299loPI    C2 4770  15.229   4.382  10.205 -0.1959 -0.0972 -0.0012
  299loPI    C3 4771  15.157   4.501   9.830 -0.0633 -0.0850 -0.0234
  299loPI   PO4 4772  15.159   3.883   9.900  0.1333 -0.0249  0.0090
  299loPI   GL1 4773  15.122   3.647   9.619 -0.0577 -0.1176  0.1208
  299loPI   GL2 4774  15.429   3.749   9.518 -0.0053 -0.1647  0.1279
  299loPI   C1A 4775  15.078   3.714   9.115 -0.2266  0.1802 -0.0392
  299loPI   C2A 4776  15.060   4.046   8.809 -0.0601 -0.1183 -0.0052
  299loPI   C3A 4777  15.079   3.896   8.381 -0.0306 -0.3096  0.1475
  299loPI   C4A 4778  15.081   3.855   7.909  0.3186 -0.0917  0.1913
  299loPI   C5A 4779  15.382   3.605   7.658  0.1575  0.3067 -0.0667
  299loPI   C6A 4780  15.761   3.409   7.468 -0.3575  0.0953 -0.0561
  299loPI   C1B 4781  15.340   4.087   9.272 -0.2415 -0.0369  0.2364
  299loPI   C2B 4782  15.485   4.386   8.944  0.0261 -0.0268  0.2376
  299loPI   C3B 4783  15.403   4.283   8.474 -0.3414  0.1272 -0.0224
  299loPI   C4B 4784  15.286   4.281   8.074  0.2011  0.1118  0.2567
  300loPI    C1 4785  17.691  13.199  10.073  0.1275  0.0366 -0.1503
  300loPI    C2 4786  17.330  13.088  10.207  0.2671 -0.0694  0.1479
  300loPI    C3 4787  17.624  13.168  10.466  0.4001  0.2241 -0.0861
  300loPI   PO4 4788  17.670  13.155   9.765  0.1011 -0.0924 -0.3408
  300loPI   GL1 4789  17.586  13.394   9.354 -0.0211 -0.1632  0.3284
  300loPI   GL2 4790  17.306  13.128   9.394 -0.1346  0.0493 -0.0452
  300loPI   C1A 4791  17.556  13.614   8.919  0.1024  0.3618 -0.1750
  300loPI   C2A 4792  17.212  13.819   8.710  0.0499  0.1438  0.3292
  300loPI   C3A 4793  16.846  13.946   8.417  0.0949  0.0369  0.1131
  300loPI   C4A 4794  16.819  13.651   7.995 -0.1415  0.1531 -0.2664
  300loPI   C5A 4795  17.002  13.522   7.597  0.1102  0.0851 -0.2127
  300loPI   C6A 4796  17.180  13.435   7.126  0.0456 -0.0150 -0.1984
  300loPI   C1B 4797  17.181  13.216   8.956  0.0733 -0.2222  0.0643
  300loPI   C2B 4798  17.092  13.323   8.545 -0.0703 -0.2730 -0.0043
  300loPI   C3B 4799  17.278  13.486   8.110  0.2635 -0.4124  0.0616
  300loPI   C4B 4800  17.559  13.493   7.789 -0.1490 -0.1152 -0.4249
  301loPI    C1 4801  12.939  13.877  10.261  0.0790  0.1820 -0.1108
  301loPI    C2 4802  12.825  13.549  10.062 -0.1261  0.1815  0.0050
  301loPI    C3 4803  13.159  13.543  10.282  0.0598  0.1583 -0.2729
  301loPI   PO4 4804  12.953  14.054  10.006  0.1705  0.1293  0.2289
  301loPI   GL1 4805  12.887  14.304   9.605  0.1478  0.0368 -0.0241
  301loPI   GL2 4806  12.569  14.318   9.470 -0.1217  0.2012  0.0088
  301loPI   C1A 4807  13.107  14.275   9.271  0.2994  0.0394 -0.1331
  301loPI   C2A 4808  13.141  14.268   8.784 -0.0591 -0.0317  0.0877
  301loPI   C3A 4809  13.160  14.356   8.329 -0.0403 -0.3341  0.1047
  301loPI   C4A 4810  12.912  14.571   7.867 -0.1195  0.1413 -0.1905
  301loPI   C5A 4811  12.768  14.531   7.367  0.0343  0.2682  0.1615
  301loPI   C6A 4812  12.979  14.673   7.099 -0.0162  0.0255  0.3448
  301loPI   C1B 4813  12.651  14.307   9.025 -0.1039  0.2186  0.0269
  301loPI   C2B 4814  12.720  14.300   8.595  0.0177 -0.0171  0.0531
  301loPI   C3B 4815  12.643  14.262   8.129 -0.0999 -0.1154  0.1313
  301loPI   C4B 4816  12.468  14.223   7.700 -0.2062  0.1485  0.2135
  302loPI    C1 4817   5.017  15.951   9.882 -0.2376 -0.0426  0.1289
  302loPI    C2 4818   5.313  15.853  10.132 -0.0237 -0.2355 -0.1931
  302loPI    C3 4819   4.932  15.808  10.246  0.0695 -0.2443  0.1244
  302loPI   PO4 4820   5.159  15.930   9.664  0.0306 -0.1418 -0.1518
  302loPI   GL1 4821   5.276  16.151   9.352 -0.2113  0.0861  0.3855
  302loPI   GL2 4822   5.544  16.048   9.310  0.1822  0.0470 -0.1655
  302loPI   C1A 4823   4.979  16.225   9.043  0.0520 -0.1103 -0.2139
  302loPI   C2A 4824   5.093  16.314   8.662  0.1651  0.1686 -0.1512
  302loPI   C3A 4825   5.253  16.368   8.306  0.1366 -0.1637  0.1013
  302loPI   C4A 4826   5.185  16.444   7.783 -0.4330 -0.0244 -0.3075
  302loPI   C5A 4827   5.420  16.882   7.550 -0.1271 -0.2340 -0.1240
  302loPI   C6A 4828   5.541  17.106   7.086  0.3071  0.1337 -0.0328
  302loPI   C1B 4829   5.574  16.194   8.854 -0.0874 -0.1431 -0.0834
  302loPI   C2B 4830   5.691  16.514   8.448  0.0431 -0.0194  0.1855
  302loPI   C3B 4831   5.595  16.581   7.997  0.0739 -0.1000  0.2215
  302loPI   C4B 4832   5.773  16.541   7.598  0.1357 -0.0512  0.2820
  303loPI    C1 4833   9.048   2.187   9.881  0.2220  0.0089  0.3161
  303loPI    C2 4834   8.765   2.415  10.050 -0.0393  0.0543 -0.1658
  303loPI    C3 4835   8.836   2.047  10.191 -0.4066  0.0061 -0.0976
  303loPI   PO4 4836   9.082   2.189   9.697 -0.1107 -0.0067  0.1562
  303loPI   GL1 4837   8.865   2.114   9.326 -0.0176 -0.0025  0.0729
  303loPI   GL2 4838   9.060   1.918   9.259  0.1022  0.3922 -0.2273
  303loPI   C1A 4839   8.744   2.206   8.998  0.1347  0.1268  0.0979
  303loPI   C2A 4840   8.894   2.469   8.659 -0.2536  0.1008  0.1011
  303loPI   C3A 4841   8.999   2.491   8.168  0.3238 -0.0900 -0.1628
  303loPI   C4A 4842   9.033   2.413   7.763  0.0277  0.4112  0.2139
  303loPI   C5A 4843   9.066   2.076   7.443 -0.1125 -0.1242  0.0498
  303loPI   C6A 4844   9.143   2.033   7.058  0.0568 -0.0683 -0.1756
  303loPI   C1B 4845   9.139   2.041   8.818  0.1732  0.2292  0.0355
  303loPI   C2B 4846   9.109   1.989   8.379  0.0300 -0.0439  0.1109
  303loPI   C3B 4847   9.400   2.176   8.052 -0.1295 -0.0539 -0.5478
  303loPI   C4B 4848   9.503   2.231   7.652  0.1228 -0.2379  0.5127
  304loPI    C1 4849   6.635  10.631   9.704  0.0047  0.0533 -0.1449
  304loPI    C2 4850   6.702  10.250   9.806 -0.0984  0.0002 -0.2715
  304loPI    C3 4851   6.882  10.546  10.006 -0.3045 -0.0997  0.0705
  304loPI   PO4 4852   6.602  10.650   9.474  0.3009  0.1710 -0.2570
  304loPI   GL1 4853   6.877  10.702   9.092  0.0127  0.0417 -0.0583
  304loPI   GL2 4854   7.032  11.111   9.129  0.0576  0.3928 -0.0698
  304loPI   C1A 4855   6.679  10.906   8.638  0.3463 -0.2255  0.1785
  304loPI   C2A 4856   6.743  11.290   8.348  0.3266 -0.3137  0.1698
  304loPI   C3A 4857   6.842  11.374   7.955 -0.0113 -0.0405  0.2137
  304loPI   C4A 4858   7.126  11.679   7.759 -0.2131 -0.0227  0.0397
  304loPI   C5A 4859   7.474  11.588   7.501  0.0650 -0.4066  0.1840
  304loPI   C6A 4860   7.848  11.514   7.518 -0.2039  0.0203 -0.1783
  304loPI   C1B 4861   7.154  11.224   8.706 -0.0176 -0.0366 -0.2318
  304loPI   C2B 4862   7.213  11.156   8.209  0.1225  0.4110 -0.0484
  304loPI   C3B 4863   7.183  11.171   7.731 -0.1031  0.0685 -0.2697
  304loPI   C4B 4864   7.191  11.330   7.251  0.2549 -0.0084  0.2323
  305loPI    C1 4865   6.770  15.774   9.981  0.0195  0.2898 -0.0136
  305loPI    C2 4866   6.557  15.599  10.271  0.1329  0.1406 -0.0194
  305loPI    C3 4867   6.842  15.863  10.365  0.1257  0.1408  0.0019
  305loPI   PO4 4868   6.857  15.621   9.785 -0.0662 -0.1116 -0.0469
  305loPI   GL1 4869   7.046  15.931   9.446 -0.0129  0.0553  0.1743
  305loPI   GL2 4870   6.655  15.746   9.353 -0.0148  0.1809 -0.1050
  305loPI   C1A 4871   6.893  16.155   9.224  0.4166  0.0942  0.1022
  305loPI   C2A 4872   6.977  16.322   8.807 -0.1827  0.2316  0.2843
  305loPI   C3A 4873   7.041  16.328   8.391 -0.1250  0.0381 -0.2267
  305loPI   C4A 4874   7.203  16.296   7.955  0.1541 -0.2636 -0.2003
  305loPI   C5A 4875   7.283  16.321   7.518  0.0933  0.1593  0.0437
  305loPI   C6A 4876   7.546  16.421   7.190 -0.2881  0.1352 -0.2016
  305loPI   C1B 4877   7.027  15.757   8.928  0.2629  0.4507 -0.0814
  305loPI   C2B 4878   7.034  15.864   8.466 -0.0184 -0.0648 -0.4241
  305loPI   C3B 4879   7.092  15.650   8.118 -0.4725 -0.1732 -0.1818
  305loPI   C4B 4880   7.286  15.780   7.813 -0.0299 -0.3502  0.1214
  306loPI    C1 4881  15.248   9.138   9.858  0.3035 -0.1564  0.1003
  306loPI    C2 4882  15.435   9.482   9.775  0.1403 -0.1220 -0.1345
  306loPI    C3 4883  15.281   9.421  10.139  0.2100  0.0347 -0.0779
  306loPI   PO4 4884  15.076   9.029   9.633 -0.0747  0.0841 -0.1847
  306loPI   GL1 4885  15.260   8.786   9.332 -0.1677  0.1771 -0.0313
  306loPI   GL2 4886  15.326   8.400   9.337 -0.2693 -0.1035  0.0490
  306loPI   C1A 4887  15.297   8.619   8.886  0.2998 -0.1227 -0.0767
  306loPI   C2A 4888  15.148   8.747   8.442 -0.4375 -0.0911  0.0125
  306loPI   C3A 4889  15.202   8.979   8.219  0.0884  0.1172 -0.2532
  306loPI   C4A 4890  15.152   9.317   7.842  0.2053 -0.1872  0.1806
  306loPI   C5A 4891  15.390   9.258   7.429 -0.2220  0.1860  0.1452
  306loPI   C6A 4892  15.755   9.490   7.269 -0.1078 -0.1731 -0.0741
  306loPI   C1B 4893  15.251   8.150   8.948  0.0212 -0.0420  0.0986
  306loPI   C2B 4894  15.434   8.226   8.522  0.3146  0.0136 -0.0726
  306loPI   C3B 4895  15.395   8.430   8.117 -0.1933 -0.2093  0.4189
  306loPI   C4B 4896  15.297   8.700   7.772  0.3198 -0.1576 -0.3766
  307loPI    C1 4897   9.961  16.033  10.300 -0.4310  0.0172 -0.0387
  307loPI    C2 4898   9.735  16.063  10.628 -0.0692  0.0583  0.2127
  307loPI    C3 4899  10.083  15.867  10.643 -0.1550 -0.1371 -0.2079
  307loPI   PO4 4900   9.739  15.912  10.058 -0.1709  0.2097  0.2791
  307loPI   GL1 4901   9.740  15.706   9.710 -0.0444  0.1213  0.1152
  307loPI   GL2 4902   9.572  15.533   9.580 -0.1279  0.1668 -0.1649
  307loPI   C1A 4903   9.885  15.802   9.272 -0.0049 -0.2801  0.0168
  307loPI   C2A 4904   9.989  15.946   8.799  0.1565  0.1338  0.0012
  307loPI   C3A 4905   9.858  16.096   8.360  0.0382 -0.2151 -0.1581
  307loPI   C4A 4906   9.884  16.236   7.986 -0.1340 -0.2400  0.0082
  307loPI   C5A 4907   9.743  16.560   7.622 -0.2534  0.1878 -0.1532
  307loPI   C6A 4908   9.402  16.769   7.396 -0.0535 -0.0937  0.1086
  307loPI   C1B 4909   9.420  15.723   9.204  0.3587  0.3488 -0.1818
  307loPI   C2B 4910   9.306  15.726   8.799  0.0291 -0.2755  0.1248
  307loPI   C3B 4911   9.370  15.843   8.401 -0.1090  0.4067 -0.1464
  307loPI   C4B 4912   9.485  15.937   7.997  0.1359  0.0792 -0.0364
  308loPI    C1 4913   0.322  17.398  10.454  0.0717 -0.1457  0.0266
  308loPI    C2 4914   0.514  17.678  10.666 -0.0864 -0.0449  0.0387
  308loPI    C3 4915   0.659  17.305  10.650  0.1135  0.0312  0.0405
  308loPI   PO4 4916   0.255  17.585  10.202  0.1277  0.1920  0.2213
  308loPI   GL1 4917   0.073  17.571   9.919 -0.0601  0.0044  0.0133
  308loPI   GL2 4918  -0.082  17.351   9.699 -0.3560  0.1275  0.2973
  308loPI   C1A 4919   0.260  17.668   9.458  0.1740 -0.1917 -0.0051
  308loPI   C2A 4920   0.140  17.639   8.979 -0.1103  0.1348  0.0641
  308loPI   C3A 4921   0.082  17.621   8.533  0.2622 -0.4294  0.1830
  308loPI   C4A 4922  -0.015  17.581   8.069  0.1007  0.0790 -0.2247
  308loPI   C5A 4923  -0.167  17.686   7.693 -0.0364  0.0739  0.1658
  308loPI   C6A 4924  -0.247  17.494   7.301  0.3391  0.3104  0.0969
  308loPI   C1B 4925  -0.206  17.451   9.316 -0.1863  0.2451 -0.0471
  308loPI   C2B 4926  -0.358  17.479   8.920 -0.4828 -0.0616  0.0144
  308loPI   C3B 4927  -0.378  17.468   8.479 -0.1891 -0.0097  0.0987
  308loPI   C4B 4928  -0.502  17.387   8.030  0.1354  0.2561  0.1562
  309loPI    C1 4929  13.439   7.010   9.819  0.0371 -0.2317 -0.1709
  309loPI    C2 4930  13.108   7.099  10.025  0.0193 -0.2027 -0.2119
  309loPI    C3 4931  13.455   7.043  10.217  0.0341 -0.0292 -0.1864
  309loPI   PO4 4932  13.387   7.148   9.623  0.0200  0.1680 -0.0786
  309loPI   GL1 4933  13.303   7.323   9.234  0.3196 -0.1620 -0.0806
  309loPI   GL2 4934  13.010   7.062   9.082  0.0664 -0.2231  0.1963
  309loPI   C1A 4935  13.349   7.172   8.725  0.0808 -0.0859 -0.1694
  309loPI   C2A 4936  13.206   6.912   8.407  0.0661  0.1967 -0.1467
  309loPI   C3A 4937  13.185   6.976   8.012 -0.0110 -0.4357 -0.1948
  309loPI   C4A 4938  13.445   6.974   7.551  0.2646 -0.0039  0.3929
  309loPI   C5A 4939  13.809   6.929   7.382 -0.0581  0.0041 -0.0601
  309loPI   C6A 4940  14.097   6.965   7.023 -0.2712 -0.3954 -0.1925
  309loPI   C1B 4941  12.878   7.225   8.606  0.1127  0.0075 -0.3192
  309loPI   C2B 4942  12.797   7.452   8.267  0.2628 -0.0375 -0.0099
  309loPI   C3B 4943  12.574   7.794   7.981 -0.1067 -0.0054  0.2650
  309loPI   C4B 4944  12.784   7.640   7.603  0.2060  0.0825  0.2330
  310loPI    C1 4945  16.088  12.792   9.699 -0.0662  0.0046  0.0481
  310loPI    C2 4946  15.882  13.114   9.815  0.1147  0.0965  0.1191
  310loPI    C3 4947  15.944  12.814  10.071  0.4858  0.2850  0.2575
  310loPI   PO4 4948  16.004  12.735   9.492 -0.0324 -0.4507 -0.0634
  310loPI   GL1 4949  16.218  12.597   9.200  0.0956  0.0654 -0.1367
  310loPI   GL2 4950  16.236  12.190   9.040  0.0860  0.2030  0.1289
  310loPI   C1A 4951  16.030  12.648   8.783 -0.3371  0.1110 -0.0946
  310loPI   C2A 4952  15.953  12.665   8.240 -0.1562  0.1297  0.1951
  310loPI   C3A 4953  16.008  12.730   7.824 -0.0371 -0.1282  0.2938
  310loPI   C4A 4954  15.889  12.886   7.389 -0.0612  0.4241 -0.1174
  310loPI   C5A 4955  15.506  12.738   7.111 -0.1777 -0.0225  0.1079
  310loPI   C6A 4956  15.242  12.446   6.771 -0.2487  0.0330  0.2206
  310loPI   C1B 4957  16.129  11.997   8.668 -0.3840 -0.1793  0.2307
  310loPI   C2B 4958  16.400  11.825   8.371  0.2048  0.1050 -0.0339
  310loPI   C3B 4959  16.503  11.520   8.066  0.0846  0.2243  0.0968
  310loPI   C4B 4960  16.542  11.327   7.702 -0.1413 -0.1691 -0.2187
  311loPI    C1 4961   9.922  16.527  10.701 -0.0273  0.1025  0.1068
  311loPI    C2 4962  10.101  16.338  11.005 -0.2709 -0.2301  0.0485
  311loPI    C3 4963   9.734  16.490  11.052 -0.0922  0.2063  0.0836
  311loPI   PO4 4964  10.106  16.513  10.376  0.1337 -0.3776 -0.1401
  311loPI   GL1 4965  10.007  16.733  10.040  0.0799 -0.5430  0.4012
  311loPI   GL2 4966   9.763  16.755   9.784 -0.0297 -0.0317  0.3058
  311loPI   C1A 4967  10.202  16.628   9.638 -0.1634 -0.1615 -0.0525
  311loPI   C2A 4968  10.185  16.635   9.197 -0.1656 -0.1670 -0.0705
  311loPI   C3A 4969  10.250  16.596   8.678 -0.1482 -0.0480  0.0497
  311loPI   C4A 4970  10.305  16.635   8.220  0.4019 -0.2565 -0.2013
  311loPI   C5A 4971  10.229  16.522   7.828  0.1240  0.0945 -0.1082
  311loPI   C6A 4972  10.356  16.195   7.626  0.0449  0.1858 -0.1502
  311loPI   C1B 4973   9.790  16.831   9.383  0.0184  0.3116 -0.1815
  311loPI   C2B 4974   9.957  17.043   8.959 -0.0894 -0.2179  0.0441
  311loPI   C3B 4975  10.211  17.211   8.598  0.2136 -0.1327  0.2302
  311loPI   C4B 4976  10.436  17.228   8.354 -0.0604  0.1190  0.1656
  312loPI    C1 4977  18.158   1.693   9.976  0.1146  0.0023 -0.2106
  312loPI    C2 4978  18.160   1.330  10.145 -0.3456  0.0547 -0.0792
  312loPI    C3 4979  18.492   1.474   9.975 -0.0865 -0.3167  0.1009
  312loPI   PO4 4980  17.809   1.600   9.850  0.0683  0.1920  0.0554
  312loPI   GL1 4981  17.451   1.414   9.652 -0.2224  0.3222 -0.1047
  312loPI   GL2 4982  17.706   1.201   9.550  0.0059  0.0517  0.2067
  312loPI   C1A 4983  17.274   1.097   9.400  0.3061 -0.2468 -0.0045
  312loPI   C2A 4984  17.424   0.786   9.284 -0.2070 -0.1718 -0.0185
  312loPI   C3A 4985  17.486   0.429   8.985  0.0134  0.4290  0.2231
  312loPI   C4A 4986  17.287   0.517   8.578  0.1301 -0.3062  0.3217
  312loPI   C5A 4987  16.998   0.383   8.308  0.1258 -0.0788  0.1981
  312loPI   C6A 4988  16.855   0.299   7.975  0.3591 -0.0968  0.0583
  312loPI   C1B 4989  17.949   1.119   9.162  0.1263 -0.4086 -0.2736
  312loPI   C2B 4990  18.014   1.086   8.773  0.1778 -0.3414  0.1472
  312loPI   C3B 4991  17.914   1.086   8.355  0.2065  0.2841  0.0548
  312loPI   C4B 4992  17.925   1.063   7.982  0.1319  0.2162  0.2028
  313loPI    C1 4993  15.198  13.197   9.632  0.1521 -0.0712 -0.1161
  313loPI    C2 4994  15.106  12.851   9.454  0.0107 -0.1273  0.0626
  313loPI    C3 4995  14.815  13.094   9.580  0.1089  0.1055 -0.1521
  313loPI   PO4 4996  15.497  13.158   9.513  0.1086  0.2864 -0.0423
  313loPI   GL1 4997  15.705  13.321   9.162 -0.1064  0.1265 -0.0651
  313loPI   GL2 4998  16.005  13.210   9.348 -0.1848 -0.0615  0.1290
  313loPI   C1A 4999  15.785  13.224   8.718  0.0026  0.1370  0.2998
  313loPI   C2A 5000  15.949  13.206   8.231  0.1295  0.2206  0.1429
  313loPI   C3A 5001  16.054  13.254   7.726 -0.0358  0.0970 -0.4760
  313loPI   C4A 5002  15.917  13.385   7.315  0.1081  0.0110 -0.0109
  313loPI   C5A 5003  15.759  13.793   7.067  0.2621  0.0901 -0.3620
  313loPI   C6A 5004  15.896  14.265   6.984  0.1805  0.1281  0.1082
  313loPI   C1B 5005  16.263  13.069   8.990 -0.0260 -0.2073 -0.4345
  313loPI   C2B 5006  16.315  13.044   8.602 -0.0185 -0.1683  0.1272
  313loPI   C3B 5007  16.406  13.008   8.098  0.2324 -0.2285 -0.0974
  313loPI   C4B 5008  16.501  12.828   7.641  0.0017  0.1306 -0.0157
  314loPI    C1 5009   3.186  11.775  10.054  0.0007  0.0319 -0.1671
  314loPI    C2 5010   2.879  12.030  10.073  0.0583  0.1144 -0.3230
  314loPI    C3 5011   2.821  11.642  10.149 -0.0273  0.1740 -0.0730
  314loPI   PO4 5012   3.342  11.794   9.777 -0.0721  0.0860  0.0048
  314loPI   GL1 5013   3.288  12.046   9.382  0.1687 -0.1335 -0.1368
  314loPI   GL2 5014   3.171  11.750   9.248 -0.0804 -0.1549  0.0916
  314loPI   C1A 5015   3.323  12.223   9.023  0.2600 -0.2854 -0.2340
  314loPI   C2A 5016   3.581  12.411   8.669 -0.3185  0.0909  0.2110
  314loPI   C3A 5017   3.614  12.210   8.197 -0.4031  0.1960 -0.4260
  314loPI   C4A 5018   3.693  12.247   7.727  0.0708 -0.1832  0.1336
  314loPI   C5A 5019   3.947  12.311   7.372  0.0054 -0.1047  0.0273
  314loPI   C6A 5020   4.266  12.083   7.325 -0.0052 -0.1310  0.2518
  314loPI   C1B 5021   3.466  11.704   8.849  0.0641 -0.0990  0.1238
  314loPI   C2B 5022   3.668  11.746   8.463  0.2061  0.1082 -0.1272
  314loPI   C3B 5023   3.591  11.747   8.045  0.2014  0.0642 -0.4106
  314loPI   C4B 5024   3.579  11.765   7.557 -0.4614  0.2885 -0.0353
  315loPI    C1 5025   4.559  13.425   9.834  0.0381  0.1281  0.0243
  315loPI    C2 5026   4.280  13.294  10.088 -0.0903 -0.1475 -0.2519
  315loPI    C3 5027   4.651  13.144  10.103 -0.1028 -0.1774 -0.2403
  315loPI   PO4 5028   4.397  13.467   9.581 -0.3439  0.0913  0.1897
  315loPI   GL1 5029   4.425  13.704   9.302 -0.2707 -0.1275 -0.1205
  315loPI   GL2 5030   4.276  13.947   9.167 -0.0506  0.1559 -0.5011
  315loPI   C1A 5031   4.595  13.632   8.837  0.1624  0.0233  0.1784
  315loPI   C2A 5032   4.796  13.488   8.467 -0.0693 -0.0562 -0.0543
  315loPI   C3A 5033   4.888  13.395   8.122 -0.1851  0.1317 -0.2370
  315loPI   C4A 5034   4.846  13.643   7.797 -0.1213 -0.0301 -0.0599
  315loPI   C5A 5035   5.005  13.908   7.594 -0.1660 -0.0452  0.1748
  315loPI   C6A 5036   5.207  14.234   7.312  0.0348  0.1604  0.2578
  315loPI   C1B 5037   4.159  13.825   8.783  0.1311 -0.2234 -0.1830
  315loPI   C2B 5038   4.167  13.603   8.358  0.0827 -0.0752  0.1294
  315loPI   C3B 5039   4.056  13.455   7.772  0.3307  0.1788 -0.0835
  315loPI   C4B 5040   3.813  13.473   7.388 -0.1133  0.1010  0.0074
  316loPI    C1 5041   3.054  17.583   9.920 -0.1554  0.0184  0.0311
  316loPI    C2 5042   2.909  17.268  10.118 -0.0575 -0.0642 -0.0271
  316loPI    C3 5043   2.934  17.624  10.299  0.1166 -0.1592  0.1395
  316loPI   PO4 5044   2.920  17.539   9.681  0.1246 -0.2633 -0.2020
  316loPI   GL1 5045   3.061  17.609   9.246 -0.3234  0.1757  0.2347
  316loPI   GL2 5046   2.728  17.569   9.227  0.1655  0.1368  0.2206
  316loPI   C1A 5047   3.255  17.378   8.938  0.0509 -0.1749 -0.1888
  316loPI   C2A 5048   3.222  17.066   8.674 -0.0731 -0.1919 -0.1403
  316loPI   C3A 5049   3.151  16.729   8.335 -0.2880  0.2670  0.0501
  316loPI   C4A 5050   2.957  16.697   7.858  0.2607  0.0023  0.3607
  316loPI   C5A 5051   3.209  16.772   7.472  0.2169 -0.0188  0.2606
  316loPI   C6A 5052   3.417  16.987   7.203 -0.1691  0.0014  0.1426
  316loPI   C1B 5053   2.550  17.569   8.809 -0.2314  0.2134 -0.0165
  316loPI   C2B 5054   2.479  17.537   8.382 -0.4394  0.0612 -0.0505
  316loPI   C3B 5055   2.555  17.522   7.955 -0.0875  0.1815 -0.2231
  316loPI   C4B 5056   2.685  17.572   7.581  0.0497 -0.0349 -0.2077
  317loPI    C1 5057  13.699   9.521   9.686  0.1558 -0.1299  0.2014
  317loPI    C2 5058  13.751   9.913   9.744  0.2755 -0.0876 -0.1647
  317loPI    C3 5059  13.733   9.665  10.057  0.0496  0.2255  0.0775
  317loPI   PO4 5060  13.486   9.550   9.485 -0.0468  0.0857  0.4202
  317loPI   GL1 5061  13.130   9.626   9.127  0.0264 -0.0639 -0.3841
  317loPI   GL2 5062  13.304   9.838   9.014 -0.2211  0.0984 -0.0651
  317loPI   C1A 5063  13.066   9.355   8.838  0.0881 -0.3333 -0.0788
  317loPI   C2A 5064  12.971   9.420   8.441  0.4020  0.2148 -0.1153
  317loPI   C3A 5065  12.905   9.437   8.007 -0.0983 -0.3638  0.1655
  317loPI   C4A 5066  13.046   9.231   7.648 -0.3477  0.3988  0.2456
  317loPI   C5A 5067  13.414   9.113   7.370 -0.1530  0.3289  0.1415
  317loPI   C6A 5068  13.841   9.178   7.284  0.0922 -0.0973  0.0187
  317loPI   C1B 5069  13.263   9.859   8.542  0.1991  0.2150  0.0003
  317loPI   C2B 5070  13.341   9.727   8.202 -0.2207  0.2900  0.1226
  317loPI   C3B 5071  13.420   9.416   7.900 -0.2864  0.0794  0.2160
  317loPI   C4B 5072  13.769   9.231   7.780 -0.0376 -0.0934  0.1036
  318loPI    C1 5073   3.169  16.188  10.036  0.0191 -0.1829  0.0098
  318loPI    C2 5074   3.253  16.534  10.217  0.1355 -0.1635 -0.0805
  318loPI    C3 5075   3.480  16.212  10.286 -0.1320 -0.2949  0.2123
  318loPI   PO4 5076   3.052  16.242   9.791  0.3636 -0.0128  0.2144
  318loPI   GL1 5077   2.938  16.016   9.440 -0.1835  0.3575  0.0343
  318loPI   GL2 5078   2.726  16.058   9.209  0.1001  0.1002  0.1729
  318loPI   C1A 5079   3.156  16.039   8.948 -0.0557 -0.0537  0.3335
  318loPI   C2A 5080   3.101  16.190   8.550 -0.1047 -0.1534  0.3085
  318loPI   C3A 5081   2.906  16.259   8.159  0.3400  0.0790  0.2181
  318loPI   C4A 5082   2.996  16.221   7.709  0.0349 -0.0120 -0.2431
  318loPI   C5A 5083   3.316  16.135   7.307  0.1368 -0.1702  0.0523
  318loPI   C6A 5084   3.375  16.478   7.030  0.0253 -0.1197 -0.0458
  318loPI   C1B 5085   2.418  16.030   8.801 -0.1210  0.1551  0.1946
  318loPI   C2B 5086   2.476  15.936   8.233 -0.2765 -0.2232 -0.1547
  318loPI   C3B 5087   2.526  15.919   7.742  0.1408  0.0920 -0.1827
  318loPI   C4B 5088   2.615  16.058   7.357 -0.0266  0.3012  0.1710
  319loPI    C1 5089  17.742  10.354   9.994 -0.1084 -0.0704 -0.1302
  319loPI    C2 5090  18.027  10.497  10.236 -0.0809  0.0534 -0.2347
  319loPI    C3 5091  17.642  10.564  10.320 -0.0730  0.0572 -0.2008
  319loPI   PO4 5092  17.783  10.479   9.774  0.0600  0.2142 -0.1362
  319loPI   GL1 5093  17.921  10.338   9.342 -0.2222  0.2041 -0.2273
  319loPI   GL2 5094  17.725  10.678   9.271 -0.0240 -0.4097  0.3855
  319loPI   C1A 5095  18.179  10.253   8.984 -0.2152  0.1276 -0.1686
  319loPI   C2A 5096  18.377   9.936   8.761 -0.0441 -0.0906  0.2693
  319loPI   C3A 5097  18.648   9.622   8.694  0.0065 -0.0818  0.1932
  319loPI   C4A 5098  18.943   9.481   8.360  0.1621 -0.1332 -0.0707
  319loPI   C5A 5099  19.206   9.420   7.987  0.2265 -0.1432 -0.1869
  319loPI   C6A 5100  19.548   9.119   7.914 -0.1056 -0.2759 -0.2246
  319loPI   C1B 5101  17.756  10.598   8.832 -0.0618 -0.0027  0.1123
  319loPI   C2B 5102  17.880  10.581   8.418 -0.1205  0.1424 -0.0406
  319loPI   C3B 5103  17.883  10.826   8.041 -0.2855 -0.1520  0.0070
  319loPI   C4B 5104  17.886  10.856   7.600 -0.0452  0.0748 -0.2408
  320loPI    C1 5105  16.448   7.582   9.800 -0.0311  0.0485  0.0387
  320loPI    C2 5106  16.253   7.374  10.081  0.2276 -0.0430  0.1532
  320loPI    C3 5107  16.653   7.375  10.073  0.2247  0.0954 -0.1149
  320loPI   PO4 5108  16.294   7.445   9.562 -0.1575 -0.2286  0.1637
  320loPI   GL1 5109  16.203   7.359   9.145 -0.0256 -0.2022  0.3401
  320loPI   GL2 5110  16.070   7.125   9.056 -0.1132 -0.1198 -0.2250
  320loPI   C1A 5111  16.018   7.581   8.746 -0.1626 -0.0901  0.1348
  320loPI   C2A 5112  15.919   7.579   8.333  0.1640 -0.2914  0.1896
  320loPI   C3A 5113  15.760   7.534   7.909 -0.2089 -0.0755  0.0624
  320loPI   C4A 5114  15.814   7.581   7.428 -0.0100 -0.0838  0.2095
  320loPI   C5A 5115  15.731   7.532   6.939 -0.1313  0.2330 -0.0717
  320loPI   C6A 5116  15.828   7.785   6.523  0.1104 -0.2492 -0.1611
  320loPI   C1B 5117  16.143   7.132   8.605 -0.1031  0.2615 -0.2412
  320loPI   C2B 5118  16.201   7.246   8.128  0.1850  0.0896 -0.1693
  320loPI   C3B 5119  16.258   7.397   7.725  0.1060 -0.1112 -0.1748
  320loPI   C4B 5120  16.273   7.499   7.270  0.0571 -0.2209 -0.1505
  321loPI    C1 5121   8.352   5.204   9.903  0.0380 -0.2230  0.1191
  321loPI    C2 5122   8.597   4.891   9.942  0.0620 -0.2040  0.1214
  321loPI    C3 5123   8.237   4.886  10.116  0.0163 -0.2781  0.0257
  321loPI   PO4 5124   8.403   5.310   9.570 -0.1437 -0.0366  0.0065
  321loPI   GL1 5125   8.459   5.158   9.080 -0.0559  0.2314  0.0254
  321loPI   GL2 5126   8.542   5.401   9.082  0.1162  0.1089  0.2231
  321loPI   C1A 5127   8.343   5.087   8.632  0.1641  0.0782 -0.6942
  321loPI   C2A 5128   8.307   5.383   8.249 -0.2190  0.1855  0.0205
  321loPI   C3A 5129   8.463   5.400   7.785 -0.0382 -0.1060 -0.0384
  321loPI   C4A 5130   8.584   5.537   7.433  0.1001  0.0449  0.3847
  321loPI   C5A 5131   8.767   5.600   7.062  0.3044 -0.3983 -0.0439
  321loPI   C6A 5132   8.859   5.415   6.737 -0.3337 -0.3174 -0.2483
  321loPI   C1B 5133   8.209   5.522   8.716 -0.2711 -0.1799 -0.0871
  321loPI   C2B 5134   7.921   5.711   8.320  0.1857  0.1220  0.1065
  321loPI   C3B 5135   7.969   5.648   7.967  0.1258  0.1843  0.1825
  321loPI   C4B 5136   7.784   5.692   7.557  0.0441  0.1450  0.4007
  322loPI    C1 5137   3.815   2.284  10.161  0.0427  0.1974 -0.3687
  322loPI    C2 5138   4.190   2.412  10.101  0.1896  0.0409  0.1647
  322loPI    C3 5139   3.922   2.652  10.277  0.0702  0.1082 -0.1044
  322loPI   PO4 5140   3.784   2.196   9.912  0.0884 -0.0215 -0.3390
  322loPI   GL1 5141   3.616   1.981   9.590  0.0647 -0.0448 -0.0966
  322loPI   GL2 5142   3.517   2.213   9.467  0.1232 -0.2521  0.0233
  322loPI   C1A 5143   3.771   2.024   9.106  0.2463 -0.0030  0.1014
  322loPI   C2A 5144   3.676   2.027   8.612 -0.2029 -0.1216 -0.1587
  322loPI   C3A 5145   3.696   1.864   8.153 -0.1430 -0.0344 -0.0139
  322loPI   C4A 5146   3.560   1.660   7.834 -0.0160 -0.0142 -0.0554
  322loPI   C5A 5147   3.567   1.959   7.588  0.0981  0.1492 -0.1480
  322loPI   C6A 5148   3.370   2.063   7.126 -0.1604 -0.0557 -0.1087
  322loPI   C1B 5149   3.221   2.212   9.145  0.1484  0.2515 -0.2581
  322loPI   C2B 5150   3.155   2.121   8.698 -0.0521 -0.1091 -0.2243
  322loPI   C3B 5151   3.271   2.064   8.308  0.3293 -0.0040  0.1139
  322loPI   C4B 5152   3.224   2.015   7.921  0.3678  0.1492 -0.1478
  323loPI    C1 5153  18.806  14.850  10.029 -0.0560 -0.0622 -0.1363
  323loPI    C2 5154  18.621  14.953  10.369 -0.0655 -0.0344 -0.1498
  323loPI    C3 5155  18.923  15.176  10.230 -0.0610 -0.0464 -0.1592
  323loPI   PO4 5156  18.526  14.832   9.858 -0.3154 -0.0431  0.0417
  323loPI   GL1 5157  18.413  14.851   9.439 -0.0746 -0.1928 -0.2583
  323loPI   GL2 5158  18.810  15.030   9.493 -0.1016 -0.3008  0.2212
  323loPI   C1A 5159  18.533  14.618   9.175  0.1764  0.0694 -0.1155
  323loPI   C2A 5160  18.483  14.601   8.783 -0.3312  0.1562  0.3110
  323loPI   C3A 5161  18.410  14.645   8.438 -0.0872 -0.0027 -0.1100
  323loPI   C4A 5162  18.601  14.624   8.044 -0.4006  0.1545  0.2211
  323loPI   C5A 5163  18.609  14.457   7.576 -0.2385  0.1150  0.0560
  323loPI   C6A 5164  18.589  14.547   7.042 -0.0407  0.0208  0.1635
  323loPI   C1B 5165  18.928  14.879   9.040  0.2034  0.0845 -0.1172
  323loPI   C2B 5166  18.806  14.920   8.617 -0.3091 -0.2760 -0.0655
  323loPI   C3B 5167  18.871  15.025   8.173 -0.0047 -0.1047  0.3681
  323loPI   C4B 5168  18.882  15.011   7.727 -0.0695 -0.0980  0.0743
  324loPI    C1 5169   5.208   7.368   9.921  0.3554 -0.0969 -0.1363
  324loPI    C2 5170   5.234   7.764   9.971 -0.0758 -0.0967  0.1384
  324loPI    C3 5171   5.099   7.533  10.268 -0.1861 -0.4091 -0.1474
  324loPI   PO4 5172   5.402   7.309   9.774  0.2545 -0.2476  0.3171
  324loPI   GL1 5173   5.434   7.238   9.316 -0.1895  0.0677  0.0637
  324loPI   GL2 5174   5.680   7.272   9.190  0.4176  0.1991 -0.0467
  324loPI   C1A 5175   5.281   7.285   8.872 -0.0832  0.3067 -0.1287
  324loPI   C2A 5176   5.414   7.371   8.356 -0.2083 -0.0663  0.1456
  324loPI   C3A 5177   5.354   7.564   8.006  0.3307 -0.1101  0.1448
  324loPI   C4A 5178   5.386   7.658   7.577 -0.1326  0.1445  0.0441
  324loPI   C5A 5179   5.687   7.445   7.184  0.1135  0.0394 -0.0684
  324loPI   C6A 5180   5.575   7.011   6.910  0.2585 -0.0725  0.0728
  324loPI   C1B 5181   5.689   7.099   8.713  0.0244  0.3266 -0.1368
  324loPI   C2B 5182   5.789   6.994   8.280 -0.1392 -0.0454  0.1381
  324loPI   C3B 5183   5.718   6.903   7.777  0.0552  0.1181 -0.3898
  324loPI   C4B 5184   5.614   6.677   7.424  0.0326 -0.3229 -0.0053
  325loPI    C1 5185   0.745  18.048   9.965 -0.1049  0.0968 -0.1184
  325loPI    C2 5186   1.043  17.908  10.193 -0.1796 -0.1014 -0.1399
  325loPI    C3 5187   0.686  17.989  10.356 -0.0730  0.2790 -0.0854
  325loPI   PO4 5188   0.717  17.920   9.792 -0.1454  0.1259 -0.1963
  325loPI   GL1 5189   0.770  17.693   9.400 -0.0819 -0.0160  0.0891
  325loPI   GL2 5190   0.733  17.333   9.308  0.1943  0.1770  0.1195
  325loPI   C1A 5191   0.615  17.750   9.076  0.1910 -0.5440  0.2782
  325loPI   C2A 5192   0.671  17.749   8.626 -0.1398  0.1804 -0.1699
  325loPI   C3A 5193   0.488  17.734   8.242  0.0284  0.2520 -0.1073
  325loPI   C4A 5194   0.374  17.676   7.762 -0.1531  0.0435  0.0039
  325loPI   C5A 5195   0.271  17.895   7.397  0.0468  0.2644  0.0740
  325loPI   C6A 5196  -0.105  17.884   7.056  0.0116 -0.1233 -0.0234
  325loPI   C1B 5197   0.629  17.252   8.895 -0.0027  0.1090  0.2512
  325loPI   C2B 5198   0.509  17.282   8.450 -0.0480 -0.1746 -0.0934
  325loPI   C3B 5199   0.425  17.193   8.102  0.3185  0.3340  0.1004
  325loPI   C4B 5200   0.290  17.229   7.641  0.2492  0.1737 -0.0839
  326loPI    C1 5201  18.401   3.233   9.958 -0.2839 -0.1899 -0.0285
  326loPI    C2 5202  18.516   3.615   9.995 -0.1469 -0.2431  0.1052
  326loPI    C3 5203  18.284   3.447  10.274 -0.1952 -0.2622  0.0539
  326loPI   PO4 5204  18.289   3.230   9.654 -0.6277  0.1211  0.1448
  326loPI   GL1 5205  18.323   3.504   9.250  0.2516  0.1946 -0.1862
  326loPI   GL2 5206  18.505   3.238   9.190 -0.2366  0.0912 -0.2102
  326loPI   C1A 5207  18.257   3.319   8.788 -0.1049 -0.0281 -0.0175
  326loPI   C2A 5208  18.266   3.305   8.426 -0.0098 -0.1853  0.0866
  326loPI   C3A 5209  18.169   3.281   8.058 -0.2420 -0.0935  0.3257
  326loPI   C4A 5210  18.147   3.079   7.697  0.1040 -0.0591  0.1567
  326loPI   C5A 5211  17.954   2.802   7.453  0.0960 -0.1117  0.1591
  326loPI   C6A 5212  17.639   2.505   7.287 -0.1330  0.1507 -0.2592
  326loPI   C1B 5213  18.739   3.143   8.928 -0.1179 -0.0662  0.0850
  326loPI   C2B 5214  18.792   3.135   8.471  0.2067  0.1099 -0.1740
  326loPI   C3B 5215  18.807   3.152   8.090 -0.3126 -0.1547  0.2348
  326loPI   C4B 5216  18.641   3.211   7.763 -0.0715  0.0442 -0.2258
  327loPI    C1 5217  10.323   2.771  10.352 -0.1363  0.0760  0.0525
  327loPI    C2 5218  10.020   2.555  10.206 -0.2209  0.3001 -0.1081
  327loPI    C3 5219   9.958   2.805  10.511 -0.1003  0.0241  0.1473
  327loPI   PO4 5220  10.453   2.707  10.164 -0.0634  0.2548  0.2014
  327loPI   GL1 5221  10.329   2.672   9.788 -0.3720 -0.0630  0.0839
  327loPI   GL2 5222  10.022   2.514   9.708  0.0998 -0.0317  0.0826
  327loPI   C1A 5223  10.552   2.947   9.434 -0.0631 -0.4227 -0.0293
  327loPI   C2A 5224  10.464   2.962   8.970 -0.1445  0.1110  0.0396
  327loPI   C3A 5225  10.577   2.839   8.568  0.1941 -0.0869  0.0589
  327loPI   C4A 5226  10.745   2.746   8.200 -0.1149 -0.0813  0.2466
  327loPI   C5A 5227  10.773   2.686   7.846  0.2596 -0.2548  0.0722
  327loPI   C6A 5228  10.720   2.733   7.444 -0.1517 -0.0540  0.2453
  327loPI   C1B 5229  10.092   2.870   9.303 -0.4050  0.3373 -0.3456
  327loPI   C2B 5230   9.945   3.146   9.063  0.0766  0.1168  0.0486
  327loPI   C3B 5231   9.997   3.167   8.652 -0.2319 -0.0463 -0.1167
  327loPI   C4B 5232  10.117   2.870   8.435  0.0632  0.0893 -0.0069
  328loPI    C1 5233   1.350   6.866   9.586 -0.2166 -0.0083 -0.0288
  328loPI    C2 5234   1.289   7.210   9.780 -0.0179 -0.0290  0.0717
  328loPI    C3 5235   1.355   6.873   9.985 -0.1053 -0.1073 -0.0280
  328loPI   PO4 5236   1.225   6.936   9.336  0.0036 -0.0607 -0.0476
  328loPI   GL1 5237   1.104   6.768   8.908 -0.1501 -0.0111 -0.4152
  328loPI   GL2 5238   0.982   6.377   8.898  0.0032 -0.0206  0.2398
  328loPI   C1A 5239   1.057   6.651   8.476  0.1955  0.0065 -0.0057
  328loPI   C2A 5240   1.170   6.547   8.097  0.0712  0.1873 -0.0383
  328loPI   C3A 5241   1.083   6.668   7.652 -0.0927 -0.1728  0.1540
  328loPI   C4A 5242   1.098   6.686   7.265 -0.0716 -0.1145 -0.1530
  328loPI   C5A 5243   1.350   6.917   7.018 -0.0186  0.2254 -0.0083
  328loPI   C6A 5244   1.712   7.047   7.108  0.0412 -0.2476 -0.3567
  328loPI   C1B 5245   1.043   6.168   8.554  0.1619  0.0600  0.1594
  328loPI   C2B 5246   1.349   6.123   8.342  0.2491 -0.0222 -0.0493
  328loPI   C3B 5247   1.459   6.209   7.944 -0.0771  0.1086  0.0980
  328loPI   C4B 5248   1.403   6.314   7.474  0.0111  0.1329  0.5468
  329loPI    C1 5249   0.243  10.217   9.733  0.0347 -0.0725  0.0026
  329loPI    C2 5250   0.576  10.126   9.935 -0.0654 -0.0116  0.1976
  329loPI    C3 5251   0.443   9.882   9.647  0.1366 -0.0455  0.1316
  329loPI   PO4 5252   0.287  10.512   9.680  0.0482 -0.0638  0.0655
  329loPI   GL1 5253   0.432  10.452   9.313  0.0299 -0.1434 -0.1929
  329loPI   GL2 5254   0.652  10.185   9.305 -0.1655 -0.1019  0.0035
  329loPI   C1A 5255   0.328  10.701   8.943 -0.0540  0.2799  0.2560
  329loPI   C2A 5256   0.245  10.907   8.513  0.2955  0.0326 -0.2220
  329loPI   C3A 5257   0.085  10.987   8.074  0.2234 -0.1291 -0.5447
  329loPI   C4A 5258   0.073  11.173   7.774  0.0956 -0.0940  0.2182
  329loPI   C5A 5259  -0.073  10.983   7.439  0.2872 -0.0109  0.2549
  329loPI   C6A 5260  -0.157  10.833   6.977  0.2379 -0.1625 -0.1406
  329loPI   C1B 5261   0.587  10.153   8.738 -0.0199 -0.1313  0.2733
  329loPI   C2B 5262   0.413   9.768   8.532 -0.1498 -0.1712  0.2997
  329loPI   C3B 5263   0.350   9.690   8.053 -0.4137  0.1316  0.2751
  329loPI   C4B 5264   0.344   9.575   7.643  0.1184  0.1949  0.0639
  330loPI    C1 5265   4.269  12.158   9.963  0.0436  0.2134 -0.0362
  330loPI    C2 5266   3.982  12.397  10.106 -0.0717 -0.0248  0.1390
  330loPI    C3 5267   4.123  12.099  10.331 -0.1544 -0.3195 -0.1907
  330loPI   PO4 5268   4.243  12.159   9.726 -0.0990  0.3037  0.0758
  330loPI   GL1 5269   4.190  12.381   9.306 -0.0592  0.1639 -0.0282
  330loPI   GL2 5270   4.478  12.522   9.354  0.0458 -0.1700  0.3557
  330loPI   C1A 5271   4.029  12.229   8.927  0.1428  0.2329  0.0645
  330loPI   C2A 5272   4.042  12.358   8.449 -0.2155  0.2807 -0.0303
  330loPI   C3A 5273   4.129  12.369   7.940 -0.0027 -0.2214  0.0729
  330loPI   C4A 5274   4.342  12.549   7.561 -0.1535  0.1422  0.0262
  330loPI   C5A 5275   4.190  12.840   7.213 -0.2580 -0.2139 -0.1811
  330loPI   C6A 5276   3.986  13.029   7.124 -0.2415 -0.2004 -0.0204
  330loPI   C1B 5277   4.784  12.523   8.975 -0.1317  0.3248 -0.2608
  330loPI   C2B 5278   4.772  12.586   8.579 -0.1454 -0.2502 -0.0741
  330loPI   C3B 5279   4.800  12.823   8.315 -0.3878  0.0014 -0.1209
  330loPI   C4B 5280   5.188  12.949   7.961 -0.0290  0.1513 -0.2791
  331loPI    C1 5281  17.406  16.534   9.989  0.0603 -0.0913  0.2008
  331loPI    C2 5282  17.103  16.792   9.947  0.2509  0.1074  0.0178
  331loPI    C3 5283  17.140  16.578  10.284 -0.2426 -0.1188 -0.0633
  331loPI   PO4 5284  17.438  16.307   9.810  0.6143 -0.1012 -0.0168
  331loPI   GL1 5285  17.442  16.377   9.427 -0.3760  0.0252 -0.0558
  331loPI   GL2 5286  17.290  16.699   9.378  0.3486 -0.2797 -0.1932
  331loPI   C1A 5287  17.400  16.364   9.006  0.2861  0.1568 -0.0544
  331loPI   C2A 5288  17.369  16.279   8.620  0.0880 -0.0811  0.0397
  331loPI   C3A 5289  17.336  15.984   8.313  0.1709  0.3431 -0.0463
  331loPI   C4A 5290  17.287  15.806   7.911  0.0327 -0.1630  0.3171
  331loPI   C5A 5291  17.516  15.466   7.533 -0.0153  0.0574 -0.1186
  331loPI   C6A 5292  17.567  15.447   7.066 -0.2113 -0.0402  0.0666
  331loPI   C1B 5293  17.477  16.855   9.086  0.2274 -0.4326 -0.1227
  331loPI   C2B 5294  17.495  16.830   8.687  0.1792  0.1959 -0.2130
  331loPI   C3B 5295  17.390  16.797   8.265  0.1156 -0.2706 -0.0305
  331loPI   C4B 5296  17.355  16.379   7.996  0.0203  0.4623 -0.0925
  332loPI    C1 5297   2.151   8.293   9.878 -0.0391 -0.0468  0.0457
  332loPI    C2 5298   2.419   8.398  10.155  0.1708  0.1209 -0.2163
  332loPI    C3 5299   2.037   8.512  10.192  0.2276  0.2685 -0.0715
  332loPI   PO4 5300   2.169   8.110   9.784  0.3831  0.2552 -0.1563
  332loPI   GL1 5301   2.027   7.774   9.513 -0.1511  0.3748  0.1319
  332loPI   GL2 5302   2.173   7.472   9.601 -0.1701  0.0335 -0.0584
  332loPI   C1A 5303   2.029   7.951   9.150 -0.2618 -0.0622  0.0989
  332loPI   C2A 5304   2.130   8.334   8.862 -0.3099  0.3067  0.0562
  332loPI   C3A 5305   2.088   8.655   8.511  0.1014 -0.1245  0.2257
  332loPI   C4A 5306   2.069   8.783   8.146 -0.0969  0.0614  0.0984
  332loPI   C5A 5307   2.081   8.817   7.762 -0.0556  0.0306  0.0553
  332loPI   C6A 5308   1.784   8.823   7.276 -0.0752  0.1501  0.1488
  332loPI   C1B 5309   2.268   7.491   9.131  0.2577 -0.1506 -0.1587
  332loPI   C2B 5310   2.462   7.510   8.872 -0.1768 -0.3225  0.0964
  332loPI   C3B 5311   2.593   7.391   8.565  0.2343  0.1666 -0.0955
  332loPI   C4B 5312   2.479   7.309   8.214 -0.3356 -0.0511  0.2178
  333loPI    C1 5313   0.449   2.474   9.973  0.1127 -0.0235  0.1236
  333loPI    C2 5314   0.164   2.213   9.872 -0.0525  0.1941  0.0196
  333loPI    C3 5315   0.207   2.324  10.254 -0.0337  0.0757  0.0521
  333loPI   PO4 5316   0.426   2.627   9.805  0.0750  0.0006 -0.1995
  333loPI   GL1 5317   0.554   2.549   9.420  0.0977 -0.1777  0.1591
  333loPI   GL2 5318   0.874   2.419   9.238  0.2606  0.3355  0.1569
  333loPI   C1A 5319   0.422   2.784   9.071  0.1208  0.1909  0.0667
  333loPI   C2A 5320   0.560   2.965   8.629 -0.0760 -0.0990 -0.1084
  333loPI   C3A 5321   0.646   3.004   8.231 -0.2257  0.3101  0.2790
  333loPI   C4A 5322   0.875   3.016   7.877 -0.1496 -0.0054 -0.3803
  333loPI   C5A 5323   0.888   3.122   7.545 -0.2957 -0.2213 -0.1039
  333loPI   C6A 5324   0.668   2.817   7.236 -0.2685 -0.1201 -0.1910
  333loPI   C1B 5325   0.690   2.521   8.810 -0.1014  0.1255 -0.1457
  333loPI   C2B 5326   0.632   2.495   8.296  0.2285  0.2934 -0.1918
  333loPI   C3B 5327   0.507   2.580   7.924  0.2661 -0.1280  0.2262
  333loPI   C4B 5328   0.399   2.894   7.714 -0.1278 -0.2262 -0.0492
  334loPI    C1 5329  10.220  18.029  10.411  0.0168 -0.0079 -0.0182
  334loPI    C2 5330   9.874  17.979  10.607 -0.0367 -0.0134 -0.1136
  334loPI    C3 5331  10.141  17.681  10.592  0.1213  0.1045  0.2491
  334loPI   PO4 5332  10.189  18.106  10.216 -0.0969  0.4758 -0.0785
  334loPI   GL1 5333  10.520  18.082   9.909  0.3672  0.1474 -0.0802
  334loPI   GL2 5334  10.279  18.295   9.797  0.1714 -0.2170 -0.2156
  334loPI   C1A 5335  10.416  17.865   9.532  0.1088 -0.0563  0.1515
  334loPI   C2A 5336  10.394  17.564   9.174 -0.0839 -0.0311  0.2681
  334loPI   C3A 5337  10.485  17.575   8.790 -0.1725 -0.1886 -0.0103
  334loPI   C4A 5338  10.658  17.650   8.319 -0.3023 -0.2108  0.1678
  334loPI   C5A 5339  10.685  17.373   7.936  0.0870 -0.1207 -0.1761
  334loPI   C6A 5340  10.733  17.268   7.533 -0.1556  0.1244  0.2549
  334loPI   C1B 5341  10.410  18.348   9.333 -0.0342 -0.0423 -0.1134
  334loPI   C2B 5342  10.562  18.153   9.005 -0.1517  0.0036 -0.0052
  334loPI   C3B 5343  10.681  18.052   8.616  0.0720 -0.2015  0.0554
  334loPI   C4B 5344  10.942  18.110   8.277  0.1312 -0.3501  0.2361
  335loPI    C1 5345   3.584   7.935   9.634  0.0146  0.2788  0.1610
  335loPI    C2 5346   3.448   7.731   9.950 -0.0057  0.1837  0.0916
  335loPI    C3 5347   3.832   7.842   9.934  0.0409  0.0209  0.0625
  335loPI   PO4 5348   3.440   7.740   9.404 -0.4039 -0.5339  0.1567
  335loPI   GL1 5349   3.612   7.781   8.987  0.0495  0.3608  0.7224
  335loPI   GL2 5350   3.810   7.601   9.065 -0.0241  0.0928  0.1002
  335loPI   C1A 5351   3.498   7.985   8.597 -0.1140  0.1575 -0.1309
  335loPI   C2A 5352   3.597   7.781   8.196  0.3662 -0.3403  0.0628
  335loPI   C3A 5353   3.860   7.828   7.778 -0.1741  0.2209  0.4207
  335loPI   C4A 5354   3.756   7.942   7.342  0.3055  0.0366  0.2625
  335loPI   C5A 5355   3.446   7.835   7.067 -0.3349 -0.0721  0.1846
  335loPI   C6A 5356   2.914   7.984   6.944  0.0985  0.2961 -0.1431
  335loPI   C1B 5357   3.955   7.667   8.602 -0.0117 -0.1875  0.1481
  335loPI   C2B 5358   3.963   7.499   8.186 -0.3650 -0.2846  0.0147
  335loPI   C3B 5359   3.955   7.350   7.823 -0.2180 -0.2957 -0.1847
  335loPI   C4B 5360   4.092   7.515   7.344 -0.1855 -0.1779  0.0715
  336loPI    C1 5361  12.214   7.883   9.727  0.1555 -0.1140  0.1664
  336loPI    C2 5362  11.849   7.937   9.573  0.2756  0.0087 -0.0832
  336loPI    C3 5363  11.891   7.827   9.956 -0.0273 -0.2333 -0.1147
  336loPI   PO4 5364  12.388   7.692   9.546 -0.5951 -0.3028  0.0032
  336loPI   GL1 5365  12.229   7.751   9.082  0.2567  0.3223  0.0681
  336loPI   GL2 5366  12.189   7.482   9.019  0.2873  0.0073 -0.2276
  336loPI   C1A 5367  12.238   8.081   8.868 -0.1419 -0.0127 -0.1212
  336loPI   C2A 5368  12.408   8.421   8.649  0.0248  0.0464 -0.1074
  336loPI   C3A 5369  12.882   8.408   8.588 -0.0618 -0.1351 -0.0630
  336loPI   C4A 5370  13.028   8.367   8.246  0.0301 -0.2847  0.0351
  336loPI   C5A 5371  13.031   8.292   7.858 -0.0677  0.0429  0.1107
  336loPI   C6A 5372  12.715   8.162   7.689 -0.2000 -0.1546  0.0718
  336loPI   C1B 5373  12.089   7.564   8.678 -0.0070 -0.3329  0.1821
  336loPI   C2B 5374  12.117   7.525   8.197  0.1020  0.2148 -0.0231
  336loPI   C3B 5375  12.143   7.552   7.814 -0.2707 -0.0307  0.0068
  336loPI   C4B 5376  12.315   7.362   7.502  0.1392 -0.0266  0.1965
  337loPI    C1 5377  14.315  15.027  10.239 -0.0149 -0.1090 -0.1064
  337loPI    C2 5378  14.484  15.166  10.573 -0.2335 -0.0270 -0.0280
  337loPI    C3 5379  14.637  14.845  10.390  0.0371  0.0774  0.0101
  337loPI   PO4 5380  14.279  15.263  10.063 -0.0557 -0.3014  0.0363
  337loPI   GL1 5381  14.527  15.266   9.807  0.0970 -0.1403  0.1575
  337loPI   GL2 5382  14.697  15.439   9.468 -0.2854  0.0217 -0.1963
  337loPI   C1A 5383  14.400  15.127   9.374  0.0550 -0.0909 -0.1003
  337loPI   C2A 5384  14.285  15.033   8.952  0.2521 -0.3118  0.1855
  337loPI   C3A 5385  14.282  15.065   8.561  0.0057  0.1639 -0.0601
  337loPI   C4A 5386  14.457  14.952   8.252  0.0545 -0.0995  0.3805
  337loPI   C5A 5387  14.409  14.906   7.698  0.2661 -0.0765  0.3080
  337loPI   C6A 5388  14.207  14.997   7.328 -0.1701 -0.1305  0.0247
  337loPI   C1B 5389  14.488  15.545   9.178 -0.4105  0.1088  0.2574
  337loPI   C2B 5390  14.377  15.870   8.793 -0.0332 -0.1438 -0.0627
  337loPI   C3B 5391  14.540  16.320   8.695 -0.3246  0.1851 -0.0727
  337loPI   C4B 5392  14.709  16.694   8.561  0.0602 -0.1934  0.0253
  338loPI    C1 5393   4.557   9.322  10.245 -0.0110 -0.0289  0.0540
  338loPI    C2 5394   4.519   8.949  10.385 -0.0691  0.0054  0.1308
  338loPI    C3 5395   4.333   9.251  10.569  0.0121  0.0784  0.0938
  338loPI   PO4 5396   4.471   9.228   9.901 -0.1732 -0.1826  0.1951
  338loPI   GL1 5397   4.482   9.189   9.480  0.1179 -0.1921  0.0249
  338loPI   GL2 5398   4.135   9.259   9.297  0.1385 -0.1835  0.1091
  338loPI   C1A 5399   4.835   9.060   9.199  0.2044 -0.0466  0.1155
  338loPI   C2A 5400   4.985   9.201   8.821  0.0141 -0.1575  0.0360
  338loPI   C3A 5401   5.006   9.262   8.391  0.1308  0.1292  0.0714
  338loPI   C4A 5402   5.147   9.314   7.899 -0.3173  0.0424  0.2499
  338loPI   C5A 5403   5.065   9.407   7.429 -0.0359 -0.0422 -0.0084
  338loPI   C6A 5404   5.052   9.416   6.944  0.1837 -0.0387 -0.1258
  338loPI   C1B 5405   3.979   9.324   8.854  0.0691 -0.0964  0.0022
  338loPI   C2B 5406   3.956   9.109   8.494 -0.1316 -0.0157 -0.1212
  338loPI   C3B 5407   4.142   8.814   8.537  0.2042  0.0821 -0.0091
  338loPI   C4B 5408   4.172   8.634   8.147 -0.0427 -0.0864  0.1950
  339loPI    C1 5409  14.270  16.197  10.141  0.2899  0.1029 -0.0354
  339loPI    C2 5410  14.410  16.206  10.516  0.0888  0.1164  0.0408
  339loPI    C3 5411  14.159  16.491  10.389  0.0672  0.0491 -0.0689
  339loPI   PO4 5412  14.259  16.026   9.994  0.1047 -0.2743  0.1084
  339loPI   GL1 5413  14.043  15.656   9.796  0.3378  0.0426 -0.0419
  339loPI   GL2 5414  14.014  15.333   9.615 -0.0300  0.1760 -0.1790
  339loPI   C1A 5415  13.901  15.887   9.374 -0.0616  0.0270 -0.1435
  339loPI   C2A 5416  13.908  15.957   8.958 -0.1480  0.1197 -0.0405
  339loPI   C3A 5417  13.994  16.171   8.580 -0.1623  0.0288  0.1025
  339loPI   C4A 5418  14.207  16.026   8.234  0.1826  0.3966  0.2024
  339loPI   C5A 5419  13.999  15.779   7.928 -0.1995  0.1526 -0.0250
  339loPI   C6A 5420  13.621  15.608   7.727  0.0548 -0.0526 -0.1967
  339loPI   C1B 5421  13.942  15.394   9.231  0.0266  0.2095  0.2404
  339loPI   C2B 5422  13.990  15.500   8.786 -0.1980  0.1435 -0.2411
  339loPI   C3B 5423  13.836  15.724   8.433  0.0615  0.0854 -0.2151
  339loPI   C4B 5424  13.595  16.113   8.305  0.2844 -0.2004 -0.0026
  340loPI    C1 5425   0.775   2.077   9.874  0.0021 -0.2185 -0.1092
  340loPI    C2 5426   0.521   1.976  10.167 -0.0241 -0.1312 -0.1012
  340loPI    C3 5427   0.905   2.051  10.252 -0.0159 -0.1746 -0.0998
  340loPI   PO4 5428   0.629   2.114   9.676 -0.0315 -0.0247 -0.0676
  340loPI   GL1 5429   0.521   1.967   9.335 -0.0854 -0.0760 -0.1469
  340loPI   GL2 5430   0.223   1.867   9.390  0.4822  0.0406 -0.3883
  340loPI   C1A 5431   0.566   2.020   8.889 -0.0115  0.0950  0.1067
  340loPI   C2A 5432   0.618   2.013   8.513  0.1723  0.1684  0.0041
  340loPI   C3A 5433   0.585   2.052   8.147  0.0426  0.0068  0.0092
  340loPI   C4A 5434   0.481   1.949   7.751 -0.0206 -0.0020 -0.0318
  340loPI   C5A 5435   0.603   1.944   7.248 -0.4807  0.1524  0.1390
  340loPI   C6A 5436   0.719   2.297   7.052  0.0818  0.0079  0.1857
  340loPI   C1B 5437   0.088   1.925   9.037  0.1137 -0.1368 -0.1191
  340loPI   C2B 5438   0.138   1.870   8.575  0.1970 -0.0605  0.1905
  340loPI   C3B 5439   0.086   1.820   8.163 -0.0468  0.0553  0.2706
  340loPI   C4B 5440  -0.095   1.671   7.798 -0.1535 -0.0558 -0.0743
  341loPI    C1 5441  14.372   2.271  10.053  0.0615  0.0211 -0.0194
  341loPI    C2 5442  14.296   1.970   9.800 -0.0711 -0.0879  0.1475
  341loPI    C3 5443  14.073   2.016  10.129  0.1471  0.0075  0.2844
  341loPI   PO4 5444  14.641   2.385  10.030  0.0607  0.0148  0.2870
  341loPI   GL1 5445  14.671   2.679   9.686 -0.0483  0.2394 -0.1214
  341loPI   GL2 5446  14.344   2.601   9.612  0.1738  0.0800  0.0193
  341loPI   C1A 5447  14.841   2.756   9.319  0.1906  0.1411 -0.3933
  341loPI   C2A 5448  15.051   2.496   8.950 -0.0572  0.0131 -0.2825
  341loPI   C3A 5449  15.241   2.606   8.501 -0.1245  0.0703 -0.0288
  341loPI   C4A 5450  15.303   2.752   8.064  0.0727 -0.0916 -0.2596
  341loPI   C5A 5451  15.282   2.768   7.612 -0.0950 -0.1775  0.1507
  341loPI   C6A 5452  14.960   2.827   7.230  0.0588 -0.1901  0.2387
  341loPI   C1B 5453  14.334   2.228   9.331  0.1775 -0.2119 -0.1772
  341loPI   C2B 5454  14.519   2.226   8.913  0.3057  0.2129 -0.0168
  341loPI   C3B 5455  14.763   2.364   8.496  0.2299  0.4541 -0.1113
  341loPI   C4B 5456  14.895   2.435   8.100 -0.1045  0.1597  0.4358
  342loPI    C1 5457  17.504   0.552  10.545  0.3535 -0.2304 -0.0294
  342loPI    C2 5458  17.474   0.902  10.735  0.2374 -0.1079 -0.2688
  342loPI    C3 5459  17.472   0.560  10.943  0.1281  0.0234 -0.0501
  342loPI   PO4 5460  17.598   0.691  10.291  0.0203 -0.2975  0.2847
  342loPI   GL1 5461  17.573   0.441   9.949  0.2201 -0.3283  0.0904
  342loPI   GL2 5462  17.705   0.737   9.763 -0.5411  0.1536  0.1413
  342loPI   C1A 5463  17.492   0.283   9.536 -0.2730 -0.3524  0.1600
  342loPI   C2A 5464  17.343   0.049   9.229 -0.1766 -0.0454  0.0786
  342loPI   C3A 5465  17.391  -0.061   8.868  0.7030  0.1542  0.0903
  342loPI   C4A 5466  17.414  -0.063   8.454 -0.5096 -0.1949  0.2471
  342loPI   C5A 5467  17.474  -0.136   7.943 -0.1182  0.0860 -0.5047
  342loPI   C6A 5468  17.754  -0.096   7.605 -0.0430 -0.0553  0.2516
  342loPI   C1B 5469  17.940   0.677   9.386 -0.1662 -0.0984 -0.0832
  342loPI   C2B 5470  17.973   0.661   9.059 -0.0351 -0.2097 -0.0311
  342loPI   C3B 5471  18.021   0.623   8.642  0.2708  0.1703  0.2772
  342loPI   C4B 5472  17.968   0.614   8.185 -0.1043  0.0029 -0.0524
  343loPI    C1 5473   3.869   5.753   9.804 -0.0811 -0.0805 -0.2386
  343loPI    C2 5474   3.568   5.541   9.646 -0.2599  0.0906 -0.1332
  343loPI    C3 5475   3.722   5.437  10.001 -0.2776  0.0768 -0.1296
  343loPI   PO4 5476   3.810   6.054   9.760 -0.0296  0.0190  0.1671
  343loPI   GL1 5477   3.577   6.149   9.548 -0.0731  0.1632  0.0060
  343loPI   GL2 5478   3.299   5.942   9.552  0.2117  0.2332 -0.0761
  343loPI   C1A 5479   3.822   6.157   9.137  0.2022 -0.1488 -0.0271
  343loPI   C2A 5480   4.118   6.143   8.797  0.0163  0.0575  0.0818
  343loPI   C3A 5481   4.063   6.197   8.447 -0.2741  0.1703  0.1899
  343loPI   C4A 5482   3.795   6.153   8.043  0.3782 -0.2352 -0.2987
  343loPI   C5A 5483   3.618   6.142   7.624 -0.0330 -0.1536  0.0499
  343loPI   C6A 5484   3.215   6.038   7.447 -0.1520 -0.0467  0.0871
  343loPI   C1B 5485   3.372   5.951   9.143 -0.1180  0.1834  0.3415
  343loPI   C2B 5486   3.639   5.914   8.717 -0.0343  0.2555 -0.2640
  343loPI   C3B 5487   3.570   5.798   8.320  0.0063 -0.2169 -0.2217
  343loPI   C4B 5488   3.446   5.786   7.921 -0.0099  0.1103 -0.0414
  344loPI    C1 5489   3.957  18.729   9.968 -0.0819 -0.0920 -0.0136
  344loPI    C2 5490   4.122  19.004  10.207 -0.2548  0.0749 -0.0834
  344loPI    C3 5491   4.186  18.615  10.275  0.1071  0.1337 -0.0676
  344loPI   PO4 5492   3.986  19.000   9.725  0.0088  0.4088 -0.1281
  344loPI   GL1 5493   3.655  19.243   9.653  0.1155  0.2525  0.2754
  344loPI   GL2 5494   3.821  19.481   9.463 -0.0099 -0.2292 -0.3147
  344loPI   C1A 5495   3.521  19.037   9.274 -0.1390 -0.2960  0.1221
  344loPI   C2A 5496   3.327  18.856   8.924  0.1373  0.1986 -0.1111
  344loPI   C3A 5497   3.030  18.839   8.643 -0.0280  0.2507  0.3083
  344loPI   C4A 5498   2.949  18.769   8.245  0.0642  0.1251  0.1272
  344loPI   C5A 5499   2.966  18.497   7.836  0.1066 -0.3038  0.0886
  344loPI   C6A 5500   2.774  18.151   7.750  0.1510  0.2269  0.0203
  344loPI   C1B 5501   3.832  19.534   9.059 -0.1338 -0.0048  0.2493
  344loPI   C2B 5502   3.657  19.224   8.773  0.0646  0.1597 -0.2903
  344loPI   C3B 5503   3.458  19.012   8.428 -0.0381  0.3280 -0.2541
  344loPI   C4B 5504   3.506  18.819   8.008 -0.0415 -0.1261  0.1313
  345loPI    C1 5505   9.007  14.059   9.685  0.1053 -0.0926 -0.0548
  345loPI    C2 5506   9.181  14.218  10.009 -0.0871 -0.2417  0.1244
  345loPI    C3 5507   8.782  14.213   9.978 -0.0712 -0.2801 -0.0895
  345loPI   PO4 5508   9.281  14.244   9.480  0.1432 -0.0172  0.1792
  345loPI   GL1 5509   9.438  14.286   8.988 -0.3231  0.0174  0.3314
  345loPI   GL2 5510   9.210  13.977   9.010 -0.1367 -0.1651 -0.0265
  345loPI   C1A 5511   9.284  14.283   8.489 -0.1539  0.0186  0.3024
  345loPI   C2A 5512   9.213  14.145   8.049 -0.1571  0.1456  0.0002
  345loPI   C3A 5513   9.197  13.879   7.715 -0.1242  0.1085 -0.0923
  345loPI   C4A 5514   9.496  13.579   7.562  0.0784  0.1511 -0.0424
  345loPI   C5A 5515   9.738  13.467   7.334 -0.0750  0.0952  0.0081
  345loPI   C6A 5516   9.804  13.068   7.168  0.0911  0.0273  0.1889
  345loPI   C1B 5517   9.018  13.898   8.628 -0.2109  0.1399 -0.2109
  345loPI   C2B 5518   8.769  13.905   8.273  0.0509 -0.2789  0.0770
  345loPI   C3B 5519   8.741  14.035   7.783  0.4093  0.0355  0.2159
  345loPI   C4B 5520   8.620  14.182   7.395 -0.1739 -0.1948 -0.2495
  346loPI    C1 5521  16.293   1.595  10.280 -0.0580 -0.0918 -0.2528
  346loPI    C2 5522  16.538   1.311  10.141  0.0010 -0.1721  0.0093
  346loPI    C3 5523  16.190   1.210  10.310 -0.0394 -0.0800 -0.0181
  346loPI   PO4 5524  16.329   1.799  10.094  0.0181  0.2305 -0.0098
  346loPI   GL1 5525  16.394   1.824   9.639  0.1291  0.1891 -0.0729
  346loPI   GL2 5526  16.482   1.526   9.551 -0.3749  0.0316  0.0540
  346loPI   C1A 5527  16.141   2.048   9.264 -0.3010  0.4806  0.1644
  346loPI   C2A 5528  16.059   2.033   8.791  0.0430  0.0883  0.3229
  346loPI   C3A 5529  16.166   1.996   8.324 -0.1455  0.0837 -0.1090
  346loPI   C4A 5530  15.964   2.195   7.954  0.3629  0.1440  0.0980
  346loPI   C5A 5531  15.897   2.043   7.705  0.3126 -0.1259  0.2700
  346loPI   C6A 5532  15.860   1.663   7.589  0.0273 -0.2851  0.2204
  346loPI   C1B 5533  16.501   1.694   9.093  0.3115 -0.1102 -0.3201
  346loPI   C2B 5534  16.662   1.710   8.636 -0.2617  0.1227 -0.0277
  346loPI   C3B 5535  16.607   1.762   8.213 -0.1762 -0.1246  0.1167
  346loPI   C4B 5536  16.228   1.661   7.902  0.2307  0.0361 -0.0920
  347loPI    C1 5537  18.618  17.220  10.571  0.2571  0.1690  0.0381
  347loPI    C2 5538  18.568  16.875  10.766  0.1012  0.0958 -0.1291
  347loPI    C3 5539  18.746  17.183  10.948  0.0360  0.0012  0.0989
  347loPI   PO4 5540  18.657  17.197  10.342  0.2418 -0.0909  0.1758
  347loPI   GL1 5541  18.442  17.355   9.928 -0.0838  0.0032  0.0201
  347loPI   GL2 5542  18.751  17.605   9.964  0.2318  0.0485  0.1262
  347loPI   C1A 5543  18.546  17.233   9.506 -0.0503 -0.0098 -0.0290
  347loPI   C2A 5544  18.438  17.291   9.084  0.2061  0.1355 -0.3238
  347loPI   C3A 5545  18.429  17.240   8.689 -0.1963  0.1375  0.0401
  347loPI   C4A 5546  18.363  17.081   8.262 -0.0215  0.0889 -0.1644
  347loPI   C5A 5547  18.291  17.388   7.884  0.0726  0.1007 -0.0835
  347loPI   C6A 5548  18.281  17.802   7.784  0.3065 -0.1702 -0.1576
  347loPI   C1B 5549  18.674  17.760   9.640  0.0473  0.0386  0.0537
  347loPI   C2B 5550  18.590  17.787   9.201  0.1888  0.0270  0.1005
  347loPI   C3B 5551  18.528  17.723   8.804  0.0262 -0.0584  0.2783
  347loPI   C4B 5552  18.444  17.673   8.420 -0.2390 -0.1572  0.1140
  348loPI    C1 5553   2.279   6.676   9.758 -0.1581 -0.0860 -0.0622
  348loPI    C2 5554   2.338   6.461  10.090 -0.2901  0.0324  0.0396
  348loPI    C3 5555   2.616   6.722   9.969 -0.1782 -0.1143 -0.0237
  348loPI   PO4 5556   2.145   6.444   9.646  0.0999  0.1443  0.1671
  348loPI   GL1 5557   2.270   6.191   9.342 -0.1436 -0.4359 -0.2075
  348loPI   GL2 5558   1.950   6.227   9.218 -0.0944 -0.0093  0.0610
  348loPI   C1A 5559   2.435   6.194   8.959 -0.0366  0.0392  0.0758
  348loPI   C2A 5560   2.572   6.032   8.537 -0.0678  0.2525  0.2272
  348loPI   C3A 5561   2.405   5.862   8.175 -0.1031 -0.2336 -0.0064
  348loPI   C4A 5562   2.374   5.968   7.737 -0.1052 -0.0997  0.0536
  348loPI   C5A 5563   2.620   5.939   7.465  0.0219  0.1942 -0.0071
  348loPI   C6A 5564   2.674   6.231   7.102  0.2190 -0.1051 -0.1892
  348loPI   C1B 5565   1.961   6.237   8.808 -0.0145  0.2570 -0.2724
  348loPI   C2B 5566   1.861   6.081   8.443 -0.0541  0.2517  0.0286
  348loPI   C3B 5567   1.946   6.053   8.028  0.0700 -0.1517 -0.2744
  348loPI   C4B 5568   1.888   6.115   7.617  0.0903 -0.2441  0.4622
  349loPI    C1 5569  15.781   2.330  10.252 -0.1688  0.1377 -0.1365
  349loPI    C2 5570  16.036   2.061  10.402 -0.1686  0.3495  0.2568
  349loPI    C3 5571  16.135   2.269  10.075 -0.1411 -0.0739 -0.0119
  349loPI   PO4 5572  15.562   2.291  10.083 -0.0639  0.2564 -0.2002
  349loPI   GL1 5573  15.549   2.363   9.619  0.0863 -0.2516  0.3119
  349loPI   GL2 5574  15.848   2.384   9.596  0.1882  0.1642 -0.1327
  349loPI   C1A 5575  15.662   2.427   9.111 -0.2440  0.1071 -0.1593
  349loPI   C2A 5576  15.682   2.425   8.691 -0.2174 -0.0972  0.2079
  349loPI   C3A 5577  15.761   2.419   8.309  0.0878  0.0662  0.3419
  349loPI   C4A 5578  15.774   2.714   7.987 -0.0280  0.2585 -0.2123
  349loPI   C5A 5579  15.870   2.906   7.668 -0.1452  0.0922  0.0710
  349loPI   C6A 5580  16.134   2.971   7.373  0.0705 -0.1189 -0.1518
  349loPI   C1B 5581  15.827   2.814   9.388  0.1998 -0.0949  0.4496
  349loPI   C2B 5582  15.966   2.971   8.935 -0.4852 -0.2089 -0.0966
  349loPI   C3B 5583  15.925   2.877   8.469  0.0417 -0.0172  0.0888
  349loPI   C4B 5584  16.077   3.046   8.181  0.2580 -0.1853 -0.0440
  350loPI    C1 5585   4.710   1.722   9.900  0.0840 -0.0465 -0.0341
  350loPI    C2 5586   4.480   1.749   9.574 -0.2715  0.0806  0.2209
  350loPI    C3 5587   4.415   1.458   9.840 -0.0439  0.0336  0.2265
  350loPI   PO4 5588   4.970   1.882   9.832 -0.2403 -0.0244  0.1225
  350loPI   GL1 5589   5.172   1.836   9.430 -0.2511 -0.2055 -0.1119
  350loPI   GL2 5590   5.218   1.976   9.189 -0.3239  0.0488  0.1732
  350loPI   C1A 5591   5.516   1.567   9.289  0.1119  0.0366 -0.1291
  350loPI   C2A 5592   5.831   1.482   8.991  0.1922  0.5543  0.0693
  350loPI   C3A 5593   6.065   1.366   8.579 -0.1743 -0.1046  0.0108
  350loPI   C4A 5594   6.122   1.209   8.239 -0.1439  0.1064 -0.1165
  350loPI   C5A 5595   6.136   1.361   7.918 -0.1532  0.3321 -0.0163
  350loPI   C6A 5596   6.345   1.659   7.712  0.1522 -0.2609 -0.0620
  350loPI   C1B 5597   5.052   2.001   8.787 -0.2857  0.1988  0.2663
  350loPI   C2B 5598   4.681   1.862   8.599 -0.1170 -0.1454  0.1696
  350loPI   C3B 5599   4.667   1.498   8.276 -0.0520  0.1075  0.2154
  350loPI   C4B 5600   4.717   1.501   7.878  0.1955 -0.0348  0.0301
  351loPI    C1 5601   5.326  18.357   9.676  0.1184 -0.1643 -0.1030
  351loPI    C2 5602   5.477  18.664   9.884 -0.2236 -0.0436 -0.0267
  351loPI    C3 5603   5.224  18.408  10.059 -0.1063 -0.2478 -0.1506
  351loPI   PO4 5604   5.343  18.416   9.384  0.1823 -0.2258  0.0353
  351loPI   GL1 5605   5.232  18.611   9.037 -0.0357  0.3727 -0.2264
  351loPI   GL2 5606   4.855  18.541   9.002 -0.3037  0.1060 -0.2866
  351loPI   C1A 5607   5.272  18.343   8.720 -0.1008  0.1042  0.1649
  351loPI   C2A 5608   5.401  18.331   8.369  0.0627 -0.0589  0.3532
  351loPI   C3A 5609   5.806  18.324   8.093  0.3260 -0.0423  0.2923
  351loPI   C4A 5610   5.946  18.601   7.758 -0.1195 -0.1773  0.3055
  351loPI   C5A 5611   6.096  18.848   7.577  0.0228 -0.1647 -0.1932
  351loPI   C6A 5612   6.253  18.971   7.228  0.0641 -0.1574 -0.1007
  351loPI   C1B 5613   4.958  18.715   8.536  0.3719 -0.0086 -0.0729
  351loPI   C2B 5614   5.002  18.657   8.022 -0.2725  0.0399  0.0558
  351loPI   C3B 5615   5.067  18.907   7.538  0.1880  0.2004 -0.0801
  351loPI   C4B 5616   5.336  18.757   7.243  0.0146 -0.0601 -0.0456
  352loPI    C1 5617   6.936   3.350   9.827 -0.0962 -0.2286  0.0456
  352loPI    C2 5618   7.096   2.991   9.898  0.2509 -0.0565  0.1527
  352loPI    C3 5619   7.314   3.322   9.953  0.0056  0.1623 -0.1558
  352loPI   PO4 5620   6.866   3.342   9.564  0.0311 -0.1313 -0.0823
  352loPI   GL1 5621   6.551   3.181   9.310 -0.1944 -0.2364  0.0207
  352loPI   GL2 5622   6.206   3.296   9.349  0.3670  0.0238  0.1157
  352loPI   C1A 5623   6.401   2.984   8.952 -0.1905 -0.0219  0.4687
  352loPI   C2A 5624   6.220   2.664   8.681  0.0034  0.3871 -0.1994
  352loPI   C3A 5625   6.335   2.288   8.473  0.1184 -0.1200  0.0096
  352loPI   C4A 5626   6.366   2.141   8.131  0.1192  0.1592  0.0830
  352loPI   C5A 5627   6.465   2.174   7.652 -0.0662 -0.0369  0.0906
  352loPI   C6A 5628   6.513   1.936   7.270  0.4967 -0.0964  0.1386
  352loPI   C1B 5629   5.991   3.302   8.941  0.1439  0.2054 -0.2357
  352loPI   C2B 5630   6.019   3.349   8.467 -0.0802 -0.1370 -0.1392
  352loPI   C3B 5631   6.292   3.298   8.078  0.2799 -0.0867  0.0228
  352loPI   C4B 5632   6.164   3.157   7.676 -0.1824 -0.1090 -0.1680
  353loPI    C1 5633  17.526   5.170   9.871 -0.1937 -0.0727 -0.0166
  353loPI    C2 5634  17.298   5.428  10.075 -0.2482 -0.0691 -0.0820
  353loPI    C3 5635  17.467   5.118  10.263 -0.1930  0.0068 -0.0058
  353loPI   PO4 5636  17.559   5.224   9.641  0.1206  0.0762 -0.3830
  353loPI   GL1 5637  17.489   5.356   9.274 -0.3167  0.0896  0.1181
  353loPI   GL2 5638  17.813   5.408   9.266 -0.0457  0.2668  0.0601
  353loPI   C1A 5639  17.410   5.490   8.804  0.1134 -0.1970  0.2114
  353loPI   C2A 5640  17.433   5.226   8.398  0.1325  0.2675  0.3167
  353loPI   C3A 5641  17.624   4.988   8.083  0.0495 -0.3108 -0.0076
  353loPI   C4A 5642  17.533   4.796   7.710  0.0212 -0.1779  0.2468
  353loPI   C5A 5643  17.681   5.022   7.266  0.0447 -0.3248 -0.1990
  353loPI   C6A 5644  17.812   5.248   6.954 -0.1449  0.4756  0.0323
  353loPI   C1B 5645  17.732   5.754   9.041 -0.1968 -0.2270  0.0000
  353loPI   C2B 5646  17.561   5.951   8.677  0.1016  0.1215 -0.1502
  353loPI   C3B 5647  17.511   6.047   8.161 -0.1156  0.3429  0.2913
  353loPI   C4B 5648  17.108   6.099   7.996  0.2324 -0.0345 -0.1130
  354loPI    C1 5649   1.923   3.743   9.913 -0.0629 -0.3003 -0.0238
  354loPI    C2 5650   1.594   3.691  10.135  0.0528 -0.1189  0.1933
  354loPI    C3 5651   1.953   3.599  10.285  0.1344  0.0289  0.0918
  354loPI   PO4 5652   1.938   3.675   9.713 -0.1862 -0.1625 -0.2250
  354loPI   GL1 5653   1.867   3.635   9.329  0.0061 -0.1930  0.0836
  354loPI   GL2 5654   1.850   3.932   9.170  0.2085 -0.1394 -0.2043
  354loPI   C1A 5655   2.015   3.395   9.068 -0.0350  0.0176 -0.3002
  354loPI   C2A 5656   1.931   3.176   8.672 -0.1152  0.0965  0.3740
  354loPI   C3A 5657   1.863   3.265   8.201  0.1478 -0.4077 -0.2258
  354loPI   C4A 5658   1.899   3.301   7.728  0.1518 -0.4951 -0.1448
  354loPI   C5A 5659   2.162   3.108   7.358  0.1019  0.4435 -0.0215
  354loPI   C6A 5660   2.644   2.999   7.074  0.0339 -0.2428 -0.3150
  354loPI   C1B 5661   1.885   3.796   8.778 -0.0122  0.2294 -0.0463
  354loPI   C2B 5662   2.064   3.715   8.348 -0.0745  0.3987  0.1220
  354loPI   C3B 5663   2.123   3.733   7.915  0.2603  0.3167 -0.1416
  354loPI   C4B 5664   2.307   3.566   7.534  0.0423 -0.3389  0.1674
  355loPI    C1 5665   9.080   3.368   9.929  0.0163  0.2103 -0.0942
  355loPI    C2 5666   9.430   3.562   9.938  0.0377  0.1620  0.2274
  355loPI    C3 5667   9.309   3.352  10.256 -0.1343 -0.0905  0.0002
  355loPI   PO4 5668   9.133   3.213   9.698 -0.2244  0.0142 -0.2424
  355loPI   GL1 5669   9.014   3.154   9.281 -0.2530 -0.2973 -0.0533
  355loPI   GL2 5670   9.261   3.426   9.295 -0.1408 -0.3691 -0.1996
  355loPI   C1A 5671   9.064   3.007   8.822  0.1935  0.0556 -0.0779
  355loPI   C2A 5672   9.021   2.929   8.398 -0.1132  0.0610  0.1103
  355loPI   C3A 5673   9.006   2.930   7.922 -0.1381 -0.2146 -0.0926
  355loPI   C4A 5674   9.010   2.862   7.542 -0.0384 -0.0511  0.0992
  355loPI   C5A 5675   8.666   2.735   7.361 -0.0085 -0.0624 -0.0409
  355loPI   C6A 5676   8.279   3.098   7.275  0.2960  0.3359  0.1781
  355loPI   C1B 5677   9.660   3.553   9.116  0.0906  0.0560  0.1781
  355loPI   C2B 5678   9.774   3.618   8.524 -0.0297 -0.3977 -0.0154
  355loPI   C3B 5679   9.711   3.617   8.060  0.0561  0.1937  0.5194
  355loPI   C4B 5680   9.763   3.540   7.590  0.2654  0.0614  0.0889
  356loPI    C1 5681   2.038  12.041  10.078  0.0931 -0.1032  0.1573
  356loPI    C2 5682   1.745  12.055   9.805  0.2425  0.2404  0.0094
  356loPI    C3 5683   1.891  11.702   9.923 -0.0171  0.0780 -0.1450
  356loPI   PO4 5684   2.101  12.385   9.927 -0.1565  0.2032 -0.1141
  356loPI   GL1 5685   2.045  12.468   9.542  0.0995 -0.0113 -0.1690
  356loPI   GL2 5686   2.048  12.765   9.408 -0.1218  0.3348 -0.1149
  356loPI   C1A 5687   2.250  12.256   9.246 -0.2603  0.0508  0.5309
  356loPI   C2A 5688   2.222  12.153   8.821 -0.0047 -0.1651  0.1084
  356loPI   C3A 5689   2.118  12.029   8.350  0.1189 -0.0219 -0.0053
  356loPI   C4A 5690   2.124  11.916   7.920  0.0237 -0.2055 -0.1551
  356loPI   C5A 5691   2.274  12.098   7.537 -0.4834  0.0127 -0.2089
  356loPI   C6A 5692   2.455  12.352   7.247 -0.2124 -0.1871 -0.1411
  356loPI   C1B 5693   2.006  12.826   9.017  0.1803  0.0813  0.1859
  356loPI   C2B 5694   2.065  12.562   8.700 -0.0596 -0.0186  0.3107
  356loPI   C3B 5695   2.422  12.435   8.512  0.1422 -0.2338 -0.0842
  356loPI   C4B 5696   2.852  12.570   8.626 -0.0043 -0.0153  0.2237
  357loPI    C1 5697   7.648   8.164   9.577 -0.0544 -0.0312  0.0659
  357loPI    C2 5698   8.006   8.317   9.671 -0.0344 -0.1008  0.1036
  357loPI    C3 5699   7.946   7.922   9.688 -0.1137 -0.0892  0.0994
  357loPI   PO4 5700   7.583   8.202   9.231  0.0516  0.0594 -0.0103
  357loPI   GL1 5701   7.550   8.192   8.855 -0.0008 -0.1221 -0.3855
  357loPI   GL2 5702   7.903   8.157   8.863 -0.0470 -0.2127  0.2760
  357loPI   C1A 5703   7.304   8.088   8.453  0.1419  0.1069 -0.1950
  357loPI   C2A 5704   7.497   7.997   8.031 -0.0979  0.0818 -0.1343
  357loPI   C3A 5705   7.556   7.935   7.582  0.0435  0.1462  0.2728
  357loPI   C4A 5706   7.514   8.082   7.170 -0.4689 -0.1212 -0.3109
  357loPI   C5A 5707   7.635   8.172   6.791 -0.0046  0.3340  0.1391
  357loPI   C6A 5708   7.547   8.262   6.457  0.2506  0.2434  0.0385
  357loPI   C1B 5709   7.828   8.153   8.422  0.2101  0.0147 -0.0287
  357loPI   C2B 5710   8.048   8.096   8.146  0.0170  0.0059  0.1547
  357loPI   C3B 5711   8.098   8.078   7.796  0.1829 -0.1168  0.2466
  357loPI   C4B 5712   8.398   8.098   7.414 -0.2924  0.1186 -0.0948
  358loPI    C1 5713  18.052  18.809  10.540  0.0402  0.0900  0.0010
  358loPI    C2 5714  17.832  19.037  10.783  0.1354  0.0968  0.0819
  358loPI    C3 5715  17.806  18.639  10.806  0.2691  0.0953  0.2202
  358loPI   PO4 5716  17.926  18.927  10.308 -0.2487 -0.1362  0.0692
  358loPI   GL1 5717  17.871  18.746  10.000 -0.2874  0.2302 -0.0879
  358loPI   GL2 5718  17.841  18.418  10.226 -0.0280  0.1596 -0.0375
  358loPI   C1A 5719  17.873  18.500   9.569 -0.0787  0.1523  0.7080
  358loPI   C2A 5720  17.774  18.441   9.171 -0.1575  0.2153 -0.1688
  358loPI   C3A 5721  17.596  18.357   8.783 -0.0858  0.0037  0.0282
  358loPI   C4A 5722  17.589  18.370   8.371  0.3610 -0.2222  0.3081
  358loPI   C5A 5723  17.462  18.234   7.968 -0.3450 -0.0441  0.2976
  358loPI   C6A 5724  17.197  18.450   7.619  0.1923 -0.1498  0.0878
  358loPI   C1B 5725  17.583  18.153   9.831  0.2607 -0.0478 -0.2645
  358loPI   C2B 5726  17.737  17.994   9.476 -0.0222 -0.0485  0.0997
  358loPI   C3B 5727  17.657  17.893   9.053 -0.3849 -0.3776 -0.0058
  358loPI   C4B 5728  17.527  17.887   8.663  0.0039  0.1755 -0.0591
  359loPI    C1 5729   6.119  16.167   9.917  0.0125  0.0960 -0.1337
  359loPI    C2 5730   5.825  15.961  10.094  0.1284  0.0521  0.0102
  359loPI    C3 5731   6.201  15.925  10.225  0.2133  0.0370 -0.2317
  359loPI   PO4 5732   6.063  16.137   9.612 -0.2029  0.0036 -0.3052
  359loPI   GL1 5733   6.272  16.014   9.268  0.0364 -0.2789 -0.0859
  359loPI   GL2 5734   6.158  16.263   9.117  0.0952 -0.1356 -0.1238
  359loPI   C1A 5735   6.560  15.982   8.910  0.2424  0.1740 -0.1081
  359loPI   C2A 5736   6.587  16.096   8.441  0.0110 -0.1621 -0.1828
  359loPI   C3A 5737   6.682  15.971   8.022 -0.3448 -0.0770 -0.0432
  359loPI   C4A 5738   6.896  15.959   7.689  0.0036  0.0019 -0.0046
  359loPI   C5A 5739   7.102  15.874   7.402 -0.0890 -0.0468 -0.1181
  359loPI   C6A 5740   7.294  15.683   7.043  0.0846 -0.0216 -0.6246
  359loPI   C1B 5741   6.053  16.118   8.700  0.4525 -0.0377 -0.0700
  359loPI   C2B 5742   6.104  16.211   8.241 -0.0066 -0.0652 -0.0628
  359loPI   C3B 5743   6.199  16.146   7.803  0.1118  0.1956 -0.0753
  359loPI   C4B 5744   6.477  16.075   7.467  0.2063 -0.0215 -0.0109
  360loPI    C1 5745   0.229   0.198  10.396  0.1015 -0.0031 -0.1892
  360loPI    C2 5746   0.496  -0.036  10.579  0.1560  0.1406 -0.0825
  360loPI    C3 5747   0.260   0.205  10.794 -0.1384 -0.0651 -0.1681
  360loPI   PO4 5748   0.112   0.074  10.146 -0.0460  0.0159  0.0241
  360loPI   GL1 5749  -0.221   0.262   9.927  0.0597 -0.1202  0.1262
  360loPI   GL2 5750  -0.042   0.494   9.668 -0.0291 -0.1053 -0.0134
  360loPI   C1A 5751  -0.577   0.042   9.672  0.1297  0.1099  0.1236
  360loPI   C2A 5752  -0.594  -0.010   9.191 -0.0510 -0.1922  0.0147
  360loPI   C3A 5753  -0.404   0.113   8.772 -0.1423  0.0782  0.3409
  360loPI   C4A 5754  -0.516   0.006   8.304  0.0354  0.0431 -0.0314
  360loPI   C5A 5755  -0.568  -0.096   7.787 -0.0982  0.0074 -0.0734
  360loPI   C6A 5756  -0.534  -0.067   7.334 -0.2138  0.3494 -0.1667
  360loPI   C1B 5757   0.008   0.653   9.245  0.0056  0.1246  0.0464
  360loPI   C2B 5758   0.381   0.568   8.982  0.0437 -0.0598 -0.1230
  360loPI   C3B 5759   0.402   0.423   8.500  0.1793  0.2079 -0.0140
  360loPI   C4B 5760   0.445   0.368   8.114 -0.0186 -0.1572 -0.0448
  361loPI    C1 5761   4.984   0.295   9.982 -0.0381 -0.1425 -0.1588
  361loPI    C2 5762   5.238   0.248  10.288  0.0884 -0.0918 -0.2555
  361loPI    C3 5763   4.886   0.428  10.346  0.0421 -0.2299 -0.1048
  361loPI   PO4 5764   4.938   0.096   9.819 -0.0798 -0.1221 -0.0452
  361loPI   GL1 5765   4.837  -0.182   9.457  0.1319  0.2784 -0.0616
  361loPI   GL2 5766   5.140   0.071   9.210 -0.1510  0.1597 -0.1256
  361loPI   C1A 5767   4.653   0.076   9.121 -0.2482  0.0337 -0.0110
  361loPI   C2A 5768   4.356   0.065   8.825  0.1792  0.2294 -0.2394
  361loPI   C3A 5769   4.019   0.211   8.536  0.2349  0.3318  0.1456
  361loPI   C4A 5770   3.934   0.492   8.258  0.0060  0.0918 -0.0237
  361loPI   C5A 5771   4.118   0.759   7.969  0.0670  0.1579 -0.0174
  361loPI   C6A 5772   4.306   1.227   8.025  0.0344 -0.0907  0.2084
  361loPI   C1B 5773   5.055  -0.244   8.863  0.0958  0.0707  0.0397
  361loPI   C2B 5774   5.096  -0.146   8.336  0.0814  0.1966 -0.2296
  361loPI   C3B 5775   4.814  -0.148   7.937 -0.0240 -0.0243 -0.1474
  361loPI   C4B 5776   4.603  -0.105   7.615 -0.0784 -0.2078  0.3927
  362loPI    C1 5777  10.636  17.827  10.549 -0.1357  0.1201  0.0280
  362loPI    C2 5778  10.909  17.913  10.829  0.0465 -0.0343 -0.0994
  362loPI    C3 5779  10.632  17.634  10.899  0.0571 -0.0330 -0.0524
  362loPI   PO4 5780  10.815  17.841  10.293  0.0302  0.0722 -0.1258
  362loPI   GL1 5781  11.034  17.985   9.973  0.0680 -0.2898  0.2291
  362loPI   GL2 5782  11.195  17.710   9.938 -0.2419  0.1036  0.2091
  362loPI   C1A 5783  10.983  18.181   9.631  0.1209  0.1668 -0.2185
  362loPI   C2A 5784  10.963  18.356   9.157  0.1161  0.2425 -0.0901
  362loPI   C3A 5785  11.039  18.406   8.724  0.1809 -0.1480  0.2715
  362loPI   C4A 5786  11.079  18.583   8.294  0.2619  0.0493 -0.0336
  362loPI   C5A 5787  10.844  18.850   7.986  0.0508  0.0977 -0.0359
  362loPI   C6A 5788  10.538  19.063   7.755 -0.2099  0.0176  0.2987
  362loPI   C1B 5789  11.082  17.708   9.480  0.2533  0.1118  0.0539
  362loPI   C2B 5790  10.914  17.847   9.119 -0.0329  0.0362  0.1462
  362loPI   C3B 5791  11.033  17.734   8.741  0.1957  0.0149  0.1402
  362loPI   C4B 5792  11.154  17.650   8.336 -0.0594  0.2258 -0.2413
  363loPI    C1 5793  14.587  13.224   9.993 -0.1007  0.1702 -0.1266
  363loPI    C2 5794  14.279  13.118  10.225 -0.1747  0.1857 -0.2174
  363loPI    C3 5795  14.573  12.858  10.153 -0.0573  0.2430  0.0451
  363loPI   PO4 5796  14.407  13.413   9.851 -0.0382 -0.0666 -0.2155
  363loPI   GL1 5797  14.153  13.466   9.460  0.4268 -0.2410 -0.3515
  363loPI   GL2 5798  14.432  13.251   9.289 -0.1836 -0.1821 -0.1065
  363loPI   C1A 5799  13.939  13.640   9.053  0.1358  0.0142  0.0485
  363loPI   C2A 5800  13.621  13.489   8.732  0.1041 -0.1205 -0.0337
  363loPI   C3A 5801  13.773  13.401   8.322  0.1839 -0.2385  0.0065
  363loPI   C4A 5802  13.839  13.383   7.874  0.1869  0.3226  0.0230
  363loPI   C5A 5803  14.031  13.382   7.520 -0.0232  0.2298  0.1011
  363loPI   C6A 5804  14.161  12.972   7.415 -0.0328 -0.4389 -0.2462
  363loPI   C1B 5805  14.480  13.495   8.983 -0.0321  0.2820  0.3313
  363loPI   C2B 5806  14.237  13.543   8.557  0.0014 -0.4120 -0.2571
  363loPI   C3B 5807  14.273  13.477   8.130 -0.3641  0.0982 -0.1252
  363loPI   C4B 5808  14.389  13.200   7.810  0.1954 -0.0273 -0.3839
  364loPI    C1 5809  11.409   5.610   9.564 -0.2436 -0.2894  0.1430
  364loPI    C2 5810  11.539   5.864   9.844 -0.0164 -0.0970 -0.1321
  364loPI    C3 5811  11.231   5.622   9.922 -0.0842  0.0942  0.2142
  364loPI   PO4 5812  11.316   5.874   9.358  0.2438 -0.2299 -0.2051
  364loPI   GL1 5813  11.206   5.910   8.985 -0.4419 -0.0508  0.1803
  364loPI   GL2 5814  10.836   5.816   8.839  0.0496 -0.0167  0.1598
  364loPI   C1A 5815  11.251   5.932   8.536 -0.1139  0.3149 -0.0028
  364loPI   C2A 5816  11.195   5.843   8.076  0.0369  0.3350  0.0375
  364loPI   C3A 5817  10.969   5.984   7.704 -0.0614  0.0699 -0.0847
  364loPI   C4A 5818  10.922   5.721   7.347 -0.0330 -0.1460  0.2280
  364loPI   C5A 5819  11.212   5.471   7.098 -0.1321  0.1784 -0.1103
  364loPI   C6A 5820  11.431   5.065   6.950  0.0419 -0.1805  0.0194
  364loPI   C1B 5821  10.733   6.022   8.497 -0.1456  0.4013 -0.0046
  364loPI   C2B 5822  10.404   6.154   8.432 -0.0494 -0.1339 -0.0568
  364loPI   C3B 5823   9.998   6.030   8.391 -0.1162 -0.3026  0.2948
  364loPI   C4B 5824   9.756   5.800   8.134 -0.3426  0.0220 -0.4173
  365loPI    C1 5825  11.137   9.841   9.824 -0.0949 -0.0867  0.1538
  365loPI    C2 5826  11.489  10.016   9.897 -0.1383  0.0925 -0.0560
  365loPI    C3 5827  11.273   9.868  10.199  0.1186 -0.0248  0.0735
  365loPI   PO4 5828  11.224   9.666   9.647  0.0500 -0.3649  0.0374
  365loPI   GL1 5829  11.025   9.634   9.320  0.0411  0.0912  0.1906
  365loPI   GL2 5830  11.275   9.572   9.129 -0.6607 -0.2949 -0.3050
  365loPI   C1A 5831  10.751   9.813   8.980  0.0528  0.0228 -0.0320
  365loPI   C2A 5832  10.739   9.818   8.498  0.0794 -0.2755 -0.2563
  365loPI   C3A 5833  10.804   9.753   8.078 -0.0944  0.1242 -0.1857
  365loPI   C4A 5834  10.931   9.747   7.621 -0.2785  0.1420  0.2595
  365loPI   C5A 5835  10.984   9.898   7.245  0.0712 -0.1135  0.3735
  365loPI   C6A 5836  11.064  10.349   7.034 -0.0339  0.2462  0.1879
  365loPI   C1B 5837  11.127   9.537   8.777  0.1043 -0.1569 -0.1520
  365loPI   C2B 5838  11.219   9.533   8.348  0.0984 -0.0052  0.2407
  365loPI   C3B 5839  11.419   9.609   8.008 -0.2717  0.0279 -0.0859
  365loPI   C4B 5840  11.469   9.744   7.562  0.2909 -0.2548 -0.1366
  366loPI    C1 5841  11.296   2.193  10.268 -0.1406  0.1720  0.0927
  366loPI    C2 5842  11.008   1.920  10.320  0.0465 -0.0549 -0.0436
  366loPI    C3 5843  11.232   2.035  10.630  0.0070 -0.1013  0.0024
  366loPI   PO4 5844  11.132   2.373  10.074  0.1606 -0.2251 -0.2744
  366loPI   GL1 5845  11.137   2.312   9.691 -0.2316  0.0163 -0.2718
  366loPI   GL2 5846  11.477   2.347   9.596  0.2940 -0.0468 -0.3754
  366loPI   C1A 5847  10.894   2.561   9.329 -0.0360 -0.0300 -0.0401
  366loPI   C2A 5848  10.774   2.504   8.875 -0.0626 -0.2797 -0.1073
  366loPI   C3A 5849  11.098   2.415   8.419  0.1160 -0.0914 -0.1165
  366loPI   C4A 5850  11.214   2.416   8.007  0.1917  0.0101  0.2277
  366loPI   C5A 5851  11.247   2.781   7.648 -0.3365  0.0784 -0.0986
  366loPI   C6A 5852  11.465   2.897   7.345  0.3410  0.2711  0.0921
  366loPI   C1B 5853  11.603   1.979   9.301 -0.0532  0.2787 -0.3509
  366loPI   C2B 5854  11.626   1.779   8.993 -0.3947 -0.0376 -0.0043
  366loPI   C3B 5855  11.482   1.784   8.622 -0.3423 -0.2086 -0.0168
  366loPI   C4B 5856  11.303   1.822   8.213 -0.0780  0.0089 -0.2800
  367loPI    C1 5857   8.803   5.857   9.678  0.0673  0.0590  0.0579
  367loPI    C2 5858   8.770   5.492   9.838  0.0569 -0.0327 -0.1505
  367loPI    C3 5859   9.069   5.733   9.950  0.0689 -0.1078 -0.0187
  367loPI   PO4 5860   8.810   5.795   9.408 -0.0150 -0.3042  0.1919
  367loPI   GL1 5861   8.679   5.841   8.840 -0.2068  0.1009  0.1221
  367loPI   GL2 5862   8.997   6.075   8.733  0.1141 -0.0616 -0.2091
  367loPI   C1A 5863   8.599   5.798   8.436 -0.2044  0.0843  0.0392
  367loPI   C2A 5864   8.661   5.801   7.908  0.0293  0.0938 -0.2019
  367loPI   C3A 5865   8.877   5.937   7.531 -0.3655  0.0885 -0.2336
  367loPI   C4A 5866   8.636   6.072   7.208 -0.2630 -0.0448  0.0358
  367loPI   C5A 5867   8.577   6.505   7.103  0.3947  0.2492  0.1416
  367loPI   C6A 5868   8.204   6.674   6.905 -0.1032 -0.0418  0.0948
  367loPI   C1B 5869   9.039   5.964   8.245 -0.0772  0.2195  0.1341
  367loPI   C2B 5870   9.314   5.912   7.925  0.1271  0.1192  0.0407
  367loPI   C3B 5871   9.378   5.941   7.497  0.0827  0.0575  0.0746
  367loPI   C4B 5872   9.180   6.034   7.168 -0.1064 -0.2966  0.0644
  368loPI    C1 5873   0.575   9.365   9.794  0.2313 -0.1393  0.1422
  368loPI    C2 5874   0.870   9.582   9.633  0.1169  0.0328  0.1618
  368loPI    C3 5875   0.774   9.629  10.018  0.0682 -0.0278  0.1573
  368loPI   PO4 5876   0.457   9.335   9.547 -0.1023  0.1021  0.1295
  368loPI   GL1 5877   0.607   9.331   9.163  0.0005 -0.0106  0.0598
  368loPI   GL2 5878   0.581   9.657   9.138  0.0722  0.3554 -0.1160
  368loPI   C1A 5879   0.718   9.331   8.696  0.3093 -0.1700 -0.0374
  368loPI   C2A 5880   1.115   9.191   8.485  0.1618 -0.1307 -0.1158
  368loPI   C3A 5881   1.091   8.963   8.150 -0.0097  0.0162  0.1517
  368loPI   C4A 5882   1.077   8.865   7.799  0.2440  0.2598 -0.1899
  368loPI   C5A 5883   0.933   8.708   7.486  0.2558 -0.1288  0.1837
  368loPI   C6A 5884   0.632   8.410   7.346 -0.1749 -0.2163 -0.0231
  368loPI   C1B 5885   0.860   9.825   8.910  0.2055 -0.1233  0.2865
  368loPI   C2B 5886   1.098   9.742   8.486  0.0951  0.0592 -0.0107
  368loPI   C3B 5887   1.122   9.567   8.147 -0.1167  0.0366 -0.1907
  368loPI   C4B 5888   1.410   9.290   7.937 -0.2173 -0.1559 -0.0188
  369loPI    C1 5889   1.691   7.208  10.178 -0.0541 -0.1422  0.1392
  369loPI    C2 5890   1.550   7.572  10.269  0.0306 -0.1202  0.1833
  369loPI    C3 5891   1.330   7.247  10.345 -0.1563 -0.0617 -0.0961
  369loPI   PO4 5892   1.868   7.242  10.024  0.1938 -0.0095 -0.1942
  369loPI   GL1 5893   1.729   7.223   9.610  0.2174 -0.0155 -0.3899
  369loPI   GL2 5894   1.879   6.981   9.553  0.1673 -0.0752  0.0273
  369loPI   C1A 5895   1.835   7.269   9.177  0.0615  0.0800  0.1441
  369loPI   C2A 5896   1.911   7.578   8.810  0.0393 -0.1893  0.1219
  369loPI   C3A 5897   1.957   7.888   8.641  0.3483  0.0803 -0.2015
  369loPI   C4A 5898   2.167   8.179   8.388  0.1041  0.0247  0.1380
  369loPI   C5A 5899   2.341   8.359   8.063 -0.0270  0.3056 -0.2865
  369loPI   C6A 5900   2.358   8.358   7.617 -0.2504  0.1470 -0.2323
  369loPI   C1B 5901   2.186   7.044   9.397 -0.1725 -0.2149 -0.0414
  369loPI   C2B 5902   2.602   7.128   9.120  0.0636  0.1419 -0.1747
  369loPI   C3B 5903   2.819   6.963   8.802 -0.0971 -0.3187  0.0474
  369loPI   C4B 5904   2.739   6.909   8.405 -0.1323 -0.0188 -0.0189
  370loPI    C1 5905   9.708   8.583   9.777 -0.0976  0.2166 -0.0018
  370loPI    C2 5906  10.049   8.508   9.583 -0.1910 -0.0131 -0.0800
  370loPI    C3 5907   9.973   8.326   9.931 -0.2001  0.0967 -0.0244
  370loPI   PO4 5908   9.546   8.483   9.623  0.1363  0.0378 -0.1805
  370loPI   GL1 5909   9.469   8.521   9.308  0.1412 -0.2080 -0.1546
  370loPI   GL2 5910   9.727   8.432   9.103  0.1711 -0.1128 -0.0730
  370loPI   C1A 5911   9.271   8.722   8.972  0.0696  0.0160  0.0249
  370loPI   C2A 5912   9.234   8.740   8.561  0.2479  0.2076 -0.0093
  370loPI   C3A 5913   9.267   8.786   8.125  0.0587 -0.1082  0.1448
  370loPI   C4A 5914   9.285   8.865   7.613 -0.0722 -0.2017  0.1010
  370loPI   C5A 5915   9.266   9.131   7.166  0.3866  0.0180  0.3790
  370loPI   C6A 5916   9.262   9.055   6.753 -0.1053  0.1300  0.1874
  370loPI   C1B 5917   9.611   8.476   8.675  0.0764  0.0377  0.0108
  370loPI   C2B 5918   9.650   8.434   8.299  0.1198 -0.1147 -0.1314
  370loPI   C3B 5919   9.622   8.440   7.823 -0.0638 -0.2189 -0.1875
  370loPI   C4B 5920   9.608   8.577   7.351 -0.0409 -0.0229  0.2445
  371loPI    C1 5921  12.649   4.863   9.895  0.0154  0.1726 -0.1937
  371loPI    C2 5922  12.542   5.161  10.139  0.1071 -0.0333  0.1036
  371loPI    C3 5923  12.342   4.815  10.147  0.1934 -0.0869 -0.0206
  371loPI   PO4 5924  12.678   4.967   9.622 -0.0986 -0.1639  0.0292
  371loPI   GL1 5925  12.594   5.090   9.278 -0.0370  0.0467  0.0396
  371loPI   GL2 5926  12.295   5.120   9.139 -0.0461 -0.1476 -0.1781
  371loPI   C1A 5927  12.689   5.393   8.966  0.0424  0.0662 -0.2411
  371loPI   C2A 5928  12.616   5.478   8.544 -0.0075  0.2382  0.0827
  371loPI   C3A 5929  12.758   5.630   8.200 -0.1290 -0.2523  0.0448
  371loPI   C4A 5930  12.858   5.882   7.793 -0.0202  0.4387 -0.1293
  371loPI   C5A 5931  13.031   6.144   7.498 -0.1984 -0.1047  0.4120
  371loPI   C6A 5932  13.025   6.370   7.214 -0.3371  0.0880  0.2858
  371loPI   C1B 5933  12.420   4.929   8.749  0.1010 -0.0898 -0.0126
  371loPI   C2B 5934  12.382   4.686   8.343 -0.1384 -0.1156 -0.3982
  371loPI   C3B 5935  12.514   4.710   7.898 -0.1082 -0.3448 -0.1273
  371loPI   C4B 5936  12.601   4.672   7.541  0.1357  0.1778  0.0074
  372loPI    C1 5937  10.061   8.843  10.042  0.0451 -0.0022  0.0480
  372loPI    C2 5938  10.283   9.047  10.304 -0.0812  0.2353 -0.0264
  372loPI    C3 5939   9.891   8.999  10.369 -0.0878  0.1801 -0.1057
  372loPI   PO4 5940  10.139   8.969   9.805 -0.0085  0.1126 -0.3427
  372loPI   GL1 5941   9.924   8.917   9.361  0.0979 -0.3716  0.2872
  372loPI   GL2 5942   9.566   9.039   9.209  0.0970 -0.0299  0.2638
  372loPI   C1A 5943  10.135   8.651   9.040  0.1170  0.0740  0.0418
  372loPI   C2A 5944  10.141   8.656   8.550 -0.0637  0.0511 -0.2876
  372loPI   C3A 5945  10.202   8.613   8.145  0.1491  0.0732  0.1720
  372loPI   C4A 5946  10.110   8.564   7.749 -0.0600  0.2325 -0.1320
  372loPI   C5A 5947  10.117   8.566   7.266 -0.2385 -0.1057  0.1846
  372loPI   C6A 5948  10.091   8.713   6.742  0.0025 -0.1071 -0.1887
  372loPI   C1B 5949   9.746   8.941   8.880  0.0470  0.2047 -0.1272
  372loPI   C2B 5950   9.747   8.889   8.410 -0.0233 -0.0898 -0.2144
  372loPI   C3B 5951   9.761   8.872   7.979 -0.0894  0.1152 -0.0951
  372loPI   C4B 5952   9.808   9.042   7.451 -0.1364  0.3227 -0.0208
  373loPI    C1 5953  15.635   4.606   9.761 -0.0943  0.0770 -0.0540
  373loPI    C2 5954  15.434   4.855   9.520 -0.1773  0.1517  0.0916
  373loPI    C3 5955  15.501   4.956   9.902 -0.1420 -0.0141  0.1299
  373loPI   PO4 5956  15.751   4.439   9.613  0.2704  0.0512  0.3798
  373loPI   GL1 5957  15.974   4.231   9.380 -0.4214 -0.1647  0.3029
  373loPI   GL2 5958  16.266   4.017   9.260  0.0484 -0.0057  0.0532
  373loPI   C1A 5959  16.047   4.228   8.892 -0.0900  0.0419 -0.0188
  373loPI   C2A 5960  16.066   4.142   8.550  0.1428 -0.0806  0.0402
  373loPI   C3A 5961  16.148   4.044   8.075  0.1455 -0.5868 -0.1462
  373loPI   C4A 5962  16.413   3.717   7.909 -0.0082 -0.0069  0.2095
  373loPI   C5A 5963  16.560   3.506   7.505  0.3230 -0.3756 -0.3148
  373loPI   C6A 5964  16.860   3.576   7.207  0.0160 -0.2192 -0.1815
  373loPI   C1B 5965  16.470   3.844   8.844 -0.2737 -0.1561 -0.1396
  373loPI   C2B 5966  16.496   4.064   8.396 -0.0592 -0.0562  0.2574
  373loPI   C3B 5967  16.628   4.204   7.931  0.0131 -0.0843 -0.2989
  373loPI   C4B 5968  16.559   4.385   7.560 -0.1330  0.0171 -0.2156
  374loPI    C1 5969  14.191   6.630   9.748  0.0928 -0.1488 -0.0410
  374loPI    C2 5970  14.560   6.636   9.905  0.1022 -0.0287 -0.0665
  374loPI    C3 5971  14.252   6.502  10.122  0.1483 -0.0554 -0.0176
  374loPI   PO4 5972  14.270   6.523   9.434  0.1974  0.0771 -0.0367
  374loPI   GL1 5973  14.634   6.455   9.077 -0.0569 -0.1665 -0.2761
  374loPI   GL2 5974  14.718   6.804   9.293 -0.3243  0.0003  0.2888
  374loPI   C1A 5975  14.566   6.429   8.687  0.0480 -0.1187 -0.2494
  374loPI   C2A 5976  14.488   6.273   8.269  0.1380  0.2526  0.2801
  374loPI   C3A 5977  14.427   6.056   7.815  0.1235  0.0693 -0.0746
  374loPI   C4A 5978  14.141   6.038   7.445 -0.0047  0.0622 -0.0608
  374loPI   C5A 5979  13.766   5.868   7.340 -0.2088  0.0318  0.1837
  374loPI   C6A 5980  13.351   5.896   7.148 -0.0974  0.1954 -0.2224
  374loPI   C1B 5981  14.887   6.793   8.862  0.0072 -0.1162  0.0500
  374loPI   C2B 5982  14.911   6.599   8.427 -0.3510  0.0316  0.3907
  374loPI   C3B 5983  14.902   6.532   7.997  0.2997 -0.2194  0.2494
  374loPI   C4B 5984  14.680   6.559   7.576  0.0647 -0.4006 -0.0424
  375loPI    C1 5985  14.689   8.338  10.053 -0.0038  0.2026  0.3399
  375loPI    C2 5986  15.006   8.099  10.001 -0.2027  0.0222 -0.0990
  375loPI    C3 5987  15.040   8.432  10.221  0.2160 -0.1337  0.0828
  375loPI   PO4 5988  14.503   8.251   9.859 -0.0096 -0.2752 -0.0510
  375loPI   GL1 5989  14.476   8.076   9.457  0.1895 -0.0270  0.3585
  375loPI   GL2 5990  14.478   7.803   9.209  0.1476  0.0455 -0.0159
  375loPI   C1A 5991  14.356   8.407   9.112 -0.2022  0.0977 -0.1813
  375loPI   C2A 5992  14.133   8.688   8.790  0.2531 -0.0442 -0.1828
  375loPI   C3A 5993  14.019   8.724   8.376  0.1597 -0.0146 -0.1791
  375loPI   C4A 5994  14.254   8.888   8.048 -0.0485 -0.2805  0.2535
  375loPI   C5A 5995  14.392   8.969   7.597  0.2290 -0.2051  0.5064
  375loPI   C6A 5996  14.432   9.074   7.138  0.3070 -0.1075  0.1017
  375loPI   C1B 5997  14.563   8.010   8.896  0.0183 -0.0614  0.4571
  375loPI   C2B 5998  14.379   8.296   8.606  0.1451 -0.1453  0.2838
  375loPI   C3B 5999  14.427   8.453   8.218  0.1082 -0.1039  0.1607
  375loPI   C4B 6000  14.393   8.431   7.768 -0.3126 -0.0115  0.2296
  376loPI    C1 6001   3.092  15.019   9.780 -0.2364 -0.3500 -0.0200
  376loPI    C2 6002   2.893  14.876  10.096 -0.2380 -0.0263  0.1289
  376loPI    C3 6003   3.236  15.075  10.148 -0.3288  0.1838 -0.0571
  376loPI   PO4 6004   2.911  14.999   9.586 -0.0855  0.0303 -0.2516
  376loPI   GL1 6005   2.578  15.151   9.225 -0.1495  0.1256 -0.2303
  376loPI   GL2 6006   2.580  14.800   9.285  0.0652  0.5378 -0.1793
  376loPI   C1A 6007   2.742  15.104   8.817  0.0099 -0.3436  0.4004
  376loPI   C2A 6008   2.746  14.966   8.362 -0.2009 -0.0457 -0.0986
  376loPI   C3A 6009   2.702  14.864   7.943  0.2067  0.2225 -0.2494
  376loPI   C4A 6010   2.985  14.647   7.709  0.0326  0.3429 -0.2180
  376loPI   C5A 6011   3.154  14.363   7.373  0.1750 -0.0572 -0.1659
  376loPI   C6A 6012   3.053  14.013   7.356 -0.0236  0.3244  0.0764
  376loPI   C1B 6013   2.292  14.836   8.951  0.0454  0.0926  0.1495
  376loPI   C2B 6014   2.238  14.957   8.455 -0.0392  0.2133 -0.1397
  376loPI   C3B 6015   2.194  14.954   7.975 -0.2094 -0.0740 -0.3532
  376loPI   C4B 6016   1.903  15.043   7.680 -0.0397  0.2331  0.1887
  377loPI    C1 6017  19.013   5.765   9.851  0.1513 -0.1048 -0.0323
  377loPI    C2 6018  19.327   5.655  10.073 -0.0297  0.0158  0.2899
  377loPI    C3 6019  19.040   5.883  10.232 -0.1678  0.0998 -0.0697
  377loPI   PO4 6020  19.136   5.644   9.568 -0.0886 -0.1166  0.0549
  377loPI   GL1 6021  19.209   5.459   9.157  0.0618  0.4075  0.2903
  377loPI   GL2 6022  19.164   5.732   9.105 -0.2256 -0.0979 -0.0652
  377loPI   C1A 6023  19.380   5.240   8.796  0.0761  0.1510 -0.1577
  377loPI   C2A 6024  19.216   5.233   8.501  0.2133 -0.0818  0.2005
  377loPI   C3A 6025  19.268   5.351   8.062  0.0115 -0.1651 -0.0900
  377loPI   C4A 6026  19.513   5.322   7.724  0.0487  0.1820  0.1467
  377loPI   C5A 6027  19.534   5.662   7.387  0.0884 -0.1371  0.1547
  377loPI   C6A 6028  19.731   5.803   6.962 -0.0775 -0.0390  0.2275
  377loPI   C1B 6029  19.052   5.647   8.737  0.1903 -0.0177  0.0977
  377loPI   C2B 6030  18.874   5.544   8.370 -0.0301 -0.0578 -0.0607
  377loPI   C3B 6031  18.789   5.168   8.046 -0.2656  0.2617 -0.1696
  377loPI   C4B 6032  18.588   5.050   7.654  0.2030 -0.1625  0.0890
  378loPI    C1 6033   6.233  12.514  10.053  0.0869 -0.2123 -0.0365
  378loPI    C2 6034   6.411  12.668  10.376  0.0459 -0.0670 -0.0819
  378loPI    C3 6035   6.444  12.277  10.296  0.2037 -0.0716  0.0007
  378loPI   PO4 6036   6.341  12.658   9.824 -0.1516 -0.1831 -0.0122
  378loPI   GL1 6037   6.421  12.824   9.422 -0.1992 -0.3700 -0.3320
  378loPI   GL2 6038   6.767  12.932   9.448 -0.1585  0.1522  0.1155
  378loPI   C1A 6039   6.434  12.789   8.998 -0.1712 -0.0297 -0.0657
  378loPI   C2A 6040   6.721  12.871   8.628  0.2012 -0.1449 -0.2386
  378loPI   C3A 6041   6.784  12.905   8.135  0.0892 -0.1307  0.0231
  378loPI   C4A 6042   6.841  13.036   7.710 -0.0470  0.1605  0.0423
  378loPI   C5A 6043   7.028  13.221   7.411 -0.1986  0.1372 -0.2789
  378loPI   C6A 6044   7.438  13.410   7.382 -0.4771 -0.1466 -0.0675
  378loPI   C1B 6045   7.004  12.892   9.032  0.0465 -0.1260 -0.3389
  378loPI   C2B 6046   7.255  12.960   8.602  0.0305 -0.1733 -0.1149
  378loPI   C3B 6047   7.318  13.107   8.190  0.3147 -0.4072 -0.0399
  378loPI   C4B 6048   7.328  12.988   7.790 -0.1570  0.3201  0.0019
  379loPI    C1 6049  16.649  16.422  10.318 -0.2014 -0.0429 -0.1255
  379loPI    C2 6050  16.785  16.619  10.638 -0.1498 -0.1514 -0.0804
  379loPI    C3 6051  16.907  16.244  10.567  0.0151 -0.0493 -0.3506
  379loPI   PO4 6052  16.661  16.616  10.089  0.3894 -0.1964  0.0172
  379loPI   GL1 6053  16.723  16.670   9.648 -0.2346 -0.0452  0.1746
  379loPI   GL2 6054  16.970  16.441   9.664  0.0938  0.1920 -0.0797
  379loPI   C1A 6055  16.744  16.770   9.242  0.0382 -0.1378  0.2296
  379loPI   C2A 6056  16.566  16.834   8.806  0.1060 -0.0097  0.1886
  379loPI   C3A 6057  16.357  16.861   8.358  0.1792 -0.0596 -0.2046
  379loPI   C4A 6058  15.938  17.118   8.062 -0.2824 -0.0796 -0.0143
  379loPI   C5A 6059  15.557  16.963   7.932 -0.3031  0.0647  0.1918
  379loPI   C6A 6060  15.203  16.999   7.612 -0.2617  0.1313 -0.1012
  379loPI   C1B 6061  16.951  16.324   9.299 -0.4960  0.2803  0.3020
  379loPI   C2B 6062  16.893  16.408   8.789 -0.3813 -0.3493  0.1267
  379loPI   C3B 6063  16.830  16.572   8.451  0.0131 -0.0930  0.2770
  379loPI   C4B 6064  16.835  16.745   8.112  0.2011 -0.1308  0.0772
  380loPI    C1 6065   4.605  14.221   9.486  0.0683 -0.1274 -0.1476
  380loPI    C2 6066   4.641  13.884   9.699 -0.0097 -0.0759 -0.0523
  380loPI    C3 6067   4.287  14.069   9.676  0.0651  0.0768  0.0131
  380loPI   PO4 6068   4.701  14.152   9.270  0.0273 -0.2606  0.0232
  380loPI   GL1 6069   4.989  14.362   9.146 -0.1233 -0.2579 -0.0910
  380loPI   GL2 6070   5.307  14.318   9.102  0.2591  0.1868 -0.1378
  380loPI   C1A 6071   4.904  14.429   8.762 -0.0948 -0.2622 -0.0455
  380loPI   C2A 6072   4.749  14.601   8.398  0.0186 -0.2731 -0.2101
  380loPI   C3A 6073   4.418  14.671   8.261  0.1521 -0.1512 -0.2439
  380loPI   C4A 6074   4.372  14.509   7.887  0.2996  0.0403 -0.0275
  380loPI   C5A 6075   4.407  14.266   7.513  0.2245  0.3376 -0.0165
  380loPI   C6A 6076   4.289  14.320   6.975  0.3859 -0.0337  0.2236
  380loPI   C1B 6077   5.360  14.265   8.631  0.3102  0.3222  0.2714
  380loPI   C2B 6078   5.035  14.243   8.327 -0.1067  0.1167  0.1578
  380loPI   C3B 6079   4.856  14.238   7.947 -0.0577  0.2573  0.0873
  380loPI   C4B 6080   4.830  14.452   7.582  0.2204 -0.2365  0.2779
  381loPI    C1 6081   9.546   2.428  10.015  0.1327 -0.2248 -0.0216
  381loPI    C2 6082   9.260   2.400  10.294  0.2084 -0.2905  0.0503
  381loPI    C3 6083   9.645   2.383  10.400  0.2462  0.0907 -0.0116
  381loPI   PO4 6084   9.453   2.543   9.805  0.0798  0.1512 -0.0821
  381loPI   GL1 6085   9.539   2.698   9.436  0.1778 -0.3108 -0.0484
  381loPI   GL2 6086   9.266   2.437   9.266  0.1676 -0.0690 -0.0315
  381loPI   C1A 6087   9.478   2.976   9.101  0.1169 -0.0863  0.2536
  381loPI   C2A 6088   9.420   3.346   8.781 -0.0392 -0.2430  0.0927
  381loPI   C3A 6089   9.207   3.430   8.423  0.1286  0.1550  0.0055
  381loPI   C4A 6090   9.345   3.359   7.878  0.1195 -0.1812 -0.0783
  381loPI   C5A 6091   9.419   3.115   7.445 -0.0422  0.0703  0.0185
  381loPI   C6A 6092   9.818   2.858   7.202 -0.2812 -0.3130  0.3103
  381loPI   C1B 6093   9.392   2.523   8.958 -0.0193 -0.3991 -0.1198
  381loPI   C2B 6094   9.408   2.439   8.519  0.1382  0.1441  0.1154
  381loPI   C3B 6095   9.602   2.623   8.163 -0.0118 -0.0407  0.0082
  381loPI   C4B 6096   9.443   2.732   7.821 -0.0485  0.0605  0.1313
  382loPI    C1 6097   5.082  15.452   9.869 -0.0923 -0.1909 -0.2118
  382loPI    C2 6098   5.068  15.053   9.901 -0.2843 -0.1736 -0.0669
  382loPI    C3 6099   5.124  15.278  10.227  0.0403 -0.0897 -0.1778
  382loPI   PO4 6100   5.095  15.484   9.659 -0.2040 -0.0417  0.0291
  382loPI   GL1 6101   5.184  15.576   9.253  0.1410  0.0884 -0.3231
  382loPI   GL2 6102   5.211  15.266   9.100  0.1118 -0.1185 -0.2271
  382loPI   C1A 6103   5.256  15.789   8.935  0.0637 -0.0938 -0.1492
  382loPI   C2A 6104   5.313  15.789   8.533 -0.0256 -0.2940 -0.2236
  382loPI   C3A 6105   5.261  15.689   8.132 -0.1873  0.3379  0.1260
  382loPI   C4A 6106   5.294  15.716   7.692  0.1524  0.1692  0.1394
  382loPI   C5A 6107   5.250  15.969   7.314 -0.0191  0.0204 -0.0072
  382loPI   C6A 6108   5.028  15.981   7.041  0.1712  0.0723 -0.0186
  382loPI   C1B 6109   5.277  15.270   8.717 -0.0830  0.3467  0.1030
  382loPI   C2B 6110   5.583  15.409   8.364 -0.0794  0.2176  0.1012
  382loPI   C3B 6111   5.734  15.604   7.906  0.1141  0.1336  0.5021
  382loPI   C4B 6112   5.721  15.640   7.413 -0.0799 -0.0619 -0.1535
  383loPI    C1 6113   5.074   6.119   9.944 -0.0836  0.0569 -0.0339
  383loPI    C2 6114   5.278   5.900  10.209 -0.0453  0.0394 -0.0775
  383loPI    C3 6115   5.008   6.167  10.335  0.0538  0.1115 -0.0170
  383loPI   PO4 6116   4.908   6.003   9.768 -0.0572 -0.3070  0.5662
  383loPI   GL1 6117   4.954   6.025   9.347  0.1383  0.0405 -0.2913
  383loPI   GL2 6118   5.120   6.300   9.454 -0.0776 -0.0766  0.1067
  383loPI   C1A 6119   5.178   6.035   8.937 -0.0191  0.3870  0.0485
  383loPI   C2A 6120   5.120   6.053   8.556  0.2111 -0.0797  0.1050
  383loPI   C3A 6121   5.208   6.065   8.128 -0.1172 -0.0626 -0.1892
  383loPI   C4A 6122   5.299   5.951   7.648  0.0019  0.2422  0.2262
  383loPI   C5A 6123   5.218   6.203   7.256  0.3230 -0.1047  0.2837
  383loPI   C6A 6124   5.123   6.449   7.037  0.1815 -0.0776 -0.2114
  383loPI   C1B 6125   4.931   6.503   9.208 -0.0497 -0.1085 -0.2343
  383loPI   C2B 6126   4.915   6.567   8.749  0.0207 -0.3009  0.2237
  383loPI   C3B 6127   5.066   6.501   8.348 -0.1650  0.0194 -0.1418
  383loPI   C4B 6128   4.863   6.388   7.895 -0.0254 -0.4135 -0.0454
  384loPI    C1 6129   6.273   8.229   9.353  0.0640  0.0331  0.1632
  384loPI    C2 6130   5.914   8.404   9.364 -0.0352 -0.1523 -0.0494
  384loPI    C3 6131   6.021   8.148   9.653 -0.0125  0.0189  0.0954
  384loPI   PO4 6132   6.411   8.539   9.137 -0.1431  0.0932 -0.1558
  384loPI   GL1 6133   6.563   8.631   8.773 -0.2638  0.0007 -0.4634
  384loPI   GL2 6134   6.782   8.479   8.742  0.0159 -0.0729  0.2575
  384loPI   C1A 6135   6.389   8.996   8.609 -0.2025  0.0720 -0.1014
  384loPI   C2A 6136   6.406   9.117   8.140 -0.3132  0.2421 -0.1340
  384loPI   C3A 6137   6.498   9.064   7.710 -0.1628 -0.0673  0.0168
  384loPI   C4A 6138   6.762   8.995   7.450 -0.1031  0.0166 -0.1294
  384loPI   C5A 6139   6.911   8.931   7.005  0.0178  0.0722 -0.0783
  384loPI   C6A 6140   6.929   8.614   6.792 -0.0813 -0.2411  0.0862
  384loPI   C1B 6141   6.871   8.350   8.421  0.0272 -0.2726 -0.0595
  384loPI   C2B 6142   7.054   8.236   8.083  0.4365 -0.0501  0.3565
  384loPI   C3B 6143   7.256   8.332   7.665 -0.1225  0.1372  0.0498
  384loPI   C4B 6144   7.047   8.408   7.229  0.1658  0.2150 -0.3558
  385loPI    C1 6145   4.762   4.825  10.131 -0.0969  0.0746  0.0144
  385loPI    C2 6146   4.412   4.953   9.985 -0.1235  0.1410  0.1357
  385loPI    C3 6147   4.445   4.856  10.372 -0.0375  0.0235  0.0994
  385loPI   PO4 6148   4.885   4.585   9.943  0.1158 -0.0680 -0.0030
  385loPI   GL1 6149   4.714   4.515   9.549 -0.2827  0.3101 -0.0359
  385loPI   GL2 6150   4.621   4.783   9.564 -0.2842 -0.1603  0.0056
  385loPI   C1A 6151   4.952   4.702   9.092  0.1920  0.0552  0.3421
  385loPI   C2A 6152   4.960   4.653   8.678  0.0016 -0.0892  0.1211
  385loPI   C3A 6153   4.841   4.595   8.296  0.0864 -0.1059 -0.0117
  385loPI   C4A 6154   4.827   4.575   7.870 -0.2856  0.4164  0.2940
  385loPI   C5A 6155   5.106   4.735   7.615  0.3815  0.0255  0.2987
  385loPI   C6A 6156   5.490   4.581   7.491  0.2718 -0.1493 -0.1096
  385loPI   C1B 6157   4.486   4.790   9.139 -0.2405 -0.2851 -0.2270
  385loPI   C2B 6158   4.371   4.688   8.628 -0.2299 -0.0872  0.0785
  385loPI   C3B 6159   4.377   4.739   8.019 -0.3364  0.1194  0.3205
  385loPI   C4B 6160   4.255   4.650   7.638 -0.2685  0.3423  0.0963
  386loPI    C1 6161  18.418   7.362   9.472  0.1153 -0.1888 -0.1506
  386loPI    C2 6162  18.492   7.105   9.769  0.0521 -0.1539 -0.1044
  386loPI    C3 6163  18.563   7.495   9.820 -0.1170 -0.1261 -0.0755
  386loPI   PO4 6164  18.096   7.332   9.424 -0.0753  0.1042 -0.1680
  386loPI   GL1 6165  17.994   7.491   8.999 -0.2128  0.1683  0.0406
  386loPI   GL2 6166  17.818   7.176   9.073  0.0016 -0.0458 -0.0335
  386loPI   C1A 6167  17.899   7.565   8.467  0.1690 -0.2414  0.2286
  386loPI   C2A 6168  17.706   7.717   8.129 -0.1071  0.0693  0.0131
  386loPI   C3A 6169  17.603   7.777   7.647 -0.2349  0.1565  0.1468
  386loPI   C4A 6170  17.675   7.916   7.216  0.2660 -0.0793  0.1862
  386loPI   C5A 6171  17.623   7.996   6.763  0.0479  0.2842  0.0536
  386loPI   C6A 6172  17.704   8.142   6.347 -0.2067 -0.0671  0.0994
  386loPI   C1B 6173  17.461   7.095   8.837 -0.0383  0.1778  0.2589
  386loPI   C2B 6174  17.138   6.862   8.438  0.0414  0.4416 -0.4895
  386loPI   C3B 6175  17.288   6.528   8.175  0.0441 -0.2004 -0.3442
  386loPI   C4B 6176  17.468   6.393   7.772  0.1470 -0.2470 -0.0998
  387loPI    C1 6177  10.090  13.354  10.143 -0.2664 -0.2478  0.0109
  387loPI    C2 6178  10.342  13.163   9.898  0.1811 -0.0689  0.3191
  387loPI    C3 6179  10.414  13.172  10.291 -0.1494  0.2390  0.3775
  387loPI   PO4 6180  10.019  13.616   9.977  0.2267  0.0734 -0.2016
  387loPI   GL1 6181  10.137  13.714   9.545  0.0370 -0.1876  0.1713
  387loPI   GL2 6182  10.260  13.453   9.471 -0.2983 -0.1523 -0.1443
  387loPI   C1A 6183  10.165  13.836   9.135 -0.0893  0.0592  0.0646
  387loPI   C2A 6184  10.335  13.946   8.767  0.0609 -0.0131  0.5029
  387loPI   C3A 6185  10.191  13.842   8.372 -0.0914  0.2658 -0.2845
  387loPI   C4A 6186  10.224  14.085   8.045 -0.2023 -0.1083 -0.2938
  387loPI   C5A 6187  10.191  14.466   7.783 -0.1523 -0.0968  0.1047
  387loPI   C6A 6188  10.486  14.769   7.718 -0.0345 -0.1507  0.1240
  387loPI   C1B 6189  10.130  13.381   9.091  0.1289  0.1971  0.2727
  387loPI   C2B 6190  10.009  13.565   8.739 -0.4226 -0.0820 -0.1074
  387loPI   C3B 6191   9.922  13.442   8.294 -0.0076 -0.0747 -0.0468
  387loPI   C4B 6192   9.908  13.375   7.848  0.1380 -0.4624 -0.1491
  388loPI    C1 6193  10.607   3.718   9.861  0.3233 -0.0970  0.0598
  388loPI    C2 6194  10.812   3.870  10.170  0.0571 -0.1741  0.2780
  388loPI    C3 6195  10.466   3.680  10.233 -0.0243 -0.1500 -0.0743
  388loPI   PO4 6196  10.752   3.582   9.744  0.1041 -0.2547 -0.2333
  388loPI   GL1 6197  10.772   3.421   9.328 -0.1731 -0.0333  0.0127
  388loPI   GL2 6198  11.055   3.122   9.271 -0.4851 -0.0779  0.0326
  388loPI   C1A 6199  10.880   3.494   8.996 -0.2200 -0.2980 -0.1699
  388loPI   C2A 6200  10.798   3.287   8.563 -0.1107  0.0876 -0.1635
  388loPI   C3A 6201  10.574   3.245   8.160 -0.1957  0.0860 -0.0854
  388loPI   C4A 6202  10.352   2.930   7.947  0.2805  0.1526  0.0200
  388loPI   C5A 6203  10.130   2.640   7.869 -0.1381  0.1647 -0.0047
  388loPI   C6A 6204   9.965   2.503   7.556 -0.1017 -0.1865 -0.4268
  388loPI   C1B 6205  11.002   2.982   8.942  0.1987 -0.0234  0.2048
  388loPI   C2B 6206  11.115   2.913   8.509 -0.1027 -0.1136 -0.1442
  388loPI   C3B 6207  11.131   3.140   8.101 -0.0544 -0.0097 -0.0062
  388loPI   C4B 6208  10.814   3.181   7.772  0.1113 -0.1826 -0.1445
  389loPI    C1 6209  19.073  18.021  10.330  0.0515  0.0751 -0.1716
  389loPI    C2 6210  19.114  18.169  10.699 -0.5291 -0.1129 -0.0209
  389loPI    C3 6211  19.325  17.848  10.588 -0.2590  0.0187  0.1007
  389loPI   PO4 6212  18.737  17.985  10.288  0.0209 -0.0685 -0.0353
  389loPI   GL1 6213  18.625  18.183   9.846 -0.1876 -0.4057 -0.1107
  389loPI   GL2 6214  18.781  18.333   9.632  0.1916 -0.0165 -0.0682
  389loPI   C1A 6215  18.302  18.178   9.517 -0.0080  0.2519 -0.1854
  389loPI   C2A 6216  18.231  18.135   9.075  0.1119 -0.0161 -0.0393
  389loPI   C3A 6217  18.159  18.135   8.692  0.2194  0.3541  0.0753
  389loPI   C4A 6218  18.048  18.007   8.355  0.3358 -0.1386  0.2125
  389loPI   C5A 6219  17.786  17.862   8.225  0.5422  0.0675 -0.0316
  389loPI   C6A 6220  17.348  17.760   8.132  0.1704 -0.1351 -0.0616
  389loPI   C1B 6221  18.764  18.266   9.184  0.3220 -0.4035 -0.1918
  389loPI   C2B 6222  18.613  18.267   8.702  0.0326  0.0795 -0.0632
  389loPI   C3B 6223  18.511  18.286   8.269 -0.2281  0.2630  0.1098
  389loPI   C4B 6224  18.201  18.336   7.897 -0.1614  0.2786 -0.0660
  390loPI    C1 6225  10.251   4.046  10.020  0.0858 -0.0307  0.0505
  390loPI    C2 6226  10.013   4.301  10.215  0.0856  0.1213 -0.1455
  390loPI    C3 6227  10.326   4.138  10.401 -0.0927  0.0238  0.0736
  390loPI   PO4 6228  10.207   3.964   9.765 -0.1201 -0.3030 -0.2559
  390loPI   GL1 6229  10.352   3.748   9.431  0.3470  0.0993  0.1302
  390loPI   GL2 6230  10.158   3.970   9.264 -0.1961  0.0817  0.2826
  390loPI   C1A 6231  10.294   3.449   9.073 -0.1281  0.2097 -0.1224
  390loPI   C2A 6232  10.365   3.531   8.649  0.1456 -0.0229 -0.1720
  390loPI   C3A 6233  10.227   3.571   8.234  0.1288  0.0050 -0.0591
  390loPI   C4A 6234  10.188   3.881   7.905 -0.1622  0.0115  0.3587
  390loPI   C5A 6235   9.969   4.096   7.655 -0.0072  0.3530 -0.2619
  390loPI   C6A 6236   9.816   4.499   7.631  0.0946 -0.2510 -0.1859
  390loPI   C1B 6237   9.926   3.956   8.860  0.0007  0.1822 -0.0621
  390loPI   C2B 6238   9.752   4.290   8.709  0.1802 -0.0952 -0.2272
  390loPI   C3B 6239   9.484   4.079   8.388  0.3053 -0.0374 -0.2140
  390loPI   C4B 6240   9.219   3.837   8.107  0.1097  0.0725 -0.2670
  391loPI    C1 6241   1.946   5.003  10.123 -0.0695 -0.0429 -0.0208
  391loPI    C2 6242   1.637   5.142  10.336  0.0619  0.1891  0.0214
  391loPI    C3 6243   1.995   5.098  10.509  0.1240  0.2002 -0.1031
  391loPI   PO4 6244   1.893   5.114   9.841  0.0256 -0.0495  0.2171
  391loPI   GL1 6245   2.103   5.363   9.555 -0.2648 -0.1517  0.1493
  391loPI   GL2 6246   2.076   5.260   9.311 -0.3234  0.3004 -0.2184
  391loPI   C1A 6247   2.168   5.719   9.302 -0.1865  0.3768  0.1965
  391loPI   C2A 6248   2.160   5.708   8.846  0.0489  0.3944 -0.0794
  391loPI   C3A 6249   2.030   5.605   8.357 -0.0317 -0.2406  0.0688
  391loPI   C4A 6250   2.072   5.567   7.959  0.0304  0.0202  0.0872
  391loPI   C5A 6251   2.018   5.618   7.527  0.2099 -0.2825 -0.1730
  391loPI   C6A 6252   1.854   5.645   7.080 -0.0556  0.3837  0.2801
  391loPI   C1B 6253   1.848   5.246   8.967  0.2200  0.2489  0.0794
  391loPI   C2B 6254   1.780   5.139   8.560 -0.0128 -0.1106  0.1077
  391loPI   C3B 6255   1.743   5.155   8.008  0.2076 -0.1152  0.0838
  391loPI   C4B 6256   1.746   5.153   7.588  0.2755  0.1692 -0.0527
  392loPI    C1 6257  12.809   1.819  10.182  0.1833 -0.0930  0.0311
  392loPI    C2 6258  13.068   1.992   9.930  0.1711  0.1075  0.1539
  392loPI    C3 6259  13.179   1.908  10.305  0.1305 -0.0195  0.1381
  392loPI   PO4 6260  12.707   1.594  10.007 -0.2906  0.1164  0.0486
  392loPI   GL1 6261  13.083   1.491   9.717  0.3908 -0.0082  0.1665
  392loPI   GL2 6262  13.069   1.717   9.487  0.1907  0.0932 -0.0865
  392loPI   C1A 6263  13.161   1.155   9.486 -0.2109  0.0527  0.2169
  392loPI   C2A 6264  13.292   1.076   9.108 -0.0013  0.1140  0.0685
  392loPI   C3A 6265  13.342   1.070   8.692  0.0439 -0.0242  0.1379
  392loPI   C4A 6266  13.139   1.277   8.234 -0.0426  0.3453 -0.1525
  392loPI   C5A 6267  12.923   1.156   7.872 -0.1683 -0.0083 -0.1026
  392loPI   C6A 6268  12.665   1.230   7.506 -0.0346  0.3700 -0.0490
  392loPI   C1B 6269  13.082   1.525   9.146 -0.1877  0.1232  0.0311
  392loPI   C2B 6270  13.153   1.551   8.727  0.0026 -0.1289  0.0019
  392loPI   C3B 6271  13.209   1.794   8.308  0.1866  0.3295  0.2133
  392loPI   C4B 6272  13.147   1.988   7.875  0.2288 -0.0911  0.0379
  393loPI    C1 6273   0.974  19.235  10.299  0.1542 -0.0279  0.1013
  393loPI    C2 6274   1.010  18.920  10.543  0.1458  0.0650  0.2234
  393loPI    C3 6275   1.129  19.282  10.665 -0.0736  0.1542  0.1772
  393loPI   PO4 6276   0.707  19.098  10.160  0.1257  0.0258 -0.2513
  393loPI   GL1 6277   0.512  19.263   9.841  0.3757 -0.2952  0.0619
  393loPI   GL2 6278   0.432  18.934   9.626  0.3694  0.1089  0.0186
  393loPI   C1A 6279   0.455  19.442   9.377 -0.2413  0.0369 -0.0006
  393loPI   C2A 6280   0.459  19.261   8.949  0.1475  0.1316  0.3070
  393loPI   C3A 6281   0.369  19.216   8.626  0.1019 -0.1789  0.1268
  393loPI   C4A 6282   0.315  19.189   8.237  0.0844 -0.1958  0.1808
  393loPI   C5A 6283   0.298  19.241   7.790 -0.2840  0.0393 -0.0609
  393loPI   C6A 6284  -0.065  19.171   7.569  0.0527 -0.1669  0.1840
  393loPI   C1B 6285   0.155  18.969   9.278 -0.0512 -0.1161 -0.1235
  393loPI   C2B 6286  -0.105  18.990   8.945  0.0088  0.3138 -0.2354
  393loPI   C3B 6287  -0.176  18.988   8.522 -0.2285 -0.1616 -0.1983
  393loPI   C4B 6288  -0.188  18.999   8.039 -0.0909 -0.1547  0.2037
  394loPI    C1 6289  10.795  18.394  10.209 -0.1820  0.1387  0.0146
  394loPI    C2 6290  10.653  18.321  10.576 -0.2148  0.3022  0.0352
  394loPI    C3 6291  11.048  18.348  10.515 -0.1868 -0.1577 -0.0228
  394loPI   PO4 6292  10.550  18.507  10.119 -0.1963 -0.1675 -0.1057
  394loPI   GL1 6293  10.832  18.828   9.860 -0.3273  0.0926 -0.1207
  394loPI   GL2 6294  10.911  19.163   9.889  0.4750  0.1259  0.2565
  394loPI   C1A 6295  10.763  18.708   9.417 -0.0934  0.2177 -0.0551
  394loPI   C2A 6296  10.532  18.793   9.106  0.4731 -0.2011  0.0529
  394loPI   C3A 6297  10.492  18.712   8.699 -0.0810  0.0003 -0.1200
  394loPI   C4A 6298  10.618  18.522   8.325 -0.2799 -0.1000  0.2696
  394loPI   C5A 6299  10.464  18.540   7.925 -0.1408  0.0465 -0.1720
  394loPI   C6A 6300  10.365  18.419   7.550  0.0499  0.2219  0.3023
  394loPI   C1B 6301  11.078  19.156   9.457 -0.1933 -0.1974 -0.0110
  394loPI   C2B 6302  11.023  19.350   9.082  0.0932 -0.1971  0.1762
  394loPI   C3B 6303  11.051  19.521   8.652 -0.2143  0.1277 -0.0871
  394loPI   C4B 6304  11.212  19.648   8.325 -0.3987 -0.0175 -0.2401
  395loPI    C1 6305   7.895   3.652   9.698 -0.0804  0.1996  0.1449
  395loPI    C2 6306   8.285   3.695   9.615 -0.1221  0.0999 -0.1129
  395loPI    C3 6307   8.037   4.006   9.575 -0.0291  0.2338  0.3003
  395loPI   PO4 6308   7.855   3.384   9.528  0.0332 -0.2183  0.0548
  395loPI   GL1 6309   7.745   3.071   9.307 -0.0810  0.0215 -0.0484
  395loPI   GL2 6310   7.719   2.868   9.195  0.1717 -0.0125 -0.0077
  395loPI   C1A 6311   7.511   3.163   8.893  0.0456  0.1372  0.3016
  395loPI   C2A 6312   7.608   3.329   8.458 -0.0650 -0.0021 -0.0148
  395loPI   C3A 6313   7.808   3.214   8.118 -0.1647  0.2352 -0.2204
  395loPI   C4A 6314   7.973   3.336   7.664 -0.0781  0.1825  0.2762
  395loPI   C5A 6315   7.817   3.517   7.283 -0.0382 -0.0903  0.2888
  395loPI   C6A 6316   8.088   3.527   6.942 -0.3093 -0.0181  0.0891
  395loPI   C1B 6317   7.879   2.859   8.759 -0.0243 -0.1108  0.4702
  395loPI   C2B 6318   8.012   2.605   8.375  0.0629 -0.2174 -0.1399
  395loPI   C3B 6319   8.138   2.377   8.015  0.0595 -0.2532  0.0824
  395loPI   C4B 6320   8.166   2.121   7.549  0.0089  0.2535 -0.0215
  396loPI    C1 6321  18.467   4.963   9.751 -0.0153 -0.1061 -0.1590
  396loPI    C2 6322  18.638   4.657   9.944 -0.0109 -0.0701 -0.1057
  396loPI    C3 6323  18.392   4.904  10.139  0.1788  0.1073 -0.0865
  396loPI   PO4 6324  18.493   4.795   9.411 -0.2420  0.0822  0.0903
  396loPI   GL1 6325  18.673   4.512   9.120 -0.1862 -0.0243  0.0070
  396loPI   GL2 6326  18.970   4.381   9.046 -0.0635  0.0234 -0.1512
  396loPI   C1A 6327  18.702   4.773   8.795  0.2034  0.0971 -0.1153
  396loPI   C2A 6328  18.603   4.878   8.391  0.0787  0.3091 -0.1434
  396loPI   C3A 6329  18.499   4.707   8.004 -0.0466 -0.1948  0.0767
  396loPI   C4A 6330  18.196   4.642   7.655  0.0338 -0.0046  0.0269
  396loPI   C5A 6331  17.825   4.535   7.376  0.0272  0.0427  0.0399
  396loPI   C6A 6332  17.471   4.451   7.149 -0.0829  0.0758 -0.2581
  396loPI   C1B 6333  18.992   4.045   8.820 -0.2466 -0.0666 -0.0797
  396loPI   C2B 6334  19.112   3.935   8.451 -0.1116 -0.1774 -0.0942
  396loPI   C3B 6335  18.873   3.943   8.090  0.0294 -0.0076 -0.1020
  396loPI   C4B 6336  19.008   4.085   7.652  0.2572 -0.0374 -0.1796
  397loPI    C1 6337  19.127  10.033  10.039 -0.2165  0.3828  0.0133
  397loPI    C2 6338  19.479   9.935  10.202 -0.2361  0.1516 -0.0807
  397loPI    C3 6339  19.166  10.018  10.437 -0.1334  0.3068  0.0027
  397loPI   PO4 6340  19.165   9.833   9.808 -0.1579  0.3242 -0.1591
  397loPI   GL1 6341  19.330   9.834   9.422  0.3557 -0.1529 -0.4136
  397loPI   GL2 6342  19.358   9.544   9.375  0.0575 -0.0486  0.2364
  397loPI   C1A 6343  19.442  10.088   9.047 -0.3461  0.1089 -0.2011
  397loPI   C2A 6344  19.385  10.269   8.604 -0.0317 -0.0734 -0.2740
  397loPI   C3A 6345  19.653  10.283   8.227  0.1213 -0.0920 -0.0814
  397loPI   C4A 6346  19.545  10.096   7.838 -0.3246 -0.2413  0.0910
  397loPI   C5A 6347  19.815  10.155   7.553  0.2389 -0.1115 -0.1259
  397loPI   C6A 6348  20.084  10.425   7.348  0.1753 -0.1907 -0.0603
  397loPI   C1B 6349  19.479   9.361   8.896 -0.1967  0.1083 -0.2185
  397loPI   C2B 6350  19.565   9.270   8.456  0.0729 -0.0046  0.0111
  397loPI   C3B 6351  19.976   9.312   8.114  0.2725  0.1103  0.3285
  397loPI   C4B 6352  20.098   9.224   7.708  0.0217  0.1731  0.0888
  398loPI    C1 6353  16.891   7.901  10.044  0.0042  0.0562  0.0041
  398loPI    C2 6354  16.680   8.237  10.094  0.1447  0.1523 -0.0437
  398loPI    C3 6355  16.780   8.015  10.411 -0.1571  0.0251 -0.0339
  398loPI   PO4 6356  16.883   7.822   9.816 -0.1276 -0.2352  0.2193
  398loPI   GL1 6357  16.645   7.728   9.346 -0.0611 -0.0192 -0.1036
  398loPI   GL2 6358  16.822   8.145   9.316 -0.5311  0.0262  0.0240
  398loPI   C1A 6359  16.593   7.627   8.889  0.0353  0.2354 -0.1192
  398loPI   C2A 6360  16.421   7.639   8.432  0.1014  0.0475  0.2214
  398loPI   C3A 6361  16.265   7.891   8.107  0.1567 -0.5836 -0.1808
  398loPI   C4A 6362  16.054   8.055   7.784  0.1557 -0.2357  0.0961
  398loPI   C5A 6363  15.786   8.039   7.338 -0.0917  0.1367  0.2112
  398loPI   C6A 6364  15.622   8.035   6.860 -0.2022  0.0484  0.1857
  398loPI   C1B 6365  16.818   8.373   8.935 -0.1457  0.1447  0.2832
  398loPI   C2B 6366  16.837   8.574   8.602 -0.0177  0.0364 -0.0472
  398loPI   C3B 6367  16.798   8.468   8.288  0.0001  0.2947  0.1702
  398loPI   C4B 6368  16.798   8.328   7.929  0.2182 -0.3167  0.4681
  399loPI    C1 6369   3.262   4.361  10.272 -0.0849 -0.2969  0.1030
  399loPI    C2 6370   3.160   4.661  10.516 -0.1126 -0.2409  0.0229
  399loPI    C3 6371   2.878   4.423  10.363 -0.0829 -0.3638  0.1573
  399loPI   PO4 6372   3.382   4.434  10.086 -0.0438  0.1658  0.2213
  399loPI   GL1 6373   3.182   4.451   9.756 -0.0573  0.2391 -0.3928
  399loPI   GL2 6374   3.396   4.526   9.567 -0.1183 -0.3196 -0.1983
  399loPI   C1A 6375   2.838   4.361   9.463 -0.0517 -0.2221  0.1395
  399loPI   C2A 6376   2.770   4.224   9.027 -0.0076  0.1840  0.0178
  399loPI   C3A 6377   2.617   4.043   8.690  0.1808 -0.0522 -0.1429
  399loPI   C4A 6378   2.512   3.948   8.305 -0.0159 -0.0549  0.1221
  399loPI   C5A 6379   2.571   4.029   7.836  0.1922  0.1292  0.1022
  399loPI   C6A 6380   2.872   4.207   7.416 -0.0887 -0.2006  0.0918
  399loPI   C1B 6381   3.172   4.542   9.113 -0.2997 -0.1867 -0.2184
  399loPI   C2B 6382   3.055   4.512   8.690  0.0736  0.0335  0.0219
  399loPI   C3B 6383   2.864   4.409   8.263  0.0557  0.2564 -0.1006
  399loPI   C4B 6384   2.960   4.469   7.834 -0.0300 -0.2173  0.2415
  400loPI    C1 6385   1.212  14.544  10.297 -0.0266 -0.1254 -0.1200
  400loPI    C2 6386   1.473  14.269  10.425  0.0306  0.0126  0.0649
  400loPI    C3 6387   1.571  14.657  10.431 -0.0921  0.0474 -0.0872
  400loPI   PO4 6388   1.114  14.497  10.085 -0.1913 -0.0955  0.2145
  400loPI   GL1 6389   1.118  14.515   9.616 -0.4877 -0.0590 -0.1613
  400loPI   GL2 6390   1.023  14.272   9.458  0.0497  0.1068  0.3159
  400loPI   C1A 6391   1.181  14.716   9.179 -0.0394 -0.1789  0.3768
  400loPI   C2A 6392   1.276  14.761   8.716 -0.0031  0.0318  0.0625
  400loPI   C3A 6393   1.238  14.625   8.292  0.0177  0.2611 -0.1201
  400loPI   C4A 6394   1.321  14.357   7.956  0.2240  0.1243 -0.4324
  400loPI   C5A 6395   1.162  14.031   7.590  0.3000  0.0586  0.0855
  400loPI   C6A 6396   0.765  13.783   7.553 -0.1990  0.0225 -0.1407
  400loPI   C1B 6397   1.033  14.179   9.068 -0.0665  0.1931  0.2353
  400loPI   C2B 6398   1.014  14.049   8.755 -0.3183 -0.0688  0.0720
  400loPI   C3B 6399   1.128  14.039   8.335  0.0020 -0.2684 -0.0145
  400loPI   C4B 6400   0.973  13.911   8.016 -0.1541  0.0831  0.4370
  401loPI    C1 6401  17.229   5.686   9.628  0.0722 -0.1781  0.2216
  401loPI    C2 6402  17.360   5.949   9.356 -0.2630 -0.3846 -0.1497
  401loPI    C3 6403  17.621   5.733   9.568  0.0059 -0.0752 -0.1596
  401loPI   PO4 6404  17.101   5.555   9.464  0.0493 -0.0213  0.1032
  401loPI   GL1 6405  17.025   5.812   8.996  0.1264 -0.1322 -0.1393
  401loPI   GL2 6406  16.847   5.512   9.065 -0.2228  0.1013  0.0506
  401loPI   C1A 6407  17.204   6.168   8.968  0.3554 -0.1181 -0.0640
  401loPI   C2A 6408  17.409   6.433   8.693  0.1947 -0.2132 -0.1857
  401loPI   C3A 6409  17.632   6.809   8.374  0.1840 -0.1684  0.1166
  401loPI   C4A 6410  17.702   6.774   7.981  0.0697 -0.3235  0.1802
  401loPI   C5A 6411  17.377   6.906   7.606 -0.1676  0.1070 -0.0000
  401loPI   C6A 6412  17.280   6.602   7.294  0.1520 -0.1290 -0.1611
  401loPI   C1B 6413  16.850   5.405   8.623  0.0630  0.4460  0.1755
  401loPI   C2B 6414  16.863   5.306   8.281  0.3061  0.0770 -0.0875
  401loPI   C3B 6415  17.149   5.114   7.956 -0.1912 -0.2612 -0.4267
  401loPI   C4B 6416  17.307   5.297   7.582  0.2628  0.0339  0.0720
  402loPI    C1 6417  15.641   5.553   9.840  0.0542  0.2747  0.0437
  402loPI    C2 6418  15.790   5.429  10.190 -0.1335 -0.1304 -0.0143
  402loPI    C3 6419  15.849   5.806  10.070  0.1530 -0.0598  0.3309
  402loPI   PO4 6420  15.645   5.410   9.643  0.0130  0.0847  0.0817
  402loPI   GL1 6421  15.916   5.064   9.424 -0.5452 -0.2197  0.3961
  402loPI   GL2 6422  16.209   5.188   9.210 -0.1835 -0.2108 -0.0043
  402loPI   C1A 6423  15.654   4.885   9.044  0.2309 -0.2865  0.1029
  402loPI   C2A 6424  15.502   4.850   8.598 -0.2001 -0.0170  0.0462
  402loPI   C3A 6425  15.353   4.806   8.228 -0.0255  0.0590  0.0280
  402loPI   C4A 6426  15.196   4.710   7.819  0.1602  0.0424  0.0710
  402loPI   C5A 6427  15.157   4.461   7.517 -0.2390 -0.0334 -0.1363
  402loPI   C6A 6428  15.261   4.095   7.496  0.0149  0.4399  0.1607
  402loPI   C1B 6429  16.027   5.127   8.754  0.1289  0.1324 -0.2627
  402loPI   C2B 6430  15.945   5.007   8.277  0.1853 -0.0354  0.1261
  402loPI   C3B 6431  16.002   5.337   7.927 -0.0208 -0.1092 -0.0457
  402loPI   C4B 6432  16.246   5.180   7.560  0.3251 -0.0638  0.0555
  403loPI    C1 6433  12.870   0.312  10.657  0.0231 -0.0449  0.1518
  403loPI    C2 6434  13.188   0.142  10.831  0.0547 -0.0255  0.1133
  403loPI    C3 6435  12.906   0.315  11.055  0.1670  0.1267  0.1389
  403loPI   PO4 6436  12.789   0.161  10.520 -0.4947 -0.0544  0.2577
  403loPI   GL1 6437  12.820   0.110  10.116  0.0791  0.0514 -0.0634
  403loPI   GL2 6438  12.800  -0.206   9.911 -0.0838 -0.3331 -0.0835
  403loPI   C1A 6439  12.703   0.212   9.681  0.1805 -0.4068  0.0298
  403loPI   C2A 6440  12.552   0.165   9.203 -0.0730 -0.2496  0.0596
  403loPI   C3A 6441  12.457  -0.096   8.839 -0.1189 -0.2008 -0.3379
  403loPI   C4A 6442  12.500  -0.251   8.427 -0.1539  0.0232 -0.0696
  403loPI   C5A 6443  12.494  -0.575   8.121  0.4262 -0.2243  0.1243
  403loPI   C6A 6444  12.431  -0.907   7.848  0.1081  0.1759  0.2280
  403loPI   C1B 6445  12.660  -0.238   9.527 -0.0052  0.1428  0.3403
  403loPI   C2B 6446  12.193  -0.342   9.282 -0.1761  0.2847 -0.2540
  403loPI   C3B 6447  12.073  -0.445   8.877 -0.1519  0.1159 -0.4112
  403loPI   C4B 6448  12.012  -0.458   8.471  0.1784  0.1146 -0.1334
  404loPI    C1 6449  14.857  10.042   9.791  0.1602  0.1334  0.1602
  404loPI    C2 6450  14.553  10.214   9.988 -0.0448  0.0034 -0.0378
  404loPI    C3 6451  14.931  10.305  10.084 -0.1463  0.2952  0.0970
  404loPI   PO4 6452  14.719   9.841   9.620 -0.0818 -0.1173 -0.0650
  404loPI   GL1 6453  14.525   9.991   9.138 -0.1582  0.0948  0.0136
  404loPI   GL2 6454  14.644   9.738   9.047 -0.0635 -0.0393 -0.0662
  404loPI   C1A 6455  14.634  10.207   8.760 -0.1858 -0.0387 -0.0353
  404loPI   C2A 6456  14.708  10.131   8.308  0.0697  0.0970 -0.0953
  404loPI   C3A 6457  14.726  10.130   7.871 -0.0518  0.3499  0.1721
  404loPI   C4A 6458  14.670   9.978   7.467  0.1496 -0.1339  0.0821
  404loPI   C5A 6459  14.790   9.938   7.060 -0.0725  0.1550  0.0698
  404loPI   C6A 6460  15.087   9.926   6.659  0.1851 -0.0960 -0.3750
  404loPI   C1B 6461  14.430   9.676   8.659 -0.0252  0.3428 -0.0459
  404loPI   C2B 6462  14.411   9.691   8.223 -0.0224 -0.2005  0.1900
  404loPI   C3B 6463  14.294   9.943   7.844 -0.1561 -0.3586  0.3072
  404loPI   C4B 6464  14.424  10.417   7.616  0.2699 -0.0465 -0.0081
  405loPI    C1 6465   5.051  13.505   9.771  0.1104  0.1571 -0.1066
  405loPI    C2 6466   5.282  13.469  10.096  0.1681  0.0225 -0.1615
  405loPI    C3 6467   5.103  13.147   9.941 -0.2119  0.1539 -0.0087
  405loPI   PO4 6468   5.146  13.625   9.568 -0.2149  0.2550 -0.1616
  405loPI   GL1 6469   4.950  13.740   9.185 -0.1538 -0.1780 -0.1982
  405loPI   GL2 6470   4.781  13.400   9.280 -0.0512  0.1963 -0.0704
  405loPI   C1A 6471   5.069  13.851   8.771  0.1048 -0.0027  0.3234
  405loPI   C2A 6472   5.208  13.767   8.380  0.1756 -0.0487 -0.0416
  405loPI   C3A 6473   5.368  13.890   7.990 -0.2036  0.2266  0.2660
  405loPI   C4A 6474   5.540  14.002   7.609  0.2521 -0.2724 -0.0428
  405loPI   C5A 6475   5.766  13.886   7.289 -0.1419 -0.0538  0.4180
  405loPI   C6A 6476   5.726  13.795   6.705 -0.0902 -0.0150 -0.0314
  405loPI   C1B 6477   5.003  13.303   8.831  0.1204  0.0009 -0.1640
  405loPI   C2B 6478   5.158  12.977   8.603  0.0772  0.0296 -0.0836
  405loPI   C3B 6479   5.511  12.815   8.450  0.0566 -0.0663 -0.1987
  405loPI   C4B 6480   5.855  12.854   8.600  0.0623  0.0140 -0.0905
  406loPI    C1 6481   9.461  11.240   9.332 -0.2556  0.0893  0.0611
  406loPI    C2 6482   9.391  10.893   9.518  0.1033 -0.0475 -0.0491
  406loPI    C3 6483   9.306  11.239   9.700  0.0126 -0.1875  0.1779
  406loPI   PO4 6484   9.774  11.160   9.282 -0.0202 -0.0954 -0.0003
  406loPI   GL1 6485  10.013  11.108   8.963  0.1946 -0.0075  0.1775
  406loPI   GL2 6486  10.163  10.844   9.010  0.0064 -0.0927  0.2481
  406loPI   C1A 6487  10.006  11.483   8.667 -0.0695 -0.2055  0.2728
  406loPI   C2A 6488  10.158  11.622   8.266 -0.1221  0.1327 -0.1144
  406loPI   C3A 6489  10.104  12.146   8.099 -0.0382  0.0911 -0.2978
  406loPI   C4A 6490   9.743  12.241   7.947  0.2065  0.2136 -0.2430
  406loPI   C5A 6491   9.577  12.533   7.647  0.0779 -0.0771  0.2370
  406loPI   C6A 6492   9.399  12.787   7.239 -0.0168 -0.2077  0.1210
  406loPI   C1B 6493  10.324  10.633   8.645 -0.1219 -0.0242  0.1928
  406loPI   C2B 6494  10.378  10.676   8.177 -0.2656 -0.0116 -0.0599
  406loPI   C3B 6495  10.473  10.579   7.803  0.4133  0.3085  0.1823
  406loPI   C4B 6496  10.663  10.870   7.422  0.0791 -0.0591  0.3007
  407loPI    C1 6497   6.149   5.505   9.822  0.0846 -0.1208  0.1411
  407loPI    C2 6498   5.774   5.631   9.880  0.2542  0.3475  0.2626
  407loPI    C3 6499   5.993   5.507  10.191  0.1178 -0.1878  0.1558
  407loPI   PO4 6500   6.182   5.386   9.539  0.3496  0.3276 -0.2858
  407loPI   GL1 6501   5.855   5.431   9.260  0.0641 -0.1569  0.0474
  407loPI   GL2 6502   5.603   5.631   9.289  0.0592 -0.0580  0.2676
  407loPI   C1A 6503   5.767   5.238   8.981  0.0785 -0.3743 -0.1717
  407loPI   C2A 6504   5.924   5.063   8.754  0.3993  0.0471  0.2400
  407loPI   C3A 6505   5.986   5.094   8.293  0.1744  0.1757 -0.1660
  407loPI   C4A 6506   5.785   5.094   7.914  0.0902  0.1041 -0.1071
  407loPI   C5A 6507   5.946   4.791   7.580  0.1890 -0.1548 -0.0666
  407loPI   C6A 6508   5.828   4.845   7.177  0.2755 -0.1575  0.2477
  407loPI   C1B 6509   5.422   5.641   8.811  0.2161  0.5342 -0.1991
  407loPI   C2B 6510   5.187   5.534   8.544  0.3536 -0.0278  0.0826
  407loPI   C3B 6511   5.153   5.330   8.152  0.3364  0.0797  0.3145
  407loPI   C4B 6512   5.273   5.046   7.997  0.0417 -0.2302 -0.1401
  408loPI    C1 6513  14.616  10.560   9.646 -0.3480  0.1356 -0.0966
  408loPI    C2 6514  14.807  10.891   9.527 -0.1004 -0.0008 -0.0866
  408loPI    C3 6515  14.450  10.919   9.707 -0.0739  0.2605 -0.0704
  408loPI   PO4 6516  14.613  10.406   9.498  0.0605  0.0912  0.0090
  408loPI   GL1 6517  14.851  10.425   9.194  0.0867 -0.3710 -0.3690
  408loPI   GL2 6518  14.998  10.183   9.208  0.0617  0.2450  0.1000
  408loPI   C1A 6519  14.765  10.681   8.840  0.0526 -0.0418  0.0456
  408loPI   C2A 6520  14.865  10.627   8.493 -0.0876 -0.3885  0.1978
  408loPI   C3A 6521  14.938  10.566   8.049 -0.2165  0.1140  0.0277
  408loPI   C4A 6522  14.911  10.541   7.655  0.3162  0.2737 -0.0437
  408loPI   C5A 6523  14.726  10.673   7.219  0.0062  0.5161  0.1697
  408loPI   C6A 6524  15.031  10.926   6.960 -0.1606 -0.1226  0.1772
  408loPI   C1B 6525  15.137  10.292   8.793  0.3134 -0.0189  0.1708
  408loPI   C2B 6526  15.206  10.173   8.323 -0.1325  0.0656  0.1543
  408loPI   C3B 6527  15.298  10.114   7.961 -0.0284 -0.1019  0.0995
  408loPI   C4B 6528  15.638  10.099   7.592  0.0669  0.2709  0.0590
  409loPI    C1 6529  17.435   8.462  10.348 -0.3199  0.2440 -0.0072
  409loPI    C2 6530  17.201   8.283  10.077 -0.2126  0.1506 -0.0391
  409loPI    C3 6531  17.037   8.471  10.390 -0.3245 -0.0767  0.0411
  409loPI   PO4 6532  17.650   8.638  10.188 -0.4046 -0.0279 -0.0099
  409loPI   GL1 6533  17.815   8.681   9.677  0.1587  0.2387 -0.1348
  409loPI   GL2 6534  17.631   8.950   9.500  0.2528  0.0745 -0.4329
  409loPI   C1A 6535  18.162   8.847   9.293  0.2691  0.2391  0.1628
  409loPI   C2A 6536  18.461   8.744   8.915 -0.0320  0.1543  0.3383
  409loPI   C3A 6537  18.464   8.583   8.558 -0.0056 -0.1027  0.3225
  409loPI   C4A 6538  18.254   8.428   8.140  0.1889 -0.1316  0.0998
  409loPI   C5A 6539  18.117   8.471   7.656 -0.0086 -0.1366 -0.1084
  409loPI   C6A 6540  17.864   8.471   7.216  0.1050  0.0262 -0.0343
  409loPI   C1B 6541  17.427   8.865   9.055 -0.0346  0.1212  0.3093
  409loPI   C2B 6542  17.194   8.875   8.658  0.0142 -0.0355 -0.2254
  409loPI   C3B 6543  17.207   8.925   8.247  0.1675 -0.1717 -0.1237
  409loPI   C4B 6544  17.422   9.047   7.941  0.3444  0.3663 -0.0745
  410loPI    C1 6545   4.521   3.307   9.701  0.1455  0.0416  0.0621
  410loPI    C2 6546   4.585   3.701   9.736 -0.0706  0.0907 -0.0740
  410loPI    C3 6547   4.459   3.490  10.051 -0.0566  0.1500 -0.0285
  410loPI   PO4 6548   4.662   3.173   9.580  0.0967 -0.1029  0.0222
  410loPI   GL1 6549   4.811   3.298   9.223  0.1751 -0.2392  0.1579
  410loPI   GL2 6550   4.616   3.562   9.198 -0.0740  0.3308 -0.2649
  410loPI   C1A 6551   4.953   3.259   8.884  0.4595 -0.0189  0.0843
  410loPI   C2A 6552   4.920   3.089   8.542  0.3279 -0.1607 -0.0776
  410loPI   C3A 6553   4.726   3.129   8.156 -0.1236  0.0909  0.2537
  410loPI   C4A 6554   4.641   2.952   7.674  0.3314  0.1740  0.1590
  410loPI   C5A 6555   4.760   2.873   7.292  0.0959  0.1641 -0.0758
  410loPI   C6A 6556   4.491   2.911   6.947 -0.0452 -0.0371 -0.0334
  410loPI   C1B 6557   4.653   3.752   8.776  0.2456  0.1135  0.1315
  410loPI   C2B 6558   4.676   3.683   8.363 -0.1470 -0.3121  0.1739
  410loPI   C3B 6559   4.689   3.629   7.969 -0.0098 -0.1886  0.0772
  410loPI   C4B 6560   4.610   3.427   7.696 -0.2262  0.2943 -0.1659
  411loPI    C1 6561   7.481  18.170  10.421  0.0727 -0.1556  0.0064
  411loPI    C2 6562   7.608  17.945  10.727  0.0687  0.1058  0.2040
  411loPI    C3 6563   7.251  18.126  10.746 -0.0350 -0.0655 -0.0571
  411loPI   PO4 6564   7.563  18.087  10.227 -0.4036  0.1046 -0.1798
  411loPI   GL1 6565   7.630  18.061   9.731 -0.0026  0.0323 -0.2390
  411loPI   GL2 6566   7.547  18.313   9.492  0.2406  0.0391 -0.0946
  411loPI   C1A 6567   7.693  17.852   9.341  0.0736  0.1014 -0.3562
  411loPI   C2A 6568   7.468  17.695   9.068 -0.1981 -0.2744 -0.1729
  411loPI   C3A 6569   7.386  17.625   8.673 -0.3519 -0.1737 -0.1379
  411loPI   C4A 6570   7.061  17.828   8.394 -0.1172 -0.2518 -0.1015
  411loPI   C5A 6571   7.062  17.761   7.970 -0.2465  0.0888  0.1020
  411loPI   C6A 6572   7.050  17.755   7.619 -0.2260  0.1261  0.0582
  411loPI   C1B 6573   7.339  18.525   9.159  0.3555  0.0528  0.2967
  411loPI   C2B 6574   7.439  18.803   8.869 -0.1311  0.0666 -0.2529
  411loPI   C3B 6575   7.445  18.913   8.446 -0.0375 -0.1184  0.0387
  411loPI   C4B 6576   7.595  18.937   7.992 -0.0212 -0.2453 -0.4226
  412loPI    C1 6577  14.575   9.147   9.932 -0.1967 -0.1066  0.0002
  412loPI    C2 6578  14.805   8.840  10.045 -0.2207 -0.1189  0.0158
  412loPI    C3 6579  14.813   9.183  10.250  0.0471  0.0029 -0.1914
  412loPI   PO4 6580  14.359   9.016   9.701 -0.0821 -0.1197 -0.1033
  412loPI   GL1 6581  14.340   8.885   9.234  0.2228 -0.2027  0.1519
  412loPI   GL2 6582  14.772   9.005   9.255  0.1103 -0.0117  0.2879
  412loPI   C1A 6583  14.391   9.124   8.858  0.0490  0.0739 -0.0870
  412loPI   C2A 6584  14.385   9.188   8.404  0.2502  0.2480 -0.0566
  412loPI   C3A 6585  14.633   9.251   8.033  0.3575  0.1808  0.1751
  412loPI   C4A 6586  14.685   9.468   7.652 -0.2458 -0.0012  0.0618
  412loPI   C5A 6587  14.928   9.519   7.295 -0.1758  0.0150  0.3962
  412loPI   C6A 6588  15.322   9.842   7.146  0.2020 -0.0212  0.1556
  412loPI   C1B 6589  14.884   9.251   8.825  0.1651  0.2156 -0.0773
  412loPI   C2B 6590  15.218   9.374   8.554  0.0012  0.0532  0.2095
  412loPI   C3B 6591  15.446   9.564   8.250 -0.0860 -0.1997  0.0409
  412loPI   C4B 6592  15.576   9.633   7.886  0.1362 -0.1374 -0.3222
  413loPI    C1 6593  12.932  16.159  10.828  0.2944 -0.1997  0.0919
  413loPI    C2 6594  12.728  16.343  11.119  0.1738 -0.1733 -0.0083
  413loPI    C3 6595  12.653  15.960  11.034  0.1524 -0.1582 -0.0579
  413loPI   PO4 6596  12.983  16.392  10.602  0.1365  0.1469  0.3182
  413loPI   GL1 6597  12.855  16.534  10.193 -0.0419  0.1887  0.0353
  413loPI   GL2 6598  12.711  16.376   9.939 -0.2987 -0.0347  0.1190
  413loPI   C1A 6599  12.764  16.885  10.017  0.0003 -0.0241  0.2787
  413loPI   C2A 6600  12.716  17.138   9.646  0.3530 -0.0524 -0.2356
  413loPI   C3A 6601  12.569  17.458   9.371  0.0067  0.1423 -0.0928
  413loPI   C4A 6602  12.260  17.481   9.026  0.1979  0.0262 -0.0362
  413loPI   C5A 6603  11.771  17.369   9.157 -0.1045 -0.1272  0.2182
  413loPI   C6A 6604  11.403  17.542   9.144  0.0877  0.2610  0.3625
  413loPI   C1B 6605  12.634  16.109   9.632  0.1548 -0.0115  0.3476
  413loPI   C2B 6606  12.638  16.147   9.160  0.2019  0.2754 -0.0978
  413loPI   C3B 6607  12.539  16.169   8.694  0.0431  0.0826 -0.3600
  413loPI   C4B 6608  12.586  16.161   8.248 -0.1136  0.0114 -0.5348
  414loPI    C1 6609   8.081  12.419   9.852 -0.0002 -0.0402 -0.2164
  414loPI    C2 6610   8.419  12.211   9.896  0.0282  0.0342 -0.0735
  414loPI    C3 6611   8.110  12.143  10.140  0.0429  0.1690 -0.0162
  414loPI   PO4 6612   8.154  12.614   9.616  0.1351 -0.0422 -0.2251
  414loPI   GL1 6613   8.330  12.812   9.281  0.0874  0.1702 -0.1256
  414loPI   GL2 6614   8.636  12.812   9.064 -0.2274 -0.1628 -0.0228
  414loPI   C1A 6615   8.186  12.789   8.858  0.1057  0.1837  0.1419
  414loPI   C2A 6616   8.092  12.920   8.392 -0.1352  0.2911 -0.0958
  414loPI   C3A 6617   7.691  12.840   8.203  0.1237 -0.2283 -0.0640
  414loPI   C4A 6618   7.326  12.596   8.157  0.0302  0.1090 -0.3716
  414loPI   C5A 6619   7.105  12.522   7.796  0.1069  0.0336  0.1886
  414loPI   C6A 6620   7.006  12.111   7.594  0.1879 -0.0507  0.0024
  414loPI   C1B 6621   8.802  12.584   8.715 -0.2000 -0.0503 -0.2896
  414loPI   C2B 6622   8.544  12.588   8.305  0.1034 -0.0591  0.1002
  414loPI   C3B 6623   8.771  12.637   7.845  0.2373 -0.2413  0.1176
  414loPI   C4B 6624   8.595  12.517   7.412  0.0921 -0.0244  0.4587
  415loPI    C1 6625  16.836  19.151  10.360 -0.1407  0.1363  0.3063
  415loPI    C2 6626  16.592  18.860  10.235  0.0243  0.0754  0.1209
  415loPI    C3 6627  16.616  18.947  10.624 -0.0574 -0.1303  0.1731
  415loPI   PO4 6628  17.103  19.148  10.199  0.2771 -0.1834 -0.0519
  415loPI   GL1 6629  17.397  19.163   9.878  0.3773 -0.2417  0.2054
  415loPI   GL2 6630  17.707  19.209   9.896 -0.1974 -0.0919 -0.1173
  415loPI   C1A 6631  17.196  18.981   9.572 -0.0933 -0.1192  0.1559
  415loPI   C2A 6632  16.834  18.969   9.348 -0.1400  0.1461 -0.1756
  415loPI   C3A 6633  16.613  18.940   8.960  0.0152 -0.4510 -0.1425
  415loPI   C4A 6634  16.616  18.977   8.573 -0.1306  0.1557 -0.2371
  415loPI   C5A 6635  16.449  18.851   8.143  0.2634 -0.0225  0.3221
  415loPI   C6A 6636  16.177  18.713   7.863  0.0342  0.0149 -0.0380
  415loPI   C1B 6637  17.742  19.033   9.518 -0.2208  0.0184  0.2475
  415loPI   C2B 6638  17.734  18.934   9.081  0.0044 -0.3094  0.0658
  415loPI   C3B 6639  17.718  18.876   8.679  0.0338 -0.0787 -0.1618
  415loPI   C4B 6640  17.752  18.884   8.267 -0.1028 -0.1871  0.0447
  416loPI    C1 6641   5.370   1.019   9.859 -0.1049 -0.1013  0.0401
  416loPI    C2 6642   5.074   0.754   9.909 -0.1207 -0.0313  0.3343
  416loPI    C3 6643   5.449   0.657  10.010 -0.0380 -0.1229 -0.0460
  416loPI   PO4 6644   5.320   1.111   9.587 -0.2160  0.0389 -0.0312
  416loPI   GL1 6645   5.309   1.062   9.179  0.1801  0.1545  0.0914
  416loPI   GL2 6646   4.955   1.000   9.123  0.2056 -0.1434 -0.0454
  416loPI   C1A 6647   5.396   1.327   8.787 -0.0318  0.3541 -0.0503
  416loPI   C2A 6648   5.501   1.315   8.433  0.0621  0.1056  0.0226
  416loPI   C3A 6649   5.608   1.253   7.979 -0.0497 -0.0536  0.0015
  416loPI   C4A 6650   5.574   1.024   7.628  0.0957  0.0316  0.2451
  416loPI   C5A 6651   5.742   0.696   7.527 -0.2047  0.4635  0.0809
  416loPI   C6A 6652   5.752   0.386   7.812  0.0893  0.1908  0.1716
  416loPI   C1B 6653   4.935   1.217   8.660 -0.1593  0.3007 -0.3615
  416loPI   C2B 6654   5.092   1.594   8.444  0.1518  0.2372  0.1079
  416loPI   C3B 6655   5.304   1.643   7.984 -0.2855 -0.0792  0.0536
  416loPI   C4B 6656   5.304   1.467   7.592 -0.4440  0.1470  0.1131
  417loPI    C1 6657   5.506  11.252   9.764 -0.0827  0.0698 -0.1229
  417loPI    C2 6658   5.247  10.950   9.801 -0.0211 -0.0109 -0.3330
  417loPI    C3 6659   5.122  11.304   9.663 -0.0793  0.0407 -0.1510
  417loPI   PO4 6660   5.706  11.136   9.636 -0.1230  0.0172 -0.2354
  417loPI   GL1 6661   5.801  10.943   9.284 -0.4015 -0.2236 -0.0439
  417loPI   GL2 6662   5.983  11.168   9.146  0.0791 -0.4400 -0.0765
  417loPI   C1A 6663   5.587  11.192   8.859 -0.0327  0.1898 -0.2063
  417loPI   C2A 6664   5.475  11.122   8.402  0.4273 -0.0891 -0.2142
  417loPI   C3A 6665   5.336  11.227   8.153 -0.0853  0.0007 -0.1351
  417loPI   C4A 6666   5.242  11.317   7.741 -0.1549 -0.1094 -0.0323
  417loPI   C5A 6667   5.176  11.556   7.445  0.2452 -0.0837  0.0720
  417loPI   C6A 6668   5.220  11.904   7.206 -0.2399 -0.1391  0.0810
  417loPI   C1B 6669   6.059  11.391   8.731 -0.0225  0.2065  0.0786
  417loPI   C2B 6670   6.226  11.607   8.377 -0.0030  0.0892  0.0921
  417loPI   C3B 6671   6.283  11.439   7.934 -0.1358  0.0377  0.0876
  417loPI   C4B 6672   6.062  11.684   7.697  0.1511  0.1738  0.2436
  418loPI    C1 6673   4.254   5.471   9.934  0.0294  0.1072 -0.0218
  418loPI    C2 6674   4.246   5.303  10.297 -0.1211  0.0311 -0.0597
  418loPI    C3 6675   4.138   5.685  10.252 -0.1370  0.0302 -0.0296
  418loPI   PO4 6676   4.169   5.295   9.695 -0.1050  0.1752  0.1209
  418loPI   GL1 6677   4.074   5.584   9.351  0.0698  0.4279 -0.3029
  418loPI   GL2 6678   3.825   5.681   9.258  0.0968  0.3253  0.0751
  418loPI   C1A 6679   4.273   5.706   9.033 -0.3267 -0.1394 -0.1782
  418loPI   C2A 6680   4.150   5.698   8.591 -0.2121  0.0867  0.0133
  418loPI   C3A 6681   3.981   5.677   8.169  0.0456 -0.1120  0.2586
  418loPI   C4A 6682   4.004   5.633   7.654 -0.1770  0.0903  0.2100
  418loPI   C5A 6683   3.847   5.869   7.197 -0.0166  0.0287  0.1121
  418loPI   C6A 6684   3.683   6.197   7.018 -0.0092  0.0236 -0.2233
  418loPI   C1B 6685   3.423   5.422   9.183  0.0748 -0.1312 -0.0243
  418loPI   C2B 6686   3.171   5.405   8.677  0.0169  0.0545 -0.6762
  418loPI   C3B 6687   3.237   5.293   8.195  0.0839 -0.1795  0.0509
  418loPI   C4B 6688   3.150   5.341   7.769 -0.2299  0.0117 -0.0491
  419loPI    C1 6689   2.319  11.245   9.655  0.2276 -0.0020 -0.1142
  419loPI    C2 6690   2.522  11.169   9.992  0.0241  0.2218  0.0627
  419loPI    C3 6691   2.345  10.870   9.793  0.0584  0.1015  0.2108
  419loPI   PO4 6692   2.432  11.353   9.455 -0.1760 -0.0050  0.0674
  419loPI   GL1 6693   2.485  11.692   9.295 -0.0503 -0.0365 -0.0679
  419loPI   GL2 6694   2.688  11.742   9.226 -0.2764  0.0564 -0.0625
  419loPI   C1A 6695   2.383  11.694   8.827 -0.1715  0.4510  0.0036
  419loPI   C2A 6696   2.409  11.583   8.375  0.0069 -0.3157 -0.1143
  419loPI   C3A 6697   2.556  11.660   7.998  0.1271 -0.1309 -0.0901
  419loPI   C4A 6698   2.713  11.987   7.690  0.2192 -0.0764 -0.0149
  419loPI   C5A 6699   2.762  12.389   7.629  0.0040  0.1683 -0.0054
  419loPI   C6A 6700   2.580  12.851   7.434 -0.2161  0.3117 -0.1186
  419loPI   C1B 6701   2.897  11.689   8.815 -0.1537 -0.1490  0.5352
  419loPI   C2B 6702   3.162  12.016   8.581  0.1214 -0.1786  0.2347
  419loPI   C3B 6703   3.203  12.407   8.349 -0.4250  0.3672 -0.0627
  419loPI   C4B 6704   2.910  12.584   8.105  0.2618 -0.1972  0.2923
  420loPI    C1 6705  13.018   1.371  10.322 -0.4136 -0.0034  0.0260
  420loPI    C2 6706  13.205   1.326  10.672 -0.0260  0.0969 -0.1626
  420loPI    C3 6707  12.958   1.041  10.540 -0.2092  0.0775  0.2084
  420loPI   PO4 6708  13.208   1.434  10.178 -0.0783 -0.0671  0.2085
  420loPI   GL1 6709  13.509   1.272   9.883  0.0589 -0.1408 -0.0470
  420loPI   GL2 6710  13.663   0.944   9.782  0.1308  0.1046  0.0273
  420loPI   C1A 6711  13.631   1.379   9.473 -0.2338  0.0928  0.0176
  420loPI   C2A 6712  13.650   1.436   8.972  0.0004  0.4416  0.2539
  420loPI   C3A 6713  13.731   1.366   8.466  0.1598  0.2601 -0.0784
  420loPI   C4A 6714  13.735   1.181   8.065 -0.1247 -0.2082 -0.3848
  420loPI   C5A 6715  13.420   1.071   7.758 -0.0325  0.0351 -0.0292
  420loPI   C6A 6716  13.341   1.104   7.321  0.1823  0.2829 -0.1088
  420loPI   C1B 6717  13.431   0.712   9.411  0.2191  0.0854 -0.1788
  420loPI   C2B 6718  13.393   0.614   8.928  0.0927  0.1313 -0.1357
  420loPI   C3B 6719  13.175   0.656   8.495 -0.1671  0.2052  0.1857
  420loPI   C4B 6720  12.906   0.662   8.178  0.2260 -0.3167  0.3783
  421loPI    C1 6721  12.497   4.389   9.905  0.1233 -0.2238  0.0398
  421loPI    C2 6722  12.846   4.399   9.711  0.1088 -0.0875  0.0200
  421loPI    C3 6723  12.838   4.431  10.110  0.1078  0.0840  0.0069
  421loPI   PO4 6724  12.331   4.389   9.648  0.3205 -0.0824  0.1360
  421loPI   GL1 6725  12.301   4.661   9.262 -0.2214  0.3280 -0.2962
  421loPI   GL2 6726  12.633   4.543   9.289 -0.0211 -0.0463 -0.2386
  421loPI   C1A 6727  12.354   4.435   8.896 -0.2402 -0.0771  0.1991
  421loPI   C2A 6728  12.614   4.264   8.530 -0.1882  0.1162 -0.0853
  421loPI   C3A 6729  12.850   3.960   8.346 -0.0119  0.2543  0.0461
  421loPI   C4A 6730  12.898   3.707   7.908  0.1266  0.2651  0.1154
  421loPI   C5A 6731  12.568   3.696   7.684  0.0976 -0.1557 -0.1221
  421loPI   C6A 6732  12.365   3.726   7.329 -0.2175 -0.2324  0.0694
  421loPI   C1B 6733  12.882   4.760   8.901  0.0309  0.2828  0.0641
  421loPI   C2B 6734  13.315   4.843   8.581  0.0120  0.1242 -0.1324
  421loPI   C3B 6735  13.504   4.776   8.194  0.0874  0.0621  0.2199
  421loPI   C4B 6736  13.503   4.958   7.906  0.2766  0.1250 -0.2392
  422loPI    C1 6737  18.774   2.498  10.061 -0.0914  0.0383 -0.1247
  422loPI    C2 6738  19.011   2.698  10.313  0.1016 -0.2541 -0.0699
  422loPI    C3 6739  18.714   2.471  10.455 -0.2450  0.1430 -0.1398
  422loPI   PO4 6740  19.006   2.440   9.859  0.2078 -0.4047  0.1194
  422loPI   GL1 6741  19.034   2.229   9.451  0.0760  0.0915 -0.0201
  422loPI   GL2 6742  19.270   2.507   9.468 -0.0152  0.1741  0.1368
  422loPI   C1A 6743  18.791   2.138   8.978 -0.2444 -0.0948 -0.1684
  422loPI   C2A 6744  18.994   2.139   8.520 -0.3040  0.0651  0.0848
  422loPI   C3A 6745  18.947   2.030   8.150  0.4004  0.2763 -0.1532
  422loPI   C4A 6746  18.889   2.034   7.805 -0.0049  0.0118 -0.4901
  422loPI   C5A 6747  19.105   1.987   7.443 -0.0691  0.2897  0.3054
  422loPI   C6A 6748  19.490   1.725   7.398  0.1538 -0.1869  0.0778
  422loPI   C1B 6749  19.235   2.385   9.051 -0.1176  0.2048 -0.0672
  422loPI   C2B 6750  19.477   2.411   8.729  0.2133  0.2514 -0.1059
  422loPI   C3B 6751  19.445   2.400   8.270 -0.2589 -0.1696  0.2115
  422loPI   C4B 6752  19.287   2.500   7.853  0.0470  0.0459 -0.0100
  423loPI    C1 6753  16.616   5.555   9.710  0.3936 -0.3689 -0.2995
  423loPI    C2 6754  16.829   5.335   9.968  0.1978 -0.1999  0.0127
  423loPI    C3 6755  16.886   5.731   9.948  0.0132 -0.1732 -0.0011
  423loPI   PO4 6756  16.577   5.389   9.503  0.1786  0.2989  0.2413
  423loPI   GL1 6757  16.675   5.068   9.227  0.1416 -0.0830  0.2687
  423loPI   GL2 6758  16.551   4.891   9.492 -0.1021  0.0219  0.1212
  423loPI   C1A 6759  16.490   5.003   8.797  0.1987 -0.3462 -0.1301
  423loPI   C2A 6760  16.426   4.967   8.462 -0.1803 -0.2713 -0.0403
  423loPI   C3A 6761  16.412   4.978   7.977  0.0237  0.2359 -0.3621
  423loPI   C4A 6762  16.741   5.107   7.661  0.3947  0.0822 -0.0613
  423loPI   C5A 6763  16.912   5.331   7.234 -0.0579 -0.3307 -0.2230
  423loPI   C6A 6764  17.288   5.452   7.048 -0.0934  0.0565 -0.2618
  423loPI   C1B 6765  16.183   4.661   9.121  0.1623 -0.3568  0.1811
  423loPI   C2B 6766  15.981   4.676   8.675 -0.3571  0.1302 -0.1747
  423loPI   C3B 6767  15.858   4.535   8.311 -0.1075  0.1979  0.5118
  423loPI   C4B 6768  15.734   4.441   7.871  0.0615  0.2079 -0.0655
  424loPI    C1 6769   7.155  18.208   9.971  0.0799  0.3077  0.2170
  424loPI    C2 6770   7.038  17.927  10.231 -0.0218  0.1686  0.0230
  424loPI    C3 6771   7.036  18.312  10.338  0.1142  0.0973  0.2890
  424loPI   PO4 6772   7.096  18.148   9.758 -0.0145 -0.0243  0.2305
  424loPI   GL1 6773   6.984  18.191   9.434  0.1014 -0.3248 -0.2177
  424loPI   GL2 6774   7.216  17.957   9.340  0.3065 -0.0370 -0.2845
  424loPI   C1A 6775   6.922  18.358   9.078  0.1020  0.2864  0.0422
  424loPI   C2A 6776   6.806  18.221   8.614 -0.0378  0.0520  0.1258
  424loPI   C3A 6777   6.678  18.244   8.247 -0.4699 -0.0870 -0.1959
  424loPI   C4A 6778   6.793  18.145   7.846  0.0971  0.3389 -0.0252
  424loPI   C5A 6779   6.834  18.234   7.411 -0.0124  0.0828 -0.3553
  424loPI   C6A 6780   6.965  18.478   7.056  0.1061  0.1737 -0.1364
  424loPI   C1B 6781   7.249  18.090   8.850  0.0592  0.1010  0.0337
  424loPI   C2B 6782   7.281  18.435   8.557  0.0397 -0.0880  0.0381
  424loPI   C3B 6783   7.160  18.337   8.188  0.1241 -0.1072  0.0668
  424loPI   C4B 6784   6.990  18.572   7.888 -0.0534  0.0610 -0.0331
  425loPI    C1 6785   0.833  11.425   9.860 -0.1095  0.0883 -0.0562
  425loPI    C2 6786   0.999  11.417  10.224  0.0121 -0.1019 -0.1142
  425loPI    C3 6787   0.672  11.639  10.157  0.0621  0.0323  0.0785
  425loPI   PO4 6788   1.049  11.276   9.753 -0.2652 -0.0521  0.1399
  425loPI   GL1 6789   1.245  11.276   9.472  0.2655 -0.1392 -0.1441
  425loPI   GL2 6790   1.388  11.276   9.258  0.2272 -0.0882 -0.1492
  425loPI   C1A 6791   0.960  11.401   9.083  0.3159  0.0072  0.2362
  425loPI   C2A 6792   0.904  11.250   8.667  0.0347 -0.3228 -0.1212
  425loPI   C3A 6793   0.573  11.260   8.411  0.3721 -0.2269 -0.3263
  425loPI   C4A 6794   0.342  11.401   8.094 -0.2669 -0.6077  0.0592
  425loPI   C5A 6795   0.380  11.590   7.747 -0.1786 -0.1451  0.0067
  425loPI   C6A 6796   0.540  12.014   7.704  0.0548  0.1721  0.0003
  425loPI   C1B 6797   1.576  11.267   8.857 -0.0245 -0.0946  0.0043
  425loPI   C2B 6798   1.316  11.378   8.372 -0.0611 -0.1714  0.1260
  425loPI   C3B 6799   1.451  11.511   7.952 -0.1461 -0.1716  0.0940
  425loPI   C4B 6800   1.758  11.620   7.702  0.0848 -0.1787 -0.1630
  426loPI    C1 6801   9.564  10.415   9.639 -0.0220 -0.1409  0.1741
  426loPI    C2 6802   9.885  10.215   9.767  0.0159 -0.0835  0.1693
  426loPI    C3 6803   9.528  10.148   9.934  0.0503 -0.0679  0.2495
  426loPI   PO4 6804   9.513  10.341   9.374 -0.2254 -0.1705  0.3231
  426loPI   GL1 6805   9.795  10.445   9.029 -0.4141  0.0997 -0.0697
  426loPI   GL2 6806   9.541  10.742   9.093 -0.3856  0.0054  0.4389
  426loPI   C1A 6807   9.861  10.389   8.527 -0.1343 -0.0144 -0.0607
  426loPI   C2A 6808   9.946  10.443   8.126  0.1260  0.2193  0.1242
  426loPI   C3A 6809  10.000  10.693   7.822  0.0337  0.1887  0.3782
  426loPI   C4A 6810  10.091  10.824   7.384  0.0143  0.1047 -0.1165
  426loPI   C5A 6811  10.534  10.656   7.001  0.3787  0.2389  0.0316
  426loPI   C6A 6812  11.029  10.926   6.991 -0.2746  0.2744 -0.0062
  426loPI   C1B 6813   9.669  10.909   8.726  0.1375  0.3012 -0.2851
  426loPI   C2B 6814   9.915  10.870   8.416  0.1038 -0.1820 -0.1761
  426loPI   C3B 6815   9.969  11.109   8.074 -0.0047  0.1486  0.0814
  426loPI   C4B 6816   9.880  11.219   7.639  0.3965 -0.0647 -0.1275
  427loPI    C1 6817   5.592  17.919   9.617 -0.0666  0.0091  0.1636
  427loPI    C2 6818   5.712  18.190   9.886 -0.1578  0.0831  0.1302
  427loPI    C3 6819   5.395  17.958   9.963 -0.1283  0.0410  0.1249
  427loPI   PO4 6820   5.868  17.891   9.496  0.2063  0.2419  0.1763
  427loPI   GL1 6821   5.992  18.007   9.061 -0.0626  0.4052 -0.1204
  427loPI   GL2 6822   6.145  17.677   9.091 -0.2681 -0.0815 -0.0527
  427loPI   C1A 6823   5.813  18.273   8.796  0.1355 -0.0186  0.3518
  427loPI   C2A 6824   5.929  18.539   8.526 -0.2324  0.1324 -0.0747
  427loPI   C3A 6825   5.959  18.828   8.280  0.1425 -0.1743 -0.0855
  427loPI   C4A 6826   5.848  19.089   7.965  0.0116  0.1743 -0.1128
  427loPI   C5A 6827   5.797  19.206   7.544 -0.1631  0.0987  0.1101
  427loPI   C6A 6828   6.002  19.570   7.306 -0.0572 -0.1009  0.1499
  427loPI   C1B 6829   6.117  17.869   8.658  0.4333 -0.0835  0.0631
  427loPI   C2B 6830   6.195  18.104   8.335 -0.2432 -0.3150 -0.1676
  427loPI   C3B 6831   6.318  18.086   8.020  0.0674  0.0954  0.1559
  427loPI   C4B 6832   6.360  18.096   7.531 -0.2183  0.0185 -0.0291
  428loPI    C1 6833  17.434   6.282   9.705 -0.1351  0.1643 -0.1514
  428loPI    C2 6834  17.111   6.375   9.487 -0.2838  0.0392  0.0129
  428loPI    C3 6835  17.073   6.295   9.878 -0.0309  0.1779  0.0678
  428loPI   PO4 6836  17.648   6.414   9.518 -0.2411 -0.1202  0.0689
  428loPI   GL1 6837  17.784   6.273   9.088 -0.0731  0.2834 -0.0315
  428loPI   GL2 6838  18.156   6.379   9.130 -0.5017  0.3039 -0.1760
  428loPI   C1A 6839  17.815   6.709   8.865  0.1675 -0.1783 -0.2771
  428loPI   C2A 6840  18.072   7.014   8.530 -0.0163  0.1669 -0.2457
  428loPI   C3A 6841  17.946   7.192   8.154 -0.0665  0.1132  0.0133
  428loPI   C4A 6842  17.795   7.142   7.685 -0.0780 -0.2276  0.2814
  428loPI   C5A 6843  17.592   7.226   7.248  0.0978  0.0344 -0.4508
  428loPI   C6A 6844  17.374   7.433   6.910 -0.0032  0.0224 -0.2447
  428loPI   C1B 6845  18.118   6.026   8.801  0.0797  0.0774 -0.0166
  428loPI   C2B 6846  18.138   5.995   8.285  0.0977 -0.0673  0.1385
  428loPI   C3B 6847  18.312   6.056   7.808 -0.2754  0.1811  0.0023
  428loPI   C4B 6848  17.942   5.982   7.533  0.2369 -0.0158  0.1437
  429loPI    C1 6849  11.182  10.636   9.511  0.2719 -0.0183 -0.3076
  429loPI    C2 6850  10.790  10.674   9.581  0.2859 -0.3526 -0.0231
  429loPI    C3 6851  10.934  10.737   9.213  0.0520  0.3426 -0.0105
  429loPI   PO4 6852  11.188  10.334   9.594  0.2848  0.0501 -0.3319
  429loPI   GL1 6853  11.175  10.145   9.221 -0.0196  0.0108 -0.1339
  429loPI   GL2 6854  10.763  10.202   9.325  0.3522  0.0082  0.2759
  429loPI   C1A 6855  11.166  10.089   8.777 -0.2522  0.0715  0.1106
  429loPI   C2A 6856  11.182  10.034   8.350 -0.1467  0.1744  0.3305
  429loPI   C3A 6857  11.208  10.051   7.893 -0.1210  0.2400 -0.2262
  429loPI   C4A 6858  11.298  10.184   7.526 -0.1013  0.0349  0.0787
  429loPI   C5A 6859  11.724  10.321   7.515 -0.2449 -0.0711  0.2526
  429loPI   C6A 6860  12.131  10.134   7.388 -0.1239 -0.3038 -0.0658
  429loPI   C1B 6861  10.797  10.423   8.877  0.1072  0.0726 -0.0756
  429loPI   C2B 6862  10.744  10.362   8.483 -0.2384 -0.3442  0.0807
  429loPI   C3B 6863  10.845  10.398   8.028  0.1062  0.0419  0.0754
  429loPI   C4B 6864  10.815  10.326   7.584 -0.2553  0.0128 -0.1626
  430loPI    C1 6865  11.039   9.332   9.974  0.1649  0.0405  0.1244
  430loPI    C2 6866  11.093   9.033  10.233  0.0221  0.0270  0.1397
  430loPI    C3 6867  10.781   9.279  10.275  0.0094  0.0367 -0.0077
  430loPI   PO4 6868  11.016   9.234   9.789 -0.1394 -0.1534 -0.2096
  430loPI   GL1 6869  11.275   9.023   9.564  0.0751  0.2090 -0.0214
  430loPI   GL2 6870  11.434   9.273   9.512 -0.2188 -0.1056 -0.2940
  430loPI   C1A 6871  11.176   9.074   9.078  0.2614  0.0678  0.1944
  430loPI   C2A 6872  11.055   8.955   8.670  0.3568  0.3016  0.0692
  430loPI   C3A 6873  11.022   8.497   8.465 -0.1780 -0.0870  0.1860
  430loPI   C4A 6874  11.116   8.521   8.117 -0.1244 -0.0968  0.0320
  430loPI   C5A 6875  11.204   8.644   7.658  0.3505 -0.0154  0.2603
  430loPI   C6A 6876  11.443   8.860   7.484  0.2539  0.3317  0.3075
  430loPI   C1B 6877  11.657   9.252   9.103 -0.1054  0.1236 -0.0498
  430loPI   C2B 6878  11.610   9.509   8.701 -0.0686  0.4942 -0.1346
  430loPI   C3B 6879  11.678   9.866   8.536  0.1795 -0.1073 -0.1448
  430loPI   C4B 6880  12.037   9.987   8.323 -0.0083  0.0084  0.0680
  431loPI    C1 6881   7.118   2.011   9.484 -0.0325 -0.0108 -0.0307
  431loPI    C2 6882   6.902   1.821   9.205 -0.0403 -0.0812  0.0231
  431loPI    C3 6883   6.931   1.669   9.574 -0.2348  0.1403  0.1324
  431loPI   PO4 6884   7.054   2.307   9.460  0.0596  0.0546  0.1310
  431loPI   GL1 6885   6.839   2.387   9.173 -0.4596 -0.1517  0.1687
  431loPI   GL2 6886   7.248   2.206   9.020  0.2083 -0.0047  0.1464
  431loPI   C1A 6887   6.792   2.692   8.887 -0.1499  0.2246  0.2176
  431loPI   C2A 6888   6.699   2.601   8.549 -0.0375  0.2272  0.0268
  431loPI   C3A 6889   7.047   2.784   8.206  0.1825 -0.0534 -0.2150
  431loPI   C4A 6890   7.273   2.868   7.751  0.2344  0.2521  0.0180
  431loPI   C5A 6891   7.611   3.063   7.583  0.0094 -0.1066 -0.0641
  431loPI   C6A 6892   7.753   3.006   7.122  0.2972 -0.2020  0.4680
  431loPI   C1B 6893   7.061   2.350   8.731 -0.0268 -0.1197  0.0436
  431loPI   C2B 6894   7.016   2.328   8.297 -0.0954 -0.0507  0.2064
  431loPI   C3B 6895   6.840   2.568   7.773  0.2989  0.0109  0.1977
  431loPI   C4B 6896   6.826   2.885   7.412 -0.0546 -0.0526  0.0676
  432loPI    C1 6897   5.164  16.419   9.830  0.0690 -0.0484  0.0064
  432loPI    C2 6898   5.516  16.231   9.858  0.1717  0.1574  0.1244
  432loPI    C3 6899   5.334  16.365  10.188  0.0100  0.1040  0.0583
  432loPI   PO4 6900   5.206  16.570   9.592  0.1529 -0.2240 -0.1822
  432loPI   GL1 6901   5.267  16.652   9.230  0.0603  0.0941  0.2281
  432loPI   GL2 6902   5.147  17.005   9.110 -0.2388 -0.3725 -0.2116
  432loPI   C1A 6903   5.387  16.657   8.786  0.0043 -0.0056 -0.0310
  432loPI   C2A 6904   5.293  16.826   8.449 -0.0325  0.2229 -0.0073
  432loPI   C3A 6905   5.176  16.975   8.006  0.1879  0.1735 -0.0404
  432loPI   C4A 6906   5.079  17.264   7.747 -0.1679  0.1887  0.0400
  432loPI   C5A 6907   5.067  17.479   7.318 -0.1210  0.1723 -0.0658
  432loPI   C6A 6908   5.100  17.858   7.100  0.1384  0.0802  0.1748
  432loPI   C1B 6909   5.161  17.283   8.696 -0.0503 -0.2803 -0.0828
  432loPI   C2B 6910   5.315  17.362   8.327  0.2500 -0.2394 -0.3255
  432loPI   C3B 6911   5.544  17.344   7.957 -0.2138 -0.1103  0.3624
  432loPI   C4B 6912   5.582  17.491   7.505  0.2873 -0.1615 -0.0074
  433loPI    C1 6913   3.187   3.881   9.901 -0.1339 -0.2545 -0.0803
  433loPI    C2 6914   2.847   4.089   9.933  0.1844  0.2640  0.0614
  433loPI    C3 6915   2.998   3.901  10.253  0.0109 -0.0105 -0.0140
  433loPI   PO4 6916   3.125   3.668   9.695 -0.1391 -0.0049  0.1442
  433loPI   GL1 6917   2.885   3.857   9.353  0.0304  0.3104  0.2216
  433loPI   GL2 6918   3.243   4.097   9.400  0.1053  0.0713 -0.0795
  433loPI   C1A 6919   3.027   3.653   9.029 -0.0283  0.1475  0.3541
  433loPI   C2A 6920   3.392   3.506   8.816  0.0455  0.0512 -0.1989
  433loPI   C3A 6921   3.805   3.414   8.490  0.2011  0.1081 -0.4790
  433loPI   C4A 6922   3.764   3.332   8.063 -0.1036 -0.2167 -0.2205
  433loPI   C5A 6923   3.692   3.345   7.676  0.1548  0.0514 -0.2378
  433loPI   C6A 6924   3.305   3.244   7.612  0.0242 -0.2679  0.1480
  433loPI   C1B 6925   3.202   4.035   8.894  0.0949 -0.0010  0.1077
  433loPI   C2B 6926   3.193   3.945   8.444  0.0375  0.0804 -0.2543
  433loPI   C3B 6927   3.042   3.885   8.051  0.2500  0.1192  0.2289
  433loPI   C4B 6928   2.995   3.645   7.649  0.2514 -0.0300  0.0587
  434loPI    C1 6929   9.501   5.535   9.761 -0.0392 -0.1339  0.2027
  434loPI    C2 6930   9.603   5.277  10.050  0.2465  0.1034  0.3194
  434loPI    C3 6931   9.588   5.669  10.128  0.5084  0.1885 -0.0326
  434loPI   PO4 6932   9.620   5.453   9.521  0.0771  0.0604  0.1428
  434loPI   GL1 6933   9.589   5.398   9.088 -0.2236  0.0172 -0.0198
  434loPI   GL2 6934   9.862   5.285   9.157 -0.1845 -0.1032 -0.1534
  434loPI   C1A 6935   9.447   5.231   8.728  0.3252 -0.1052 -0.0381
  434loPI   C2A 6936   9.240   5.079   8.402 -0.1451  0.0636 -0.2271
  434loPI   C3A 6937   9.100   5.008   8.026 -0.2654  0.0974 -0.2980
  434loPI   C4A 6938   9.104   4.818   7.629 -0.2078  0.0955 -0.3158
  434loPI   C5A 6939   8.895   4.578   7.286 -0.2410  0.3776 -0.4079
  434loPI   C6A 6940   8.639   4.412   7.089 -0.1824 -0.0523 -0.0373
  434loPI   C1B 6941  10.096   5.135   8.836 -0.0731  0.0043 -0.0113
  434loPI   C2B 6942  10.294   5.112   8.382 -0.1078 -0.0836 -0.0402
  434loPI   C3B 6943  10.531   5.243   8.076 -0.1499 -0.0110  0.2718
  434loPI   C4B 6944  10.534   5.266   7.677  0.1836 -0.0223 -0.0692
  435loPI    C1 6945  10.471  14.238  10.224 -0.2731  0.2475  0.0965
  435loPI    C2 6946  10.750  14.336  10.493 -0.2424 -0.0142  0.1630
  435loPI    C3 6947  10.564  13.983  10.518 -0.1444 -0.0991 -0.2367
  435loPI   PO4 6948  10.533  14.377  10.000 -0.2583  0.1054 -0.1518
  435loPI   GL1 6949  10.567  14.308   9.482  0.1048 -0.2064 -0.2068
  435loPI   GL2 6950  10.278  14.198   9.358  0.0077  0.0501 -0.0040
  435loPI   C1A 6951  10.468  14.576   9.037  0.1381  0.2484 -0.0434
  435loPI   C2A 6952  10.219  14.928   8.764  0.0839  0.2502  0.1478
  435loPI   C3A 6953  10.053  15.125   8.299  0.1173  0.0475  0.0918
  435loPI   C4A 6954   9.919  14.927   7.951  0.0556  0.0919 -0.0306
  435loPI   C5A 6955  10.078  14.922   7.538 -0.0133 -0.3186  0.2795
  435loPI   C6A 6956  10.401  15.135   7.329 -0.1033 -0.0596  0.0742
  435loPI   C1B 6957   9.981  14.311   9.006 -0.1779  0.1218  0.2283
  435loPI   C2B 6958  10.028  14.384   8.580 -0.2425  0.2712  0.0945
  435loPI   C3B 6959  10.227  14.652   8.253 -0.0910  0.0294 -0.2090
  435loPI   C4B 6960  10.532  14.880   8.200  0.0068  0.3134  0.1686
  436loPI    C1 6961   0.277   3.252  10.131  0.1796 -0.1453 -0.1223
  436loPI    C2 6962   0.068   3.565  10.268  0.2017 -0.0874 -0.2198
  436loPI    C3 6963   0.317   3.368  10.512 -0.0298 -0.2104 -0.0793
  436loPI   PO4 6964   0.270   3.370   9.821  0.1262  0.4813  0.0228
  436loPI   GL1 6965   0.371   3.111   9.473  0.2550  0.0003  0.0057
  436loPI   GL2 6966   0.525   3.464   9.433 -0.0120 -0.1203  0.0128
  436loPI   C1A 6967   0.033   3.078   9.101 -0.1661 -0.0221 -0.0388
  436loPI   C2A 6968   0.019   2.998   8.626 -0.2327  0.2833 -0.2271
  436loPI   C3A 6969   0.127   2.983   8.162 -0.2999  0.4080 -0.0006
  436loPI   C4A 6970  -0.124   3.079   7.736 -0.0778 -0.2757 -0.1281
  436loPI   C5A 6971  -0.366   2.885   7.369 -0.1475 -0.2189 -0.1493
  436loPI   C6A 6972  -0.660   3.074   7.063 -0.1829 -0.2901  0.2461
  436loPI   C1B 6973   0.465   3.388   8.927  0.0134 -0.0477 -0.0754
  436loPI   C2B 6974   0.409   3.394   8.490 -0.1078  0.2669 -0.0055
  436loPI   C3B 6975   0.358   3.450   8.025 -0.0589  0.2736 -0.3676
  436loPI   C4B 6976   0.337   3.421   7.634  0.1294 -0.2360 -0.1408
  437loPI    C1 6977   9.987   5.976   9.448 -0.0853 -0.2170  0.0251
  437loPI    C2 6978   9.695   6.019   9.718 -0.1878  0.1918 -0.1431
  437loPI    C3 6979   9.959   6.314   9.661  0.2299 -0.1508 -0.0337
  437loPI   PO4 6980   9.840   5.862   9.223 -0.0563 -0.1854 -0.0244
  437loPI   GL1 6981   9.582   5.836   8.850 -0.4461  0.1688  0.0727
  437loPI   GL2 6982   9.462   6.129   8.846 -0.1168 -0.1802  0.0290
  437loPI   C1A 6983   9.797   5.567   8.627 -0.1119 -0.2496 -0.0524
  437loPI   C2A 6984   9.791   5.225   8.348  0.3312  0.2233  0.1016
  437loPI   C3A 6985   9.969   5.097   7.977  0.2030 -0.5915  0.1191
  437loPI   C4A 6986  10.160   4.843   7.714  0.1623  0.1360 -0.0306
  437loPI   C5A 6987  10.315   4.597   7.416 -0.2651 -0.1558 -0.0020
  437loPI   C6A 6988  10.284   4.618   6.940  0.2466  0.0890 -0.0489
  437loPI   C1B 6989   9.478   6.157   8.354  0.3356 -0.1317  0.1569
  437loPI   C2B 6990   9.761   6.149   7.843 -0.1810 -0.0596  0.1203
  437loPI   C3B 6991   9.912   5.892   7.549  0.2817  0.2222  0.0467
  437loPI   C4B 6992  10.387   5.774   7.386 -0.1168 -0.2619 -0.2403
  438loPI    C1 6993   8.787   1.242  10.039 -0.0006 -0.1331  0.0480
  438loPI    C2 6994   9.001   1.513  10.241 -0.1158 -0.0457  0.0535
  438loPI    C3 6995   8.927   1.155  10.404 -0.2267  0.0323  0.1767
  438loPI   PO4 6996   8.830   1.267   9.800  0.0889 -0.2162 -0.1400
  438loPI   GL1 6997   9.082   1.288   9.470  0.1144  0.2836  0.2818
  438loPI   GL2 6998   8.849   1.447   9.327  0.2486  0.1025  0.1364
  438loPI   C1A 6999   9.482   1.046   9.349 -0.3041 -0.2212 -0.1642
  438loPI   C2A 7000   9.952   1.036   9.224  0.2071 -0.1268 -0.3337
  438loPI   C3A 7001  10.015   0.917   8.777  0.1734  0.0845  0.2508
  438loPI   C4A 7002  10.013   0.658   8.407  0.0411  0.0991  0.0191
  438loPI   C5A 7003  10.266   0.568   8.168 -0.2636 -0.3557 -0.0203
  438loPI   C6A 7004  10.487   0.545   7.749  0.1093  0.0533 -0.0319
  438loPI   C1B 7005   8.979   1.184   8.960 -0.2133  0.0045  0.1597
  438loPI   C2B 7006   9.030   1.030   8.576 -0.0892 -0.1033  0.0662
  438loPI   C3B 7007   9.198   0.927   8.192  0.1729  0.0194  0.0303
  438loPI   C4B 7008   8.828   1.164   7.974  0.0874  0.0064 -0.0640
  439loPI    C1 7009   6.421   5.074   9.939 -0.0497  0.0714  0.1254
  439loPI    C2 7010   6.614   5.075  10.290 -0.0724  0.4091  0.1408
  439loPI    C3 7011   6.215   5.068  10.282 -0.0716 -0.2147  0.1097
  439loPI   PO4 7012   6.493   4.832   9.791  0.0456 -0.1971  0.1232
  439loPI   GL1 7013   6.391   4.682   9.358  0.0358  0.1315  0.2646
  439loPI   GL2 7014   6.115   4.799   9.344 -0.1557  0.3693  0.0347
  439loPI   C1A 7015   6.364   4.791   8.899  0.1484  0.0311  0.1100
  439loPI   C2A 7016   6.377   4.672   8.443  0.0766  0.0158 -0.0390
  439loPI   C3A 7017   6.218   4.753   8.024 -0.0703 -0.2345  0.1682
  439loPI   C4A 7018   6.426   4.878   7.634  0.1287  0.0213 -0.0056
  439loPI   C5A 7019   6.287   4.810   7.189  0.1514 -0.0120 -0.2370
  439loPI   C6A 7020   6.374   4.998   6.813  0.1462  0.0480 -0.0889
  439loPI   C1B 7021   5.976   4.488   9.145 -0.0405  0.1391 -0.1167
  439loPI   C2B 7022   6.010   4.288   8.761 -0.1352 -0.1063  0.1182
  439loPI   C3B 7023   5.995   4.211   8.304 -0.1529 -0.1232  0.0131
  439loPI   C4B 7024   6.350   4.250   7.953  0.2508  0.0600 -0.0206
  440loPI    C1 7025  12.145  15.130  10.643 -0.0033 -0.1781  0.1575
  440loPI    C2 7026  12.167  14.765  10.804 -0.1789 -0.3448 -0.1866
  440loPI    C3 7027  11.901  15.029  10.943 -0.0014 -0.3194  0.1121
  440loPI   PO4 7028  12.217  14.985  10.245  0.0236  0.0768 -0.1588
  440loPI   GL1 7029  12.105  15.101   9.907 -0.2132  0.5496  0.0547
  440loPI   GL2 7030  12.436  15.335   9.882  0.1255  0.0399  0.0902
  440loPI   C1A 7031  12.068  15.309   9.463  0.1335 -0.1309 -0.1801
  440loPI   C2A 7032  12.198  15.247   9.062  0.0478  0.0095  0.1216
  440loPI   C3A 7033  12.111  15.211   8.540 -0.2354 -0.0515 -0.2094
  440loPI   C4A 7034  12.112  15.467   8.126 -0.1884  0.2196 -0.1887
  440loPI   C5A 7035  12.182  15.616   7.747  0.2840  0.0221  0.1869
  440loPI   C6A 7036  12.276  15.785   7.274  0.2374 -0.0299 -0.1427
  440loPI   C1B 7037  12.595  15.243   9.478  0.1158 -0.0151 -0.0054
  440loPI   C2B 7038  12.718  15.236   9.084  0.0010  0.0468 -0.1881
  440loPI   C3B 7039  12.728  15.234   8.669  0.1214 -0.1896  0.0584
  440loPI   C4B 7040  12.577  15.159   8.258 -0.3552  0.1277 -0.0223
  441loPI    C1 7041   3.790  13.774   9.660  0.0071  0.0979 -0.1539
  441loPI    C2 7042   4.057  13.720   9.953 -0.1232  0.0466 -0.0438
  441loPI    C3 7043   3.938  13.409   9.730 -0.1807  0.0470 -0.0139
  441loPI   PO4 7044   3.866  13.949   9.515  0.0179  0.1340  0.0519
  441loPI   GL1 7045   3.670  14.211   9.238  0.1230 -0.1507 -0.2420
  441loPI   GL2 7046   3.465  14.189   9.180  0.2160 -0.2805  0.1862
  441loPI   C1A 7047   3.812  14.255   8.770  0.0127 -0.0475 -0.0904
  441loPI   C2A 7048   4.110  14.263   8.364 -0.2429 -0.1922  0.1936
  441loPI   C3A 7049   4.041  14.018   8.016  0.0851 -0.1860  0.3023
  441loPI   C4A 7050   3.851  14.249   7.618 -0.1563  0.1934  0.3118
  441loPI   C5A 7051   3.567  14.515   7.649 -0.0563 -0.1418 -0.0920
  441loPI   C6A 7052   3.454  14.855   7.396 -0.2043  0.0555  0.1985
  441loPI   C1B 7053   3.327  14.089   8.818 -0.2099  0.0674  0.2674
  441loPI   C2B 7054   3.371  14.444   8.571  0.0587 -0.0835  0.0707
  441loPI   C3B 7055   3.131  14.473   8.180  0.0630  0.5319  0.1845
  441loPI   C4B 7056   3.124  14.182   7.822 -0.2662 -0.1094 -0.3055
  442loPI    C1 7057   0.580   7.900   9.957  0.1124  0.0043 -0.2104
  442loPI    C2 7058   0.854   8.188   9.909  0.0778  0.0698 -0.0195
  442loPI    C3 7059   0.776   8.045  10.274 -0.3757  0.2825 -0.0260
  442loPI   PO4 7060   0.631   7.734   9.754 -0.0879 -0.4683  0.2320
  442loPI   GL1 7061   0.811   7.820   9.336  0.1706 -0.0173  0.2029
  442loPI   GL2 7062   0.967   7.791   9.156 -0.0898 -0.0614 -0.1683
  442loPI   C1A 7063   0.520   8.023   8.975 -0.1779  0.1405  0.1687
  442loPI   C2A 7064   0.490   7.840   8.633  0.3074  0.1485 -0.2018
  442loPI   C3A 7065   0.563   7.545   8.340  0.0046  0.0182 -0.3763
  442loPI   C4A 7066   0.389   7.242   8.212  0.0074 -0.0507 -0.0255
  442loPI   C5A 7067   0.331   7.278   7.700  0.2476 -0.1433 -0.2011
  442loPI   C6A 7068   0.524   7.467   7.329  0.0271 -0.4153 -0.5056
  442loPI   C1B 7069   0.929   7.624   8.775  0.2285 -0.0453 -0.0851
  442loPI   C2B 7070   1.013   7.714   8.300 -0.2902  0.3203 -0.0403
  442loPI   C3B 7071   1.049   7.933   7.885  0.1230  0.2009  0.4139
  442loPI   C4B 7072   1.086   8.149   7.436 -0.1733 -0.0981  0.0011
  443loPI    C1 7073   5.910   4.594  10.018 -0.2247  0.1138  0.0426
  443loPI    C2 7074   6.281   4.472  10.101 -0.1114  0.1886 -0.3364
  443loPI    C3 7075   5.968   4.288  10.269  0.0913  0.0598 -0.0924
  443loPI   PO4 7076   5.839   4.543   9.802 -0.3002  0.0657 -0.0783
  443loPI   GL1 7077   5.570   4.628   9.395 -0.2237 -0.0865 -0.0371
  443loPI   GL2 7078   5.569   4.915   9.290  0.1854  0.0190 -0.0718
  443loPI   C1A 7079   5.450   4.297   9.063  0.2697  0.0253 -0.1362
  443loPI   C2A 7080   5.477   4.245   8.666 -0.1777  0.0304 -0.2434
  443loPI   C3A 7081   5.510   4.109   8.167 -0.0265  0.1521 -0.4246
  443loPI   C4A 7082   5.488   4.210   7.811 -0.0484 -0.0356 -0.0661
  443loPI   C5A 7083   5.633   3.886   7.539 -0.1758  0.1959 -0.2927
  443loPI   C6A 7084   5.717   3.440   7.581  0.3172  0.0778  0.0478
  443loPI   C1B 7085   5.622   4.733   8.882 -0.2546 -0.0115  0.1428
  443loPI   C2B 7086   5.828   4.636   8.454  0.1784  0.2088 -0.2543
  443loPI   C3B 7087   5.763   4.607   8.061  0.3669  0.4943  0.0471
  443loPI   C4B 7088   5.965   4.308   7.637  0.1360  0.0076 -0.0613
  444loPI    C1 7089  15.211  19.126  10.774  0.0106 -0.1922  0.0212
  444loPI    C2 7090  15.038  19.487  10.784  0.1891 -0.1044 -0.0136
  444loPI    C3 7091  15.329  19.397  11.043  0.0840 -0.2557  0.0534
  444loPI   PO4 7092  15.325  19.111  10.472 -0.0343 -0.1445  0.2979
  444loPI   GL1 7093  15.304  18.793  10.270 -0.0695  0.2123 -0.0241
  444loPI   GL2 7094  15.654  18.757  10.145 -0.1025 -0.1055  0.0693
  444loPI   C1A 7095  15.228  18.654   9.843 -0.0215 -0.2192 -0.0723
  444loPI   C2A 7096  15.226  18.666   9.406 -0.1189  0.1241 -0.0983
  444loPI   C3A 7097  14.895  18.889   9.182 -0.0272 -0.0125 -0.0523
  444loPI   C4A 7098  14.796  19.136   8.837  0.1169  0.1144  0.0484
  444loPI   C5A 7099  14.756  19.162   8.396 -0.1050 -0.2061 -0.1768
  444loPI   C6A 7100  14.592  19.267   7.982 -0.1226  0.3228  0.0120
  444loPI   C1B 7101  15.727  18.846   9.732  0.1105 -0.1660 -0.2750
  444loPI   C2B 7102  15.824  18.714   9.273 -0.1429  0.1963  0.0132
  444loPI   C3B 7103  15.815  18.699   8.890 -0.0333  0.1465  0.0169
  444loPI   C4B 7104  15.619  18.895   8.557  0.0773  0.1356 -0.0806
  445loPI    C1 7105   7.382   2.548   9.848 -0.1055  0.0376 -0.1236
  445loPI    C2 7106   7.027   2.396   9.952 -0.0464 -0.1664 -0.2157
  445loPI    C3 7107   7.357   2.173   9.985  0.1001  0.0810  0.0382
  445loPI   PO4 7108   7.328   2.708   9.600  0.0311  0.1076 -0.3821
  445loPI   GL1 7109   7.282   2.688   9.138  0.0425  0.1682  0.2336
  445loPI   GL2 7110   7.018   2.906   9.211  0.0008 -0.1607  0.1987
  445loPI   C1A 7111   7.312   2.780   8.710  0.0363  0.0449  0.0296
  445loPI   C2A 7112   7.504   2.867   8.349 -0.0195 -0.0389 -0.1149
  445loPI   C3A 7113   7.661   2.727   8.020  0.4352 -0.0766 -0.0036
  445loPI   C4A 7114   7.726   2.537   7.561 -0.0685 -0.1363 -0.2936
  445loPI   C5A 7115   7.652   2.505   7.007  0.0542 -0.1338  0.2668
  445loPI   C6A 7116   7.933   2.294   6.641  0.3109 -0.0315 -0.2736
  445loPI   C1B 7117   6.947   3.170   8.931 -0.1894  0.1651 -0.0067
  445loPI   C2B 7118   7.127   3.169   8.515 -0.0370 -0.0854 -0.2206
  445loPI   C3B 7119   7.245   3.277   8.043 -0.0804  0.1623 -0.1356
  445loPI   C4B 7120   7.507   3.550   7.704  0.1687 -0.0566  0.0382
  446loPI    C1 7121   4.769   8.221   9.738  0.1522 -0.1892 -0.0112
  446loPI    C2 7122   4.999   8.253  10.064 -0.0793  0.0721  0.1308
  446loPI    C3 7123   4.638   8.081  10.090  0.0846 -0.3187 -0.0870
  446loPI   PO4 7124   4.944   8.156   9.522 -0.1642 -0.1003 -0.3164
  446loPI   GL1 7125   4.903   8.063   9.243  0.3297  0.0134 -0.1037
  446loPI   GL2 7126   5.199   7.914   9.003  0.0940  0.1456 -0.2785
  446loPI   C1A 7127   4.858   8.303   8.886  0.0842 -0.2528 -0.1933
  446loPI   C2A 7128   5.079   8.491   8.468 -0.1043 -0.2348  0.1639
  446loPI   C3A 7129   5.199   8.524   8.051 -0.1620  0.0909  0.0215
  446loPI   C4A 7130   5.104   8.748   7.672 -0.0452  0.1234  0.1223
  446loPI   C5A 7131   5.205   8.892   7.274  0.4130  0.0839 -0.0702
  446loPI   C6A 7132   5.519   9.169   7.150 -0.0619  0.1232 -0.0373
  446loPI   C1B 7133   5.176   8.010   8.579 -0.2417  0.2807  0.0268
  446loPI   C2B 7134   4.845   7.987   8.292  0.0195 -0.1952  0.1629
  446loPI   C3B 7135   4.824   7.880   7.817  0.2007 -0.3414 -0.1822
  446loPI   C4B 7136   4.964   7.791   7.390  0.0705 -0.1091  0.3331
  447loPI    C1 7137   4.827   5.229   9.711 -0.0016 -0.0749  0.0239
  447loPI    C2 7138   4.720   5.318  10.086 -0.0093 -0.3481  0.0886
  447loPI    C3 7139   5.021   5.516   9.912 -0.1537 -0.0633  0.1564
  447loPI   PO4 7140   4.666   5.255   9.545 -0.1038  0.0356 -0.3439
  447loPI   GL1 7141   4.538   5.303   9.175 -0.3357  0.0012 -0.1471
  447loPI   GL2 7142   4.715   5.184   8.986  0.0261  0.0610 -0.1200
  447loPI   C1A 7143   4.311   5.168   8.758 -0.0492 -0.1433  0.0712
  447loPI   C2A 7144   4.351   5.158   8.349 -0.0073  0.0210  0.0867
  447loPI   C3A 7145   4.155   5.188   7.882 -0.0389  0.1679 -0.1277
  447loPI   C4A 7146   4.011   5.180   7.566  0.0261  0.1024  0.2965
  447loPI   C5A 7147   3.665   4.951   7.339 -0.4728 -0.0183  0.0971
  447loPI   C6A 7148   3.463   5.249   7.135  0.0997  0.2624 -0.0848
  447loPI   C1B 7149   4.763   5.112   8.561 -0.0031  0.2968  0.1504
  447loPI   C2B 7150   4.746   5.104   8.009  0.0672 -0.2188 -0.0897
  447loPI   C3B 7151   4.520   5.041   7.570  0.0611  0.4057  0.1621
  447loPI   C4B 7152   4.247   4.877   7.211  0.1427 -0.1370 -0.2400
  448loPI    C1 7153  13.932  11.595   9.555  0.0079  0.1271 -0.0179
  448loPI    C2 7154  14.197  11.322   9.432 -0.2508  0.0148 -0.3418
  448loPI    C3 7155  13.967  11.247   9.750  0.2031  0.1761  0.0360
  448loPI   PO4 7156  13.991  11.772   9.398  0.1424  0.0402  0.1508
  448loPI   GL1 7157  14.030  11.873   9.002  0.2437 -0.0114  0.1554
  448loPI   GL2 7158  14.049  11.523   8.958 -0.1892 -0.1192  0.3092
  448loPI   C1A 7159  14.164  11.673   8.475  0.1258 -0.0441  0.0927
  448loPI   C2A 7160  14.374  11.646   8.066 -0.0948  0.1318  0.2261
  448loPI   C3A 7161  14.246  11.838   7.712  0.0016 -0.3747  0.0465
  448loPI   C4A 7162  14.273  12.097   7.318 -0.1162 -0.2358 -0.1577
  448loPI   C5A 7163  14.290  12.308   6.935 -0.0290  0.0513 -0.0930
  448loPI   C6A 7164  14.448  11.966   6.550 -0.0958  0.2313 -0.1356
  448loPI   C1B 7165  13.676  11.371   8.725 -0.1303  0.0951  0.0894
  448loPI   C2B 7166  13.569  11.276   8.223  0.1763 -0.3285  0.1146
  448loPI   C3B 7167  13.644  11.183   7.716 -0.0450 -0.0663  0.0552
  448loPI   C4B 7168  13.543  11.228   7.287 -0.3539 -0.1615 -0.0333
  449loPI    C1 7169  17.943   7.661   9.833 -0.1107  0.0309  0.2447
  449loPI    C2 7170  18.135   7.390  10.056 -0.1295 -0.2665 -0.0906
  449loPI    C3 7171  17.790   7.294   9.878 -0.1309 -0.0253 -0.2235
  449loPI   PO4 7172  18.072   7.804   9.697 -0.1452 -0.2126  0.2816
  449loPI   GL1 7173  18.122   7.986   9.410  0.1924 -0.0582  0.0378
  449loPI   GL2 7174  18.526   7.936   9.541 -0.2092 -0.0217 -0.0678
  449loPI   C1A 7175  17.887   7.943   9.001  0.1744  0.1575 -0.0051
  449loPI   C2A 7176  17.741   8.016   8.611 -0.0809 -0.4912  0.2604
  449loPI   C3A 7177  17.742   8.186   8.167  0.1497  0.0410 -0.4184
  449loPI   C4A 7178  17.964   8.081   7.887 -0.2447  0.1073  0.2500
  449loPI   C5A 7179  18.071   8.034   7.436 -0.2358 -0.1500 -0.0652
  449loPI   C6A 7180  18.340   7.801   7.052 -0.0913  0.0449  0.0371
  449loPI   C1B 7181  18.547   7.744   9.080  0.0318 -0.2606  0.3949
  449loPI   C2B 7182  18.396   7.553   8.715 -0.2566  0.0175 -0.3510
  449loPI   C3B 7183  18.419   7.344   8.269  0.1534  0.1941  0.1036
  449loPI   C4B 7184  18.342   7.197   7.764  0.1821 -0.1620  0.1802
  450loPI    C1 7185  14.085  16.989  10.738  0.1155  0.0289 -0.1409
  450loPI    C2 7186  14.342  17.171  10.985 -0.0284 -0.0222  0.0483
  450loPI    C3 7187  13.963  17.296  10.963 -0.0507 -0.1047 -0.0464
  450loPI   PO4 7188  14.093  16.988  10.515 -0.1828 -0.3220  0.0604
  450loPI   GL1 7189  14.025  16.993  10.128 -0.1336  0.0180 -0.0372
  450loPI   GL2 7190  14.205  16.899   9.779  0.2207 -0.2526 -0.0355
  450loPI   C1A 7191  14.013  17.443   9.838  0.0182 -0.2030  0.3432
  450loPI   C2A 7192  13.855  17.633   9.526 -0.0347 -0.0917  0.1394
  450loPI   C3A 7193  13.848  17.518   9.051 -0.3221  0.3939  0.1722
  450loPI   C4A 7194  13.791  17.606   8.659 -0.1737 -0.1261 -0.0098
  450loPI   C5A 7195  13.631  17.702   8.266  0.1802 -0.2312 -0.2075
  450loPI   C6A 7196  13.454  17.751   7.835  0.0753  0.2039  0.2024
  450loPI   C1B 7197  14.218  17.119   9.467 -0.0149  0.1447 -0.1956
  450loPI   C2B 7198  14.210  17.152   8.992  0.2522 -0.1033  0.1996
  450loPI   C3B 7199  14.274  17.172   8.513  0.0378  0.1706  0.0579
  450loPI   C4B 7200  14.598  16.990   8.189  0.0136 -0.3418  0.5301
  451loPI    C1 7201  18.198  12.639   9.837  0.0433  0.0991  0.0391
  451loPI    C2 7202  18.409  12.641  10.177 -0.2095 -0.0848  0.2002
  451loPI    C3 7203  18.390  12.309   9.955 -0.2126 -0.0260  0.1120
  451loPI   PO4 7204  17.930  12.702   9.803 -0.2726 -0.2303 -0.3332
  451loPI   GL1 7205  17.840  12.844   9.403 -0.3476  0.1774 -0.0966
  451loPI   GL2 7206  17.747  12.563   9.303  0.0183  0.2066 -0.2820
  451loPI   C1A 7207  17.680  12.994   9.000 -0.0503 -0.0232  0.1854
  451loPI   C2A 7208  17.423  12.926   8.644  0.0152 -0.1735 -0.1016
  451loPI   C3A 7209  17.380  13.005   8.187 -0.1243 -0.3362 -0.0701
  451loPI   C4A 7210  17.693  12.982   7.814 -0.0484 -0.0106  0.0223
  451loPI   C5A 7211  17.726  13.173   7.417 -0.1413 -0.0282  0.4273
  451loPI   C6A 7212  18.071  13.392   7.112 -0.3154 -0.2472 -0.1260
  451loPI   C1B 7213  17.684  12.419   8.969  0.1521  0.0600 -0.3112
  451loPI   C2B 7214  17.539  12.166   8.708  0.0627  0.1229  0.0145
  451loPI   C3B 7215  17.320  12.021   8.241  0.2291  0.0415  0.1366
  451loPI   C4B 7216  17.217  12.140   7.833  0.1685 -0.0014  0.0600
  452loPI    C1 7217  11.344   4.967  10.109 -0.1246  0.0201 -0.1541
  452loPI    C2 7218  11.574   4.983  10.436 -0.0775  0.2032 -0.1952
  452loPI    C3 7219  11.293   5.262  10.375 -0.1794  0.0909 -0.2424
  452loPI   PO4 7220  11.339   4.757   9.981 -0.1116 -0.1284  0.3260
  452loPI   GL1 7221  11.360   4.679   9.619 -0.1535  0.0789 -0.2254
  452loPI   GL2 7222  11.050   4.438   9.510 -0.0031  0.0508 -0.0628
  452loPI   C1A 7223  11.391   4.707   9.210 -0.2730  0.1466  0.3303
  452loPI   C2A 7224  11.484   4.561   8.888  0.3879  0.1881  0.2400
  452loPI   C3A 7225  11.417   4.492   8.483 -0.0264  0.2880 -0.2244
  452loPI   C4A 7226  11.458   4.619   7.996  0.1892  0.0992 -0.1407
  452loPI   C5A 7227  11.122   4.611   7.793  0.0405 -0.2475  0.0743
  452loPI   C6A 7228  11.193   4.944   7.450 -0.1673 -0.3268  0.1984
  452loPI   C1B 7229  11.000   4.405   9.091  0.0499 -0.1390 -0.0626
  452loPI   C2B 7230  10.918   4.368   8.691 -0.1042 -0.2388  0.0007
  452loPI   C3B 7231  11.032   4.168   8.344 -0.2892  0.0487 -0.1449
  452loPI   C4B 7232  11.123   4.117   7.924  0.0015  0.1167  0.0795
  453loPI    C1 7233   7.232   7.565   9.921  0.1280 -0.0052 -0.2383
  453loPI    C2 7234   7.483   7.871   9.978 -0.1963  0.1412  0.5354
  453loPI    C3 7235   7.624   7.497   9.962  0.1523  0.2833  0.0503
  453loPI   PO4 7236   7.048   7.589   9.646 -0.0604  0.0488 -0.2275
  453loPI   GL1 7237   7.119   7.668   9.126  0.1963  0.3280 -0.1699
  453loPI   GL2 7238   6.926   7.434   9.073 -0.1051  0.2324  0.0999
  453loPI   C1A 7239   7.460   7.518   8.815 -0.1116  0.2092  0.1756
  453loPI   C2A 7240   7.649   7.725   8.460 -0.0316 -0.2430  0.1988
  453loPI   C3A 7241   7.886   7.649   8.068  0.2116 -0.0563 -0.0443
  453loPI   C4A 7242   7.900   7.558   7.711 -0.0223  0.2514  0.3417
  453loPI   C5A 7243   8.253   7.404   7.518 -0.2450 -0.1544 -0.1170
  453loPI   C6A 7244   8.479   7.296   7.134  0.2953 -0.1942 -0.2795
  453loPI   C1B 7245   7.051   7.427   8.619 -0.0339  0.2562  0.3912
  453loPI   C2B 7246   7.193   7.459   8.227 -0.2127 -0.0286  0.2799
  453loPI   C3B 7247   7.369   7.551   7.826  0.0780  0.0248 -0.2803
  453loPI   C4B 7248   7.570   7.549   7.328  0.0412 -0.0108 -0.1757
  454loPI    C1 7249   2.612   7.601   9.786  0.0324 -0.1102 -0.1063
  454loPI    C2 7250   2.608   7.257   9.581  0.1509 -0.2154  0.0648
  454loPI    C3 7251   2.453   7.272   9.950  0.0497 -0.0578  0.0170
  454loPI   PO4 7252   2.549   7.768   9.590 -0.0402 -0.0314 -0.0768
  454loPI   GL1 7253   2.677   7.772   9.275 -0.3142  0.1291  0.1259
  454loPI   GL2 7254   3.037   7.834   9.156 -0.1410 -0.3770  0.3064
  454loPI   C1A 7255   2.524   7.978   8.916  0.1992 -0.0128 -0.2096
  454loPI   C2A 7256   2.515   7.852   8.490  0.0230 -0.4280 -0.1684
  454loPI   C3A 7257   2.502   7.816   8.023  0.2824  0.2146  0.1138
  454loPI   C4A 7258   2.625   7.850   7.585 -0.0421 -0.3799 -0.2647
  454loPI   C5A 7259   2.572   7.702   7.168  0.0150 -0.0041  0.2514
  454loPI   C6A 7260   2.414   7.318   7.110 -0.2823 -0.0264  0.3541
  454loPI   C1B 7261   2.983   7.978   8.707 -0.0691  0.0622 -0.2162
  454loPI   C2B 7262   2.994   7.735   8.289  0.1080 -0.1048  0.0767
  454loPI   C3B 7263   3.200   7.728   7.944  0.2039 -0.0834  0.2761
  454loPI   C4B 7264   3.105   7.780   7.455  0.1322 -0.0909 -0.1336
  455loPI    C1 7265   7.959  18.295  10.121 -0.0063 -0.1087  0.1639
  455loPI    C2 7266   8.240  18.529  10.282  0.1056  0.0073 -0.1914
  455loPI    C3 7267   7.868  18.534  10.428  0.1263  0.3466 -0.1409
  455loPI   PO4 7268   7.981  18.408   9.830  0.2267 -0.1171  0.0286
  455loPI   GL1 7269   8.117  18.419   9.462  0.3557  0.1064  0.4788
  455loPI   GL2 7270   8.333  18.540   9.270 -0.1647  0.1545  0.0722
  455loPI   C1A 7271   7.905  18.287   9.182 -0.1992  0.0712  0.1650
  455loPI   C2A 7272   7.760  18.137   8.868 -0.1279 -0.1189 -0.2132
  455loPI   C3A 7273   7.617  18.046   8.482 -0.0220 -0.0507  0.2037
  455loPI   C4A 7274   7.528  17.987   7.997  0.0466  0.1201 -0.0656
  455loPI   C5A 7275   7.464  18.028   7.607 -0.1757 -0.2893 -0.0195
  455loPI   C6A 7276   7.333  18.218   7.269 -0.0914 -0.0657 -0.2359
  455loPI   C1B 7277   8.664  18.554   9.063 -0.0034 -0.1926 -0.1464
  455loPI   C2B 7278   8.713  18.328   8.767 -0.0501  0.1632 -0.1250
  455loPI   C3B 7279   8.912  18.492   8.353  0.0151  0.1404  0.3375
  455loPI   C4B 7280   9.061  18.332   7.929 -0.1552  0.4287  0.0612
  456loPI    C1 7281  11.651   1.042  10.420 -0.2004 -0.0360 -0.0634
  456loPI    C2 7282  11.770   1.422  10.380 -0.1726 -0.0554 -0.1699
  456loPI    C3 7283  11.669   1.280  10.740 -0.2085  0.0601 -0.1340
  456loPI   PO4 7284  11.578   1.040  10.129 -0.5842 -0.1094 -0.3198
  456loPI   GL1 7285  11.568   0.989   9.643  0.5243  0.0484 -0.1321
  456loPI   GL2 7286  11.888   0.891   9.722  0.0219  0.2852  0.4709
  456loPI   C1A 7287  11.364   0.765   9.157  0.1923  0.2765  0.0175
  456loPI   C2A 7288  11.458   0.727   8.644 -0.0208  0.0428 -0.0716
  456loPI   C3A 7289  11.135   0.849   8.241  0.2976 -0.1584  0.0340
  456loPI   C4A 7290  11.134   0.646   7.788 -0.0028  0.0560  0.1690
  456loPI   C5A 7291  11.291   0.269   7.539  0.1332 -0.1066 -0.1356
  456loPI   C6A 7292  11.554   0.095   7.222  0.0954 -0.5034 -0.5180
  456loPI   C1B 7293  12.091   1.067   9.347  0.2485 -0.2640 -0.4590
  456loPI   C2B 7294  12.050   1.475   9.002 -0.1625  0.2197  0.1481
  456loPI   C3B 7295  12.313   1.340   8.557  0.0460 -0.0221 -0.1747
  456loPI   C4B 7296  12.505   1.009   8.238  0.0027  0.2184 -0.1555
  457loPI    C1 7297  17.515   3.291   9.929 -0.0554  0.2336 -0.1065
  457loPI    C2 7298  17.771   3.323   9.623  0.0861 -0.0720 -0.0249
  457loPI    C3 7299  17.883   3.437   9.989 -0.0480  0.1978 -0.0651
  457loPI   PO4 7300  17.402   3.056   9.913  0.0511  0.1163  0.2010
  457loPI   GL1 7301  17.285   2.794   9.506  0.0332  0.1961  0.2275
  457loPI   GL2 7302  17.521   2.929   9.467  0.0196 -0.0935 -0.1705
  457loPI   C1A 7303  17.387   2.433   9.202  0.1742  0.3110  0.0438
  457loPI   C2A 7304  17.330   2.275   8.762  0.1481 -0.0727 -0.2075
  457loPI   C3A 7305  17.117   2.204   8.346  0.2527  0.2701 -0.0427
  457loPI   C4A 7306  17.025   2.124   7.966  0.0250  0.1651  0.0998
  457loPI   C5A 7307  17.101   2.129   7.570 -0.2002 -0.1649 -0.3526
  457loPI   C6A 7308  17.536   2.029   7.484  0.1540  0.0183  0.3350
  457loPI   C1B 7309  17.758   3.231   9.133  0.1928  0.1646  0.0391
  457loPI   C2B 7310  17.851   3.123   8.650  0.0031  0.0247  0.0427
  457loPI   C3B 7311  17.967   2.833   8.360 -0.0813 -0.2211 -0.0266
  457loPI   C4B 7312  18.046   2.385   8.307 -0.0191  0.0369  0.0952
  458loPI    C1 7313   7.853   6.170   9.617 -0.1237 -0.1203 -0.1691
  458loPI    C2 7314   7.859   6.524   9.430  0.0607  0.0403  0.1319
  458loPI    C3 7315   8.020   6.488   9.794  0.1097 -0.3729  0.0740
  458loPI   PO4 7316   7.877   6.020   9.375  0.2322  0.2514  0.2181
  458loPI   GL1 7317   7.899   5.626   9.194  0.0909 -0.2441 -0.1324
  458loPI   GL2 7318   8.006   5.287   9.220 -0.0041  0.0158 -0.2758
  458loPI   C1A 7319   7.713   5.617   8.768 -0.1820  0.1493  0.1736
  458loPI   C2A 7320   7.444   5.564   8.410 -0.0055 -0.1781  0.1471
  458loPI   C3A 7321   7.401   5.581   7.936 -0.4791 -0.1550 -0.0853
  458loPI   C4A 7322   7.186   5.596   7.532  0.2399 -0.0336  0.2415
  458loPI   C5A 7323   7.039   5.294   7.307 -0.2312 -0.0704 -0.0106
  458loPI   C6A 7324   6.617   5.207   7.292  0.2956  0.1763  0.0160
  458loPI   C1B 7325   7.772   5.182   8.905  0.0486  0.0101 -0.2690
  458loPI   C2B 7326   7.841   5.245   8.287  0.0851  0.4242  0.0073
  458loPI   C3B 7327   7.710   5.221   7.831  0.0307 -0.2204 -0.2000
  458loPI   C4B 7328   7.584   5.316   7.375  0.1146  0.2195 -0.4393
  459loPI    C1 7329   3.742  15.822  10.119  0.1220 -0.3339  0.0698
  459loPI    C2 7330   3.980  16.143  10.106 -0.0769 -0.1902 -0.0880
  459loPI    C3 7331   3.936  15.942  10.448 -0.0443  0.0224  0.0434
  459loPI   PO4 7332   3.809  15.700   9.820  0.0535 -0.0539 -0.0536
  459loPI   GL1 7333   3.702  15.551   9.393  0.3503 -0.4167 -0.0597
  459loPI   GL2 7334   4.025  15.557   9.321  0.0707 -0.0600  0.0265
  459loPI   C1A 7335   3.489  15.543   8.944 -0.0633 -0.0763 -0.2073
  459loPI   C2A 7336   3.394  15.788   8.614  0.0995 -0.3332  0.0501
  459loPI   C3A 7337   3.452  15.724   8.139 -0.1122  0.2113 -0.2703
  459loPI   C4A 7338   3.518  15.837   7.721  0.2993 -0.1682  0.1189
  459loPI   C5A 7339   3.478  15.646   7.253  0.1299  0.1998 -0.0742
  459loPI   C6A 7340   3.254  15.328   7.158 -0.0192  0.4725 -0.3089
  459loPI   C1B 7341   3.966  15.342   8.941 -0.0884  0.2842  0.1390
  459loPI   C2B 7342   3.700  15.112   8.717  0.1756  0.0394  0.2406
  459loPI   C3B 7343   3.543  15.267   8.312 -0.0173  0.0672 -0.0064
  459loPI   C4B 7344   3.608  15.257   7.822  0.1083  0.1471  0.0611
  460loPI    C1 7345  11.324  12.587   9.698 -0.0682 -0.0598 -0.0812
  460loPI    C2 7346  11.556  12.661  10.015  0.2516 -0.4484 -0.2157
  460loPI    C3 7347  11.182  12.530  10.068  0.1241 -0.0161  0.0005
  460loPI   PO4 7348  11.444  12.300   9.416  0.2257  0.0464  0.1050
  460loPI   GL1 7349  11.136  12.207   9.083 -0.0432  0.0041 -0.0229
  460loPI   GL2 7350  11.431  12.052   8.932 -0.0172  0.0478 -0.2444
  460loPI   C1A 7351  11.005  12.282   8.643  0.2554 -0.0337 -0.0711
  460loPI   C2A 7352  10.809  12.354   8.253 -0.2249  0.0754 -0.0039
  460loPI   C3A 7353  10.640  12.225   7.937  0.1022 -0.0039  0.0208
  460loPI   C4A 7354  10.545  11.819   7.902  0.2998  0.2469 -0.3028
  460loPI   C5A 7355  10.331  11.498   7.754 -0.2370 -0.0391  0.0253
  460loPI   C6A 7356  10.381  11.098   7.736  0.1605  0.0521  0.0083
  460loPI   C1B 7357  11.518  12.461   8.747  0.2046  0.2016 -0.0590
  460loPI   C2B 7358  11.664  12.784   8.490  0.0704 -0.1405 -0.2538
  460loPI   C3B 7359  11.888  12.964   8.307  0.2148 -0.2526  0.1922
  460loPI   C4B 7360  12.045  12.933   7.881 -0.1646  0.1376  0.0728
  461loPI    C1 7361  16.851   1.763  10.129 -0.1732  0.0131  0.0686
  461loPI    C2 7362  16.695   1.794  10.496 -0.0882 -0.1054  0.1153
  461loPI    C3 7363  17.091   1.771  10.448 -0.0931  0.0206  0.0085
  461loPI   PO4 7364  16.789   1.941   9.925  0.1001  0.1569  0.0909
  461loPI   GL1 7365  16.894   1.888   9.543 -0.4917 -0.2465  0.0126
  461loPI   GL2 7366  17.018   1.598   9.453  0.1981  0.0876  0.1892
  461loPI   C1A 7367  16.658   2.149   9.292  0.1170 -0.0182  0.4457
  461loPI   C2A 7368  16.601   2.138   8.841  0.0770 -0.0319 -0.0847
  461loPI   C3A 7369  16.596   2.215   8.373  0.3410 -0.3061 -0.2739
  461loPI   C4A 7370  16.507   2.216   7.958  0.4743 -0.1781 -0.1466
  461loPI   C5A 7371  16.570   2.299   7.568 -0.0076  0.0050 -0.2556
  461loPI   C6A 7372  16.744   2.201   7.210  0.1100 -0.0768 -0.0698
  461loPI   C1B 7373  17.047   1.445   9.088  0.2639  0.0506 -0.0468
  461loPI   C2B 7374  17.104   1.300   8.754 -0.0204 -0.1382 -0.2803
  461loPI   C3B 7375  17.093   0.906   8.874 -0.2801  0.2131  0.0904
  461loPI   C4B 7376  16.829   0.760   8.651  0.0268 -0.0500 -0.0818
  462loPI    C1 7377   6.133   6.028   9.695  0.2084 -0.1677  0.0888
  462loPI    C2 7378   5.845   6.135   9.951 -0.2196 -0.2256 -0.3533
  462loPI    C3 7379   6.167   5.938  10.083 -0.2569  0.0583  0.1887
  462loPI   PO4 7380   5.945   6.024   9.520 -0.1847 -0.3694 -0.0373
  462loPI   GL1 7381   6.026   6.077   9.144 -0.2974 -0.2365 -0.0018
  462loPI   GL2 7382   6.110   6.338   9.019 -0.2257  0.2641  0.0821
  462loPI   C1A 7383   5.871   5.846   8.796  0.2764  0.2614  0.2498
  462loPI   C2A 7384   5.910   5.551   8.392 -0.1787  0.2298  0.1063
  462loPI   C3A 7385   6.106   5.660   8.015  0.4892  0.2411  0.2876
  462loPI   C4A 7386   5.962   5.733   7.636 -0.0955 -0.2249 -0.2762
  462loPI   C5A 7387   5.744   5.767   7.282 -0.1126  0.0350 -0.0149
  462loPI   C6A 7388   6.024   5.768   6.980 -0.2109 -0.0144  0.1046
  462loPI   C1B 7389   6.211   6.173   8.576  0.3519  0.1364  0.0839
  462loPI   C2B 7390   6.099   6.088   8.259 -0.0112 -0.0773 -0.2892
  462loPI   C3B 7391   5.871   6.131   8.004  0.1715 -0.2111  0.1680
  462loPI   C4B 7392   5.719   6.220   7.619 -0.0388  0.1029  0.1407
  463loPI    C1 7393  18.610  18.786  10.644 -0.0874  0.1451 -0.1615
  463loPI    C2 7394  18.973  18.629  10.582 -0.0540  0.1020  0.1307
  463loPI    C3 7395  18.920  18.905  10.867 -0.2175  0.2367 -0.0282
  463loPI   PO4 7396  18.526  18.861  10.400  0.1542  0.0160 -0.1193
  463loPI   GL1 7397  18.506  19.062   9.969  0.1640 -0.1456 -0.2050
  463loPI   GL2 7398  18.239  19.203  10.042  0.1208  0.0908  0.0919
  463loPI   C1A 7399  18.480  18.746   9.637  0.2279 -0.0684 -0.1327
  463loPI   C2A 7400  18.388  18.592   9.205 -0.1932 -0.1514 -0.1461
  463loPI   C3A 7401  18.193  18.602   8.826  0.0420 -0.0336  0.0454
  463loPI   C4A 7402  18.052  18.524   8.332 -0.5745 -0.0395  0.0926
  463loPI   C5A 7403  18.124  18.892   7.956  0.1489  0.1074  0.1471
  463loPI   C6A 7404  18.269  19.145   7.630  0.0108 -0.1300  0.1270
  463loPI   C1B 7405  18.268  19.150   9.587  0.0603 -0.1907 -0.1022
  463loPI   C2B 7406  18.280  19.066   9.203 -0.1077 -0.0388 -0.2711
  463loPI   C3B 7407  18.311  19.129   8.753 -0.1452  0.0508 -0.1266
  463loPI   C4B 7408  18.182  19.026   8.435  0.0851 -0.0837 -0.2317
  464loPI    C1 7409  17.203   1.400  10.094  0.4279 -0.2229 -0.1065
  464loPI    C2 7410  16.957   1.290  10.389  0.2283 -0.1048 -0.2265
  464loPI    C3 7411  17.284   1.074  10.310  0.1765 -0.2499 -0.0503
  464loPI   PO4 7412  17.012   1.395   9.898 -0.2194 -0.0918 -0.0097
  464loPI   GL1 7413  16.817   1.083   9.664 -0.1083 -0.0770 -0.1382
  464loPI   GL2 7414  16.477   1.005   9.716  0.1868  0.3653  0.0549
  464loPI   C1A 7415  16.737   1.085   9.318  0.2120 -0.1560  0.0199
  464loPI   C2A 7416  16.585   1.240   8.886  0.0009  0.2825 -0.2393
  464loPI   C3A 7417  16.749   1.248   8.446 -0.1978  0.1345  0.1120
  464loPI   C4A 7418  16.929   0.887   8.088 -0.0040  0.0851  0.2497
  464loPI   C5A 7419  17.181   0.650   7.751 -0.1063  0.2028 -0.2343
  464loPI   C6A 7420  17.391   0.256   7.488 -0.1481 -0.1596  0.0582
  464loPI   C1B 7421  16.119   0.969   9.338  0.0764 -0.2330  0.0494
  464loPI   C2B 7422  16.033   1.031   8.864 -0.2350 -0.6326 -0.1852
  464loPI   C3B 7423  16.388   0.916   8.495 -0.1872 -0.1160  0.0275
  464loPI   C4B 7424  16.429   0.687   8.110  0.3570 -0.0058  0.0972
  465loPI    C1 7425  13.547   3.503  10.437 -0.0799  0.0598 -0.0814
  465loPI    C2 7426  13.653   3.888  10.463  0.0174  0.0327 -0.0726
  465loPI    C3 7427  13.320   3.760  10.644  0.0088  0.1036 -0.0379
  465loPI   PO4 7428  13.725   3.450  10.179 -0.1376  0.2449 -0.1298
  465loPI   GL1 7429  13.544   3.254   9.843 -0.1948 -0.2466 -0.0102
  465loPI   GL2 7430  13.610   3.571   9.697  0.4227 -0.3022 -0.0876
  465loPI   C1A 7431  13.484   3.119   9.376 -0.1160  0.1952 -0.0279
  465loPI   C2A 7432  13.524   2.991   8.972  0.0562  0.0940  0.1414
  465loPI   C3A 7433  13.334   2.772   8.634 -0.1663 -0.2776 -0.1987
  465loPI   C4A 7434  13.415   2.747   8.172 -0.0071  0.0069  0.3038
  465loPI   C5A 7435  13.271   2.755   7.632  0.0594 -0.0717 -0.1457
  465loPI   C6A 7436  13.121   2.944   7.244 -0.4004  0.0420 -0.3106
  465loPI   C1B 7437  13.610   3.660   9.295  0.0750 -0.0172  0.1329
  465loPI   C2B 7438  13.655   3.474   8.864  0.1135  0.0463 -0.0810
  465loPI   C3B 7439  13.513   3.268   8.513 -0.0928  0.1578  0.0659
  465loPI   C4B 7440  13.447   3.233   8.079  0.1545  0.0960 -0.1665
  466loPI    C1 7441  13.589   0.383  10.654 -0.2012  0.0780 -0.0915
  466loPI    C2 7442  13.757   0.746  10.653  0.1404 -0.0764 -0.1035
  466loPI    C3 7443  13.676   0.563  11.000 -0.0669  0.0251 -0.0971
  466loPI   PO4 7444  13.412   0.431  10.447 -0.2258 -0.0300 -0.0949
  466loPI   GL1 7445  13.082   0.533  10.174 -0.2643  0.0138  0.2016
  466loPI   GL2 7446  12.691   0.575  10.082  0.0084 -0.2011 -0.0468
  466loPI   C1A 7447  13.197   0.357   9.797 -0.3532 -0.0412 -0.0301
  466loPI   C2A 7448  13.026   0.382   9.261  0.0584  0.2074 -0.2327
  466loPI   C3A 7449  12.903   0.259   8.816 -0.1566  0.0765  0.2075
  466loPI   C4A 7450  12.852   0.169   8.476  0.1090 -0.0563 -0.2436
  466loPI   C5A 7451  12.972   0.213   8.075  0.0172  0.1615  0.2559
  466loPI   C6A 7452  12.855   0.412   7.751  0.0835  0.4200  0.1600
  466loPI   C1B 7453  12.855   0.677   9.715 -0.0112 -0.1831  0.0160
  466loPI   C2B 7454  12.917   0.835   9.230 -0.1072  0.2382  0.0307
  466loPI   C3B 7455  12.860   0.772   8.882 -0.1980  0.3100 -0.2521
  466loPI   C4B 7456  12.784   1.083   8.615  0.0586  0.0789 -0.0322
  467loPI    C1 7457   3.712   3.710  10.168  0.2719 -0.0211 -0.0457
  467loPI    C2 7458   3.417   3.824  10.413  0.1614  0.0357 -0.2038
  467loPI    C3 7459   3.795   3.821  10.543  0.0641 -0.2979  0.0868
  467loPI   PO4 7460   3.530   3.535   9.996 -0.0777  0.2038  0.0455
  467loPI   GL1 7461   3.624   3.555   9.562 -0.0002  0.2116  0.2536
  467loPI   GL2 7462   3.396   3.547   9.333 -0.2667 -0.4034  0.1663
  467loPI   C1A 7463   3.912   3.456   9.277 -0.1589  0.0683  0.1863
  467loPI   C2A 7464   4.105   3.434   8.932 -0.3447 -0.1937  0.0384
  467loPI   C3A 7465   4.387   3.349   8.619 -0.1620 -0.2702  0.1695
  467loPI   C4A 7466   4.278   3.303   8.186 -0.2176  0.1394 -0.1017
  467loPI   C5A 7467   4.198   3.191   7.793  0.0087 -0.3200  0.2791
  467loPI   C6A 7468   4.283   3.140   7.364 -0.0640  0.1838 -0.5153
  467loPI   C1B 7469   3.436   3.176   9.191 -0.0868 -0.0810  0.2314
  467loPI   C2B 7470   3.426   3.041   8.757  0.2118  0.0320 -0.0280
  467loPI   C3B 7471   3.355   2.891   8.329  0.0538  0.1157 -0.1941
  467loPI   C4B 7472   3.195   2.736   7.911 -0.0305  0.0506 -0.0733
  468loPI    C1 7473  13.231  13.036  10.078 -0.0602  0.1774  0.1211
  468loPI    C2 7474  13.517  13.177  10.320 -0.0005  0.1703  0.0548
  468loPI    C3 7475  13.186  13.016  10.475  0.1524 -0.0721  0.1357
  468loPI   PO4 7476  13.312  13.228   9.846 -0.3053 -0.0622 -0.2307
  468loPI   GL1 7477  13.147  13.103   9.515 -0.3987  0.1137 -0.0120
  468loPI   GL2 7478  13.061  12.796   9.357  0.0364 -0.0733 -0.2182
  468loPI   C1A 7479  13.096  13.417   9.229 -0.5154 -0.0485  0.1596
  468loPI   C2A 7480  13.370  13.736   9.233 -0.2344  0.2021 -0.0034
  468loPI   C3A 7481  13.597  14.012   8.919 -0.2166  0.3127 -0.2086
  468loPI   C4A 7482  13.585  14.322   8.645 -0.3427  0.0542 -0.0288
  468loPI   C5A 7483  13.649  14.333   8.272  0.1497 -0.1043 -0.4151
  468loPI   C6A 7484  14.049  14.363   8.068  0.0534  0.1343 -0.0136
  468loPI   C1B 7485  13.044  12.877   8.937  0.1749 -0.2337  0.1934
  468loPI   C2B 7486  12.994  12.806   8.552 -0.0313 -0.0870 -0.0319
  468loPI   C3B 7487  12.986  12.672   8.160  0.0219 -0.1859 -0.2048
  468loPI   C4B 7488  12.976  12.679   7.676 -0.0713  0.1128 -0.0388
  469loPI    C1 7489   6.915  16.403   9.644  0.0365 -0.0909 -0.1879
  469loPI    C2 7490   6.822  16.246  10.000  0.2821 -0.0613 -0.1089
  469loPI    C3 7491   6.619  16.135   9.674  0.0268 -0.0567  0.0454
  469loPI   PO4 7492   6.862  16.653   9.651 -0.0726  0.0796 -0.0424
  469loPI   GL1 7493   6.778  16.948   9.398 -0.2554  0.0160 -0.0808
  469loPI   GL2 7494   6.945  17.269   9.286 -0.0345 -0.0991  0.0131
  469loPI   C1A 7495   6.856  16.812   8.914  0.1840  0.0515  0.0110
  469loPI   C2A 7496   6.913  16.863   8.425  0.2931  0.0782  0.0489
  469loPI   C3A 7497   7.080  16.784   7.911  0.2621 -0.1228  0.1537
  469loPI   C4A 7498   7.080  16.845   7.543  0.0456  0.3595 -0.2051
  469loPI   C5A 7499   7.057  16.691   7.087 -0.2333 -0.0261 -0.0512
  469loPI   C6A 7500   6.980  16.586   6.633 -0.0468  0.1225  0.0847
  469loPI   C1B 7501   7.316  17.197   8.956  0.0050  0.2629  0.0132
  469loPI   C2B 7502   7.382  17.146   8.509 -0.4197  0.2467 -0.0774
  469loPI   C3B 7503   7.395  17.323   8.062  0.2928  0.1932 -0.1008
  469loPI   C4B 7504   7.323  17.349   7.616 -0.2098  0.3055 -0.1015
  470loPI    C1 7505  16.272  10.096   9.728 -0.1385  0.0365 -0.0361
  470loPI    C2 7506  16.154   9.753   9.895  0.1117 -0.0287  0.0117
  470loPI    C3 7507  16.011  10.101  10.032 -0.2396 -0.1165 -0.1194
  470loPI   PO4 7508  16.523  10.043   9.749 -0.1386  0.0457  0.0525
  470loPI   GL1 7509  16.538   9.932   9.238 -0.0941  0.1272 -0.2343
  470loPI   GL2 7510  16.246   9.810   9.274 -0.0846  0.0607 -0.1057
  470loPI   C1A 7511  16.485  10.106   8.850 -0.1520  0.0772 -0.1078
  470loPI   C2A 7512  16.548  10.164   8.391  0.4040 -0.1796 -0.1080
  470loPI   C3A 7513  16.481  10.272   8.032  0.0623 -0.0163 -0.2442
  470loPI   C4A 7514  16.616  10.619   7.727  0.1901 -0.3122  0.2211
  470loPI   C5A 7515  16.894  10.651   7.361  0.0127 -0.1474  0.0540
  470loPI   C6A 7516  17.114  10.516   6.956 -0.1193  0.0333 -0.4398
  470loPI   C1B 7517  16.043   9.850   8.846  0.2912 -0.1537  0.2809
  470loPI   C2B 7518  16.049  10.184   8.558  0.1804 -0.3089  0.1573
  470loPI   C3B 7519  16.067  10.447   8.238 -0.0980  0.0764  0.0099
  470loPI   C4B 7520  15.963  10.426   7.858 -0.0399 -0.1602  0.1811
  471loPI    C1 7521   1.381  15.909   9.978 -0.0931 -0.1154 -0.1613
  471loPI    C2 7522   1.207  15.550   9.997  0.1695 -0.2469 -0.1948
  471loPI    C3 7523   1.581  15.597  10.130  0.1306  0.0191 -0.1752
  471loPI   PO4 7524   1.299  16.001   9.825 -0.2083 -0.0485 -0.1546
  471loPI   GL1 7525   1.194  15.938   9.496  0.1568 -0.0120 -0.1321
  471loPI   GL2 7526   0.983  16.099   9.362  0.4072 -0.0735 -0.2780
  471loPI   C1A 7527   1.323  16.096   9.056  0.3859 -0.1321  0.2602
  471loPI   C2A 7528   1.152  16.058   8.709 -0.0406 -0.0514 -0.3132
  471loPI   C3A 7529   1.127  16.081   8.276 -0.1710  0.0017 -0.0423
  471loPI   C4A 7530   1.075  15.835   8.011  0.0692 -0.0529  0.1478
  471loPI   C5A 7531   1.246  15.758   7.594  0.2282 -0.1340  0.2659
  471loPI   C6A 7532   1.367  15.715   7.204  0.1522  0.1363  0.2543
  471loPI   C1B 7533   0.739  15.966   9.076  0.0112  0.0329 -0.1066
  471loPI   C2B 7534   0.705  15.892   8.651  0.1133 -0.0785  0.0745
  471loPI   C3B 7535   0.574  15.807   8.319  0.1435  0.1240  0.0240
  471loPI   C4B 7536   0.584  15.804   7.900 -0.4568 -0.1979 -0.0773
  472loPI    C1 7537  15.394  17.444  10.526  0.0789 -0.0398 -0.1363
  472loPI    C2 7538  15.062  17.266  10.390 -0.0196  0.1872 -0.1968
  472loPI    C3 7539  15.116  17.315  10.783  0.0299 -0.0159 -0.1772
  472loPI   PO4 7540  15.611  17.343  10.394 -0.2389  0.1143 -0.0511
  472loPI   GL1 7541  15.826  17.461   9.968  0.1095 -0.2243  0.0120
  472loPI   GL2 7542  15.834  17.174  10.013  0.2645 -0.0970 -0.0242
  472loPI   C1A 7543  15.913  17.397   9.522 -0.1325 -0.0330 -0.0597
  472loPI   C2A 7544  15.951  17.128   9.213  0.3213  0.0898 -0.0054
  472loPI   C3A 7545  15.625  16.796   9.177  0.2873  0.1487 -0.1480
  472loPI   C4A 7546  15.444  16.755   8.834  0.3399 -0.1357  0.2352
  472loPI   C5A 7547  15.422  16.477   8.487  0.3424 -0.1524  0.0179
  472loPI   C6A 7548  15.439  16.508   8.073  0.0813  0.0457 -0.3753
  472loPI   C1B 7549  16.111  16.998   9.697  0.1540 -0.2710  0.4015
  472loPI   C2B 7550  16.486  17.156   9.400  0.2973 -0.0557 -0.1959
  472loPI   C3B 7551  16.389  17.260   8.972 -0.2707 -0.3184 -0.1299
  472loPI   C4B 7552  16.074  17.255   8.570 -0.0413 -0.3304  0.0799
  473loPI    C1 7553   7.933  10.658   9.470  0.1023 -0.1501  0.1534
  473loPI    C2 7554   8.219  10.637   9.748  0.2150  0.0856  0.0581
  473loPI    C3 7555   7.931  10.913   9.777  0.1579  0.0322  0.0041
  473loPI   PO4 7556   8.086  10.407   9.297 -0.3083 -0.1147  0.0766
  473loPI   GL1 7557   8.283  10.403   8.914  0.1564 -0.2046  0.0870
  473loPI   GL2 7558   8.608  10.391   8.923  0.3031  0.0700  0.2116
  473loPI   C1A 7559   7.997  10.308   8.568  0.0437  0.1005 -0.0199
  473loPI   C2A 7560   7.638  10.518   8.366  0.0043 -0.2557  0.0584
  473loPI   C3A 7561   7.327  10.333   8.173  0.0326 -0.3566 -0.2109
  473loPI   C4A 7562   7.338  10.196   7.695  0.2175  0.0682  0.3971
  473loPI   C5A 7563   7.549  10.201   7.372 -0.1114  0.0498  0.0330
  473loPI   C6A 7564   7.658  10.100   7.016  0.0942 -0.1455 -0.0271
  473loPI   C1B 7565   8.429  10.351   8.424  0.0950  0.0461  0.2745
  473loPI   C2B 7566   8.618  10.361   7.963  0.1307  0.1324 -0.3002
  473loPI   C3B 7567   8.485  10.054   7.684 -0.0879  0.1104 -0.0757
  473loPI   C4B 7568   8.223   9.707   7.793 -0.0829 -0.1732  0.1382
  474loPI    C1 7569   1.488   4.548   9.530  0.0288  0.2491  0.2493
  474loPI    C2 7570   1.866   4.679   9.529  0.2870 -0.4516  0.0231
  474loPI    C3 7571   1.673   4.627   9.876  0.3549  0.0032  0.1359
  474loPI   PO4 7572   1.494   4.354   9.366 -0.5776  0.0770  0.1662
  474loPI   GL1 7573   1.698   4.525   9.049 -0.1501  0.0533 -0.3299
  474loPI   GL2 7574   1.476   4.719   8.978  0.0093 -0.0567  0.1784
  474loPI   C1A 7575   2.039   4.302   8.884 -0.0519 -0.1224  0.0442
  474loPI   C2A 7576   2.072   4.195   8.454 -0.1761  0.0365 -0.1058
  474loPI   C3A 7577   2.134   4.210   8.006  0.4743 -0.0110 -0.0055
  474loPI   C4A 7578   2.016   4.036   7.584  0.1549  0.2620 -0.1976
  474loPI   C5A 7579   2.027   3.841   7.186 -0.0356 -0.2741  0.1604
  474loPI   C6A 7580   1.989   4.050   6.711 -0.0774  0.2710  0.0041
  474loPI   C1B 7581   1.579   4.658   8.623 -0.0765 -0.0866  0.0023
  474loPI   C2B 7582   1.493   4.529   8.227  0.3450  0.3245  0.3180
  474loPI   C3B 7583   1.479   4.344   7.867  0.1398 -0.1287  0.2191
  474loPI   C4B 7584   1.448   4.301   7.402  0.0470  0.3297  0.1650
  475loPI    C1 7585   7.398   4.880   9.925  0.0032  0.3899 -0.0133
  475loPI    C2 7586   7.033   5.031   9.857 -0.1910 -0.0931 -0.0785
  475loPI    C3 7587   7.137   4.917  10.226  0.0185  0.3479  0.0051
  475loPI   PO4 7588   7.377   4.673   9.724 -0.2316 -0.0173  0.1931
  475loPI   GL1 7589   7.282   4.503   9.329 -0.0185 -0.0023  0.0187
  475loPI   GL2 7590   7.468   4.460   9.061 -0.2115 -0.1033 -0.0541
  475loPI   C1A 7591   6.873   4.524   9.091 -0.0497 -0.1330 -0.2021
  475loPI   C2A 7592   6.840   4.722   8.701 -0.0384  0.2290  0.2624
  475loPI   C3A 7593   7.105   4.651   8.341 -0.0165  0.2501  0.0570
  475loPI   C4A 7594   7.243   4.517   7.991  0.0163  0.0252 -0.1105
  475loPI   C5A 7595   7.287   4.443   7.523  0.0374  0.0322 -0.0786
  475loPI   C6A 7596   7.526   3.990   7.355 -0.0075  0.0645 -0.0774
  475loPI   C1B 7597   7.784   4.322   8.660 -0.1743 -0.1319 -0.1054
  475loPI   C2B 7598   7.829   3.935   8.503  0.1530 -0.0208  0.0539
  475loPI   C3B 7599   7.885   3.835   8.067 -0.1510 -0.1286  0.1674
  475loPI   C4B 7600   7.964   3.846   7.637  0.0125  0.1484  0.1611
  476loPI    C1 7601  11.212  15.259  10.310  0.0237 -0.3020 -0.0165
  476loPI    C2 7602  11.280  14.885  10.434  0.0382 -0.1689  0.3923
  476loPI    C3 7603  11.161  15.164  10.695  0.0498  0.1194  0.0966
  476loPI   PO4 7604  11.367  15.430  10.205 -0.0233 -0.3230 -0.0024
  476loPI   GL1 7605  11.745  15.508   9.923  0.3264  0.1512  0.1073
  476loPI   GL2 7606  11.645  15.236   9.759  0.0436  0.0535 -0.0209
  476loPI   C1A 7607  11.820  15.781   9.517 -0.0485  0.0618 -0.1007
  476loPI   C2A 7608  11.874  15.692   9.037  0.2034  0.0397 -0.2383
  476loPI   C3A 7609  11.844  15.699   8.640 -0.1191  0.0771 -0.1279
  476loPI   C4A 7610  11.817  15.874   8.244 -0.3422  0.2007 -0.1374
  476loPI   C5A 7611  11.740  15.926   7.893 -0.0447 -0.2335  0.0190
  476loPI   C6A 7612  11.671  15.775   7.557 -0.0180  0.0879 -0.0553
  476loPI   C1B 7613  11.488  15.438   9.373 -0.0449  0.3217  0.0518
  476loPI   C2B 7614  11.587  15.289   8.853  0.1428 -0.0009 -0.0067
  476loPI   C3B 7615  11.627  15.155   8.417  0.1490 -0.2316  0.0363
  476loPI   C4B 7616  11.361  14.996   8.124  0.2038  0.0339 -0.1520
  477loPI    C1 7617  18.940   1.695  10.317 -0.2792  0.1123  0.0618
  477loPI    C2 7618  19.291   1.812  10.470 -0.2053 -0.0835  0.0441
  477loPI    C3 7619  19.059   2.076  10.279 -0.0229  0.0253 -0.0303
  477loPI   PO4 7620  18.959   1.379  10.140  0.1896 -0.1975 -0.1635
  477loPI   GL1 7621  18.847   1.194   9.741  0.0138  0.4529 -0.0596
  477loPI   GL2 7622  19.118   1.001   9.583 -0.2133 -0.0998 -0.1527
  477loPI   C1A 7623  18.783   0.732   9.809 -0.0790 -0.1516  0.1158
  477loPI   C2A 7624  18.793   0.482   9.510  0.0581 -0.2232  0.0213
  477loPI   C3A 7625  18.841   0.515   9.089  0.1183 -0.0820 -0.1042
  477loPI   C4A 7626  18.778   0.566   8.634 -0.0960  0.0466 -0.0595
  477loPI   C5A 7627  18.755   0.586   8.141 -0.0364 -0.0218  0.2133
  477loPI   C6A 7628  18.879   0.673   7.691 -0.2440  0.3108  0.2654
  477loPI   C1B 7629  18.907   0.980   9.323  0.1452  0.0451 -0.2113
  477loPI   C2B 7630  18.880   1.037   8.854 -0.1130 -0.0392 -0.0450
  477loPI   C3B 7631  18.938   1.003   8.408 -0.1582 -0.1088 -0.0972
  477loPI   C4B 7632  18.834   1.086   8.005  0.1336  0.1894 -0.1038
  478loPI    C1 7633  15.379   2.569  10.697 -0.1988  0.4717 -0.1657
  478loPI    C2 7634  15.132   2.283  10.567  0.1733  0.1824 -0.2549
  478loPI    C3 7635  15.022   2.519  10.872 -0.0555 -0.1941 -0.0369
  478loPI   PO4 7636  15.398   2.693  10.422 -0.4714 -0.0328  0.1507
  478loPI   GL1 7637  15.545   2.760   9.957 -0.3570 -0.3149 -0.0652
  478loPI   GL2 7638  15.202   2.792   9.692  0.0137 -0.0115 -0.0092
  478loPI   C1A 7639  15.408   3.195   9.649  0.2553  0.1577  0.2112
  478loPI   C2A 7640  15.514   3.335   9.221  0.1443  0.0036 -0.0567
  478loPI   C3A 7641  15.369   3.398   8.877  0.0863 -0.0060 -0.2835
  478loPI   C4A 7642  15.032   3.486   8.682 -0.1403 -0.0047 -0.1078
  478loPI   C5A 7643  14.713   3.622   8.717 -0.1144  0.2161 -0.2534
  478loPI   C6A 7644  14.609   3.851   9.029 -0.2201 -0.0661 -0.3075
  478loPI   C1B 7645  15.309   2.823   9.321 -0.1903 -0.0177 -0.1923
  478loPI   C2B 7646  15.470   2.860   8.819  0.1454 -0.2135  0.1388
  478loPI   C3B 7647  15.328   3.078   8.449 -0.3465  0.0589 -0.0252
  478loPI   C4B 7648  15.143   3.394   8.209  0.1240 -0.1960 -0.2807
  479loPI    C1 7649   6.309  17.046   9.541 -0.4054 -0.1861 -0.1728
  479loPI    C2 7650   6.170  17.155   9.900 -0.0966  0.3875 -0.2153
  479loPI    C3 7651   6.548  17.032   9.862 -0.0943  0.4388 -0.3621
  479loPI   PO4 7652   6.170  16.936   9.381 -0.1134  0.1411  0.3311
  479loPI   GL1 7653   6.414  16.822   9.117  0.0849  0.1479  0.0521
  479loPI   GL2 7654   6.580  16.525   9.212 -0.2656  0.0371 -0.2503
  479loPI   C1A 7655   6.480  17.090   8.586  0.0253  0.1006  0.0986
  479loPI   C2A 7656   6.468  17.192   8.190 -0.2980 -0.0505  0.0885
  479loPI   C3A 7657   6.449  17.085   7.791 -0.0804  0.0542 -0.1761
  479loPI   C4A 7658   6.432  17.152   7.376  0.0344 -0.1648  0.4475
  479loPI   C5A 7659   6.557  16.811   7.109  0.0334  0.0479  0.1363
  479loPI   C6A 7660   6.636  16.363   6.898 -0.2485 -0.1965 -0.3067
  479loPI   C1B 7661   6.512  16.482   8.728  0.0291 -0.2639  0.0579
  479loPI   C2B 7662   6.616  16.544   8.232 -0.3517  0.2039 -0.2275
  479loPI   C3B 7663   6.645  16.468   7.874  0.1022  0.2286 -0.2427
  479loPI   C4B 7664   6.824  16.481   7.450  0.1086 -0.3880 -0.0703
  480loPI    C1 7665  12.531  16.158  10.356  0.1077 -0.1184  0.2754
  480loPI    C2 7666  12.372  15.888  10.604 -0.0238 -0.0240  0.2951
  480loPI    C3 7667  12.412  16.268  10.722  0.2141 -0.0456  0.2889
  480loPI   PO4 7668  12.282  16.176  10.172  0.1029  0.2352 -0.0609
  480loPI   GL1 7669  12.174  16.257   9.709 -0.1921  0.0492  0.3722
  480loPI   GL2 7670  12.231  15.842   9.750  0.1609  0.1811  0.1058
  480loPI   C1A 7671  12.013  16.250   9.264 -0.2581 -0.1124  0.1767
  480loPI   C2A 7672  12.045  16.151   8.829 -0.3400 -0.0029  0.1972
  480loPI   C3A 7673  12.152  16.338   8.426 -0.2783  0.1385 -0.0558
  480loPI   C4A 7674  12.240  16.508   8.009 -0.2426 -0.3347 -0.2224
  480loPI   C5A 7675  12.530  16.385   7.788 -0.4034 -0.1087  0.2839
  480loPI   C6A 7676  12.926  16.386   7.818  0.3603  0.2447 -0.3289
  480loPI   C1B 7677  12.339  15.701   9.340  0.2043  0.1969 -0.2631
  480loPI   C2B 7678  12.395  15.694   8.928  0.2965 -0.3115 -0.0306
  480loPI   C3B 7679  12.309  15.715   8.515  0.1553 -0.0383  0.5096
  480loPI   C4B 7680  12.578  15.663   8.163 -0.0826  0.0142 -0.0739
  481loPI    C1 7681  16.005   0.538  10.196  0.2329  0.3664  0.3703
  481loPI    C2 7682  16.355   0.717  10.119  0.1905  0.2193 -0.2131
  481loPI    C3 7683  16.021   0.849   9.944  0.0559 -0.0340 -0.1519
  481loPI   PO4 7684  16.003   0.285  10.141 -0.0582 -0.2546 -0.0879
  481loPI   GL1 7685  16.205   0.118   9.829 -0.0695  0.4211  0.1938
  481loPI   GL2 7686  16.181   0.459   9.712  0.3975  0.1287  0.1328
  481loPI   C1A 7687  16.489   0.077   9.384  0.0337 -0.0284  0.0427
  481loPI   C2A 7688  16.428   0.135   8.939 -0.0340  0.0169  0.0198
  481loPI   C3A 7689  16.473   0.315   8.562 -0.1767  0.1245  0.1328
  481loPI   C4A 7690  16.350   0.106   8.086 -0.1501  0.0734  0.0287
  481loPI   C5A 7691  16.171  -0.057   7.672  0.0219  0.1768 -0.1499
  481loPI   C6A 7692  16.010  -0.533   7.410  0.2084  0.0156 -0.0205
  481loPI   C1B 7693  16.033   0.364   9.318  0.3642  0.0671 -0.3026
  481loPI   C2B 7694  15.672   0.174   8.997  0.0637 -0.2964  0.0175
  481loPI   C3B 7695  15.702   0.199   8.583 -0.2661  0.3320 -0.0337
  481loPI   C4B 7696  15.636   0.085   8.223 -0.2440  0.0511 -0.0652
  482loPI    C1 7697  18.980   9.564  10.234 -0.1171 -0.0492  0.0320
  482loPI    C2 7698  19.244   9.528  10.533  0.0284  0.2517 -0.0565
  482loPI    C3 7699  18.880   9.677  10.605 -0.0264  0.0852  0.0162
  482loPI   PO4 7700  18.933   9.336  10.127  0.3280 -0.1219  0.2896
  482loPI   GL1 7701  19.083   9.234   9.770 -0.0346 -0.4368  0.0802
  482loPI   GL2 7702  18.882   9.377   9.550  0.0926  0.1858  0.1968
  482loPI   C1A 7703  19.232   9.009   9.347  0.1127  0.2507  0.0203
  482loPI   C2A 7704  19.383   8.787   8.980  0.1964  0.2121 -0.1470
  482loPI   C3A 7705  19.665   8.831   8.645 -0.0512 -0.0463 -0.0298
  482loPI   C4A 7706  19.958   8.833   8.407  0.3402  0.1425  0.2260
  482loPI   C5A 7707  20.044   8.621   8.089  0.2442 -0.3612 -0.1137
  482loPI   C6A 7708  20.089   8.363   7.798 -0.2084  0.0411  0.0123
  482loPI   C1B 7709  18.947   9.713   9.109 -0.1036 -0.0491 -0.0858
  482loPI   C2B 7710  19.195   9.820   8.681  0.1308 -0.0697  0.0071
  482loPI   C3B 7711  19.167   9.953   8.212  0.2438 -0.3714  0.2245
  482loPI   C4B 7712  19.189   9.839   7.745  0.2068 -0.0445 -0.2116
  483loPI    C1 7713   7.451   1.657   9.754 -0.0884  0.0073 -0.0586
  483loPI    C2 7714   7.711   1.363   9.830  0.0189  0.1692  0.2147
  483loPI    C3 7715   7.390   1.292   9.603  0.0754 -0.1424  0.2280
  483loPI   PO4 7716   7.556   1.828   9.638 -0.1311  0.0993 -0.0990
  483loPI   GL1 7717   7.633   1.851   9.178 -0.3225  0.0809 -0.0920
  483loPI   GL2 7718   7.339   1.632   9.220 -0.0203  0.0017 -0.1610
  483loPI   C1A 7719   7.537   1.874   8.781 -0.1448  0.1916  0.1488
  483loPI   C2A 7720   7.215   1.881   8.475 -0.3135  0.2847  0.0341
  483loPI   C3A 7721   7.111   1.940   7.977  0.0748 -0.2314  0.2094
  483loPI   C4A 7722   6.824   1.839   7.676 -0.0527  0.2626 -0.1866
  483loPI   C5A 7723   6.822   1.519   7.324  0.4699 -0.0846  0.2264
  483loPI   C6A 7724   6.881   1.093   7.218 -0.0941 -0.1306 -0.2513
  483loPI   C1B 7725   7.170   1.553   8.830  0.2548  0.0209  0.3165
  483loPI   C2B 7726   7.163   1.337   8.441 -0.0880  0.0562  0.1817
  483loPI   C3B 7727   7.324   1.418   8.079  0.0937 -0.0616 -0.1301
  483loPI   C4B 7728   7.625   1.246   7.796  0.1799 -0.1155 -0.1645
  484loPI    C1 7729  11.518   0.253  10.355 -0.1047  0.0895 -0.1913
  484loPI    C2 7730  11.239   0.332  10.630 -0.0449  0.2059 -0.1635
  484loPI    C3 7731  11.385   0.627  10.402  0.0244  0.1381 -0.2073
  484loPI   PO4 7732  11.429  -0.028  10.323  0.1449 -0.0471  0.1982
  484loPI   GL1 7733  11.448  -0.293   9.909  0.0481  0.0170  0.2065
  484loPI   GL2 7734  11.273  -0.630  10.035  0.0248 -0.1850 -0.1097
  484loPI   C1A 7735  11.754  -0.653   9.808  0.0297  0.2353 -0.2140
  484loPI   C2A 7736  11.767  -0.773   9.320 -0.0429  0.1476  0.0601
  484loPI   C3A 7737  11.573  -0.723   8.895  0.0963 -0.4036 -0.2415
  484loPI   C4A 7738  11.524  -0.736   8.481  0.1589  0.1209  0.0224
  484loPI   C5A 7739  11.577  -0.566   8.135  0.1087 -0.3067  0.1250
  484loPI   C6A 7740  11.354  -0.560   7.813  0.2275 -0.1130 -0.1492
  484loPI   C1B 7741  11.307  -0.703   9.595  0.2319 -0.0226  0.0426
  484loPI   C2B 7742  11.246  -0.534   9.259  0.1649  0.2000 -0.2177
  484loPI   C3B 7743  10.961  -0.390   8.897  0.0215 -0.0004 -0.1674
  484loPI   C4B 7744  10.868  -0.224   8.510 -0.1143 -0.0614  0.0524
  485loPI    C1 7745  15.956   7.116   9.692 -0.0479  0.0190 -0.1047
  485loPI    C2 7746  15.966   6.942  10.052 -0.2447 -0.0347 -0.1243
  485loPI    C3 7747  15.732   7.261   9.991 -0.0969  0.0670 -0.1645
  485loPI   PO4 7748  15.990   6.903   9.543  0.2091  0.2393  0.2278
  485loPI   GL1 7749  16.313   6.789   9.305  0.0239 -0.1716  0.1207
  485loPI   GL2 7750  16.511   6.958   9.241 -0.0087 -0.4018  0.3896
  485loPI   C1A 7751  16.369   6.579   8.881  0.2602  0.1496 -0.0896
  485loPI   C2A 7752  16.316   6.357   8.522  0.0254  0.0779  0.3124
  485loPI   C3A 7753  16.512   6.232   8.240 -0.1625  0.0872  0.3464
  485loPI   C4A 7754  16.613   6.091   7.751  0.0758 -0.0926 -0.3574
  485loPI   C5A 7755  17.006   6.227   7.523 -0.0718  0.0244  0.2360
  485loPI   C6A 7756  17.429   6.142   7.280  0.2536  0.2910  0.0875
  485loPI   C1B 7757  16.559   7.050   8.836  0.1247 -0.2685  0.0931
  485loPI   C2B 7758  16.598   6.969   8.357 -0.1012  0.0849  0.3992
  485loPI   C3B 7759  16.739   6.641   8.100 -0.1702  0.2138 -0.2946
  485loPI   C4B 7760  16.961   6.698   7.738 -0.2382  0.0880  0.1369
  486loPI    C1 7761   7.871  13.740   9.780  0.0227 -0.3110  0.1739
  486loPI    C2 7762   7.549  13.732  10.017 -0.1065 -0.0274  0.0127
  486loPI    C3 7763   7.654  13.405   9.812 -0.1674 -0.1842  0.2280
  486loPI   PO4 7764   7.864  14.007   9.655 -0.0860  0.1775 -0.0731
  486loPI   GL1 7765   7.790  13.973   9.284  0.1953 -0.0280  0.1412
  486loPI   GL2 7766   8.050  14.301   9.330 -0.2004 -0.1817 -0.2978
  486loPI   C1A 7767   7.764  13.805   8.819  0.1099 -0.1152  0.1825
  486loPI   C2A 7768   7.805  13.911   8.397  0.2306  0.3362  0.0270
  486loPI   C3A 7769   7.663  13.990   8.003  0.0581  0.3170  0.1030
  486loPI   C4A 7770   7.421  13.897   7.643  0.0687 -0.2658 -0.0134
  486loPI   C5A 7771   7.042  13.803   7.358 -0.0315 -0.1715  0.1333
  486loPI   C6A 7772   6.545  13.829   7.380  0.1689  0.1558 -0.0806
  486loPI   C1B 7773   8.128  14.184   8.979  0.1612  0.1224 -0.1054
  486loPI   C2B 7774   8.007  14.368   8.478  0.0179  0.0385 -0.1144
  486loPI   C3B 7775   8.022  14.508   8.060  0.0993  0.0294 -0.0611
  486loPI   C4B 7776   7.684  14.385   7.664 -0.1133  0.0453  0.0654
  487loPI    C1 7777  11.519   4.313   9.933  0.0274 -0.1525 -0.0007
  487loPI    C2 7778  11.332   3.995  10.087  0.0749 -0.1241  0.1167
  487loPI    C3 7779  11.138   4.342  10.051  0.0873 -0.1096  0.1868
  487loPI   PO4 7780  11.603   4.208   9.678 -0.4497  0.1416  0.0078
  487loPI   GL1 7781  11.456   4.215   9.253  0.0527  0.1237 -0.1314
  487loPI   GL2 7782  11.674   3.870   9.298 -0.3048 -0.2267 -0.1816
  487loPI   C1A 7783  11.340   4.074   8.812  0.1991  0.1960  0.1407
  487loPI   C2A 7784  11.510   4.006   8.346 -0.1849  0.3380 -0.0378
  487loPI   C3A 7785  11.766   4.047   8.034  0.2549  0.2029 -0.2176
  487loPI   C4A 7786  11.985   3.906   7.687  0.0801 -0.0947 -0.0956
  487loPI   C5A 7787  11.960   4.078   7.288 -0.1441 -0.2127  0.0072
  487loPI   C6A 7788  11.661   4.062   7.012  0.1334  0.2381  0.2071
  487loPI   C1B 7789  11.826   3.781   8.852  0.1367  0.3068 -0.1939
  487loPI   C2B 7790  11.833   3.674   8.355  0.2223  0.1023 -0.1510
  487loPI   C3B 7791  11.547   3.566   7.972 -0.1393  0.0967 -0.0478
  487loPI   C4B 7792  11.253   3.485   7.557  0.0760 -0.0663  0.1779
  488loPI    C1 7793   0.203  14.215   9.819  0.2147  0.0326 -0.0453
  488loPI    C2 7794  -0.091  14.351  10.053  0.1733 -0.1408  0.0049
  488loPI    C3 7795   0.275  14.297  10.203  0.2125  0.0001 -0.0380
  488loPI   PO4 7796   0.117  14.405   9.590 -0.2199  0.1581  0.0422
  488loPI   GL1 7797   0.224  14.378   9.146  0.1193 -0.2029  0.0448
  488loPI   GL2 7798   0.139  14.673   9.148 -0.2276  0.3395 -0.1338
  488loPI   C1A 7799   0.250  14.319   8.676  0.0621  0.1425  0.1100
  488loPI   C2A 7800   0.231  14.300   8.243 -0.0279 -0.1571  0.0440
  488loPI   C3A 7801   0.449  14.053   7.960 -0.3952 -0.0055 -0.0926
  488loPI   C4A 7802   0.278  13.967   7.520  0.1006  0.4064 -0.0273
  488loPI   C5A 7803  -0.121  14.097   7.398 -0.2355  0.4533  0.1681
  488loPI   C6A 7804  -0.578  14.087   7.190 -0.3367 -0.1594 -0.0701
  488loPI   C1B 7805   0.003  14.704   8.624  0.1080  0.2175  0.0009
  488loPI   C2B 7806  -0.075  14.682   8.169  0.0171  0.1060 -0.0713
  488loPI   C3B 7807  -0.239  14.466   7.786 -0.1997  0.2895 -0.2812
  488loPI   C4B 7808  -0.229  14.608   7.388 -0.1358  0.0410  0.1082
  489loPI    C1 7809  10.133   7.185   9.674 -0.0470 -0.0644  0.0699
  489loPI    C2 7810  10.072   6.798   9.754  0.1443 -0.0841  0.1248
  489loPI    C3 7811   9.994   7.075  10.032 -0.0433 -0.0782  0.0670
  489loPI   PO4 7812  10.003   7.161   9.357 -0.0412 -0.1106  0.0818
  489loPI   GL1 7813   9.870   7.127   8.933  0.0143 -0.0785 -0.0125
  489loPI   GL2 7814  10.113   6.912   8.926  0.2817  0.3014  0.0397
  489loPI   C1A 7815   9.811   7.064   8.526  0.5570 -0.0290  0.1354
  489loPI   C2A 7816   9.749   7.029   8.085 -0.0473  0.0790 -0.0529
  489loPI   C3A 7817   9.806   6.959   7.588  0.3676 -0.0657  0.1944
  489loPI   C4A 7818   9.988   6.753   7.180  0.1283  0.0804  0.1466
  489loPI   C5A 7819   9.973   6.905   6.714 -0.1524  0.5745 -0.1465
  489loPI   C6A 7820   9.937   6.875   6.255  0.0390 -0.3307  0.0251
  489loPI   C1B 7821  10.225   6.662   8.481 -0.0424 -0.3843 -0.0810
  489loPI   C2B 7822  10.058   6.592   8.125 -0.2864  0.3047 -0.2498
  489loPI   C3B 7823  10.043   6.583   7.808 -0.0993  0.2044 -0.0875
  489loPI   C4B 7824  10.142   6.341   7.424  0.1004 -0.4219  0.4170
  490loPI    C1 7825   0.638  16.413  10.319  0.0356  0.0528 -0.0359
  490loPI    C2 7826   0.291  16.407  10.518  0.0533  0.0669 -0.0047
  490loPI    C3 7827   0.492  16.066  10.456  0.0509  0.0631  0.0073
  490loPI   PO4 7828   0.607  16.526  10.042 -0.3352 -0.2073 -0.3493
  490loPI   GL1 7829   0.538  16.445   9.666 -0.0639 -0.0495 -0.1094
  490loPI   GL2 7830   0.552  16.143   9.612  0.0227  0.1063  0.1943
  490loPI   C1A 7831   0.835  16.569   9.369 -0.4389  0.0777  0.0311
  490loPI   C2A 7832   0.948  16.414   8.980  0.0539 -0.0700  0.1461
  490loPI   C3A 7833   0.822  16.420   8.544 -0.2126  0.1058  0.2179
  490loPI   C4A 7834   0.699  16.298   7.975  0.1040  0.0440  0.2744
  490loPI   C5A 7835   0.609  16.132   7.594 -0.2808  0.0284 -0.1794
  490loPI   C6A 7836   0.305  15.886   7.473 -0.1792 -0.0395 -0.1984
  490loPI   C1B 7837   0.392  16.320   9.188 -0.1138 -0.1456  0.1494
  490loPI   C2B 7838   0.403  16.270   8.767  0.0089 -0.2249 -0.0199
  490loPI   C3B 7839   0.324  16.276   8.342  0.2613  0.0900  0.2465
  490loPI   C4B 7840   0.173  16.128   7.934  0.0235 -0.0719 -0.2876
  491loPI    C1 7841  14.080   9.709   9.436  0.0932  0.0180  0.0160
  491loPI    C2 7842  14.162   9.463   9.741 -0.0856  0.0771  0.1138
  491loPI    C3 7843  14.237   9.855   9.774 -0.0586  0.0764  0.0625
  491loPI   PO4 7844  14.147   9.658   9.256 -0.2682 -0.1039 -0.0076
  491loPI   GL1 7845  14.068   9.552   8.922  0.0123 -0.0279  0.0670
  491loPI   GL2 7846  13.683   9.471   8.984 -0.0030 -0.1290 -0.0708
  491loPI   C1A 7847  13.986   9.575   8.475  0.0010 -0.2216 -0.4181
  491loPI   C2A 7848  13.832   9.744   8.095  0.1559 -0.0185  0.0428
  491loPI   C3A 7849  13.664   9.817   7.763 -0.1766 -0.1755  0.1341
  491loPI   C4A 7850  13.341   9.776   7.616 -0.3444 -0.2701 -0.2375
  491loPI   C5A 7851  13.165   9.577   7.227 -0.0201 -0.1657  0.0880
  491loPI   C6A 7852  13.281   9.415   6.793 -0.0205  0.1661 -0.1520
  491loPI   C1B 7853  13.503   9.459   8.631 -0.1503  0.2342 -0.1910
  491loPI   C2B 7854  13.402   9.214   8.366  0.3970 -0.2872 -0.2814
  491loPI   C3B 7855  13.532   8.761   8.315 -0.3644 -0.1662 -0.2069
  491loPI   C4B 7856  13.460   8.428   8.570  0.1519  0.0419  0.0704
  492loPI    C1 7857   6.631   5.505   9.786 -0.0942  0.0775 -0.0720
  492loPI    C2 7858   6.888   5.448  10.087 -0.0620 -0.1688 -0.1445
  492loPI    C3 7859   6.514   5.569  10.163 -0.0531 -0.2268 -0.0050
  492loPI   PO4 7860   6.703   5.326   9.553  0.2833  0.4163  0.1475
  492loPI   GL1 7861   6.841   5.099   9.190 -0.0686 -0.1031 -0.0139
  492loPI   GL2 7862   7.153   5.002   9.361  0.1865 -0.1135 -0.2551
  492loPI   C1A 7863   6.678   5.306   8.829 -0.0598 -0.0769  0.1117
  492loPI   C2A 7864   6.371   5.266   8.553  0.0436 -0.1560 -0.1288
  492loPI   C3A 7865   6.392   5.257   8.031  0.0587  0.0086 -0.0185
  492loPI   C4A 7866   6.166   5.318   7.658 -0.1403  0.1571  0.0896
  492loPI   C5A 7867   6.155   5.328   7.233  0.0641  0.0756  0.0826
  492loPI   C6A 7868   6.487   5.490   6.894  0.3960 -0.2376  0.2458
  492loPI   C1B 7869   7.313   4.926   8.945  0.1582 -0.0411 -0.0523
  492loPI   C2B 7870   7.508   5.020   8.546  0.3322  0.1681  0.1881
  492loPI   C3B 7871   7.332   5.055   8.142 -0.3395  0.0383  0.1917
  492loPI   C4B 7872   7.269   4.990   7.695 -0.1125 -0.2337  0.0192
  493loPI    C1 7873   6.351  18.404   9.851  0.0481  0.0111 -0.0258
  493loPI    C2 7874   6.000  18.596   9.863  0.0796  0.0693 -0.0342
  493loPI    C3 7875   6.294  18.700  10.114  0.1038  0.0459 -0.0527
  493loPI   PO4 7876   6.269  18.261   9.590 -0.1105 -0.2206  0.0036
  493loPI   GL1 7877   6.447  18.141   9.267 -0.0787  0.3745  0.0226
  493loPI   GL2 7878   6.696  17.879   9.168  0.0132  0.1390 -0.0962
  493loPI   C1A 7879   6.303  18.306   8.873 -0.3121 -0.6979  0.1187
  493loPI   C2A 7880   6.423  18.540   8.578 -0.3664  0.0522  0.2841
  493loPI   C3A 7881   6.339  18.545   8.065 -0.0894 -0.2636  0.3892
  493loPI   C4A 7882   6.501  18.543   7.692  0.0907  0.2027 -0.0716
  493loPI   C5A 7883   6.764  18.765   7.450  0.0453 -0.0568 -0.0667
  493loPI   C6A 7884   6.754  19.030   7.024  0.0418 -0.1629 -0.2663
  493loPI   C1B 7885   6.989  17.673   8.947  0.0222  0.0892  0.1621
  493loPI   C2B 7886   6.952  17.371   8.602 -0.1838  0.2067 -0.0053
  493loPI   C3B 7887   6.951  17.365   8.273 -0.1237 -0.0953  0.0410
  493loPI   C4B 7888   6.924  17.282   7.870 -0.1048  0.1025  0.2214
  494loPI    C1 7889  10.120  11.248   9.639  0.0170 -0.0740 -0.0136
  494loPI    C2 7890   9.826  11.045   9.819  0.0765 -0.0773  0.0811
  494loPI    C3 7891   9.794  11.440   9.768 -0.0227 -0.1036 -0.0689
  494loPI   PO4 7892  10.272  11.071   9.501 -0.1384 -0.1203 -0.0219
  494loPI   GL1 7893  10.576  11.043   9.253  0.1537  0.1595  0.0829
  494loPI   GL2 7894  10.528  11.302   9.076  0.1074 -0.0948 -0.0929
  494loPI   C1A 7895  10.714  10.909   8.855 -0.0374 -0.0209  0.3799
  494loPI   C2A 7896  10.833  10.879   8.376 -0.1293 -0.1675  0.0533
  494loPI   C3A 7897  10.947  10.946   7.972  0.1512  0.1105  0.3150
  494loPI   C4A 7898  11.130  10.844   7.525  0.1547  0.1343 -0.0934
  494loPI   C5A 7899  11.454  10.670   7.233 -0.0761  0.0066  0.1866
  494loPI   C6A 7900  11.782  10.718   6.902  0.0612 -0.1194 -0.0896
  494loPI   C1B 7901  10.370  11.167   8.634 -0.2587  0.1402  0.1824
  494loPI   C2B 7902  10.457  11.148   8.258  0.0024 -0.0490 -0.1744
  494loPI   C3B 7903  10.701  11.375   8.028 -0.1350  0.2628 -0.3379
  494loPI   C4B 7904  10.823  11.358   7.530  0.1565 -0.2840  0.0771
  495loPI    C1 7905   5.447   2.689   9.885  0.0419  0.1784  0.0241
  495loPI    C2 7906   5.807   2.757  10.048  0.1777 -0.2229 -0.0965
  495loPI    C3 7907   5.627   2.403  10.100 -0.1065 -0.0990 -0.2139
  495loPI   PO4 7908   5.478   2.669   9.614  0.2394 -0.0678  0.1613
  495loPI   GL1 7909   5.407   3.003   9.240 -0.0463  0.4617  0.0859
  495loPI   GL2 7910   5.479   3.271   9.005  0.1448  0.1166  0.5005
  495loPI   C1A 7911   5.353   2.887   8.783  0.1086 -0.2524  0.1053
  495loPI   C2A 7912   5.294   2.870   8.249  0.0850  0.4423  0.0601
  495loPI   C3A 7913   5.424   2.566   7.921 -0.0209  0.0923  0.2922
  495loPI   C4A 7914   5.387   2.102   7.725  0.2628  0.0954  0.1612
  495loPI   C5A 7915   5.550   1.980   7.335  0.0449 -0.2419  0.1804
  495loPI   C6A 7916   5.599   1.609   6.926 -0.0739 -0.2901 -0.3847
  495loPI   C1B 7917   5.540   3.307   8.578  0.2887  0.0068 -0.1700
  495loPI   C2B 7918   5.666   3.181   8.160  0.0440  0.1876 -0.4177
  495loPI   C3B 7919   5.655   2.934   7.724  0.0073  0.3177 -0.1304
  495loPI   C4B 7920   5.295   2.746   7.492  0.3783  0.1127  0.0303
  496loPI    C1 7921   8.359   6.850   9.811  0.0855 -0.0414 -0.0311
  496loPI    C2 7922   8.590   6.590  10.009  0.0445  0.1321  0.2497
  496loPI    C3 7923   8.233   6.695  10.157 -0.0838  0.0981 -0.0287
  496loPI   PO4 7924   8.308   6.780   9.487  0.1181 -0.0820  0.1185
  496loPI   GL1 7925   8.245   6.726   9.004  0.0378  0.1261 -0.3800
  496loPI   GL2 7926   8.137   6.431   8.997  0.2353 -0.1618  0.1648
  496loPI   C1A 7927   8.292   6.713   8.577 -0.2353 -0.1799 -0.0612
  496loPI   C2A 7928   8.324   6.642   8.160 -0.2933 -0.1030 -0.1403
  496loPI   C3A 7929   8.158   6.501   7.749  0.0336 -0.2696  0.1991
  496loPI   C4A 7930   7.890   6.475   7.397 -0.1541 -0.2936 -0.1980
  496loPI   C5A 7931   7.739   6.299   7.140 -0.3209  0.1431  0.0823
  496loPI   C6A 7932   7.401   6.239   6.799 -0.0914  0.1090 -0.0382
  496loPI   C1B 7933   8.358   6.226   8.610 -0.0019 -0.1105 -0.3249
  496loPI   C2B 7934   8.256   6.088   8.132  0.1241 -0.4872  0.1332
  496loPI   C3B 7935   8.255   5.928   7.672  0.3318 -0.1190  0.2449
  496loPI   C4B 7936   8.167   6.080   7.347 -0.1845 -0.1079 -0.3148
  497loPI    C1 7937   6.351   3.078   9.781  0.1670 -0.1936 -0.0373
  497loPI    C2 7938   6.213   3.045  10.154  0.2516  0.0794  0.0202
  497loPI    C3 7939   6.123   3.367   9.935  0.1691 -0.0980 -0.2104
  497loPI   PO4 7940   6.282   2.856   9.699  0.1913 -0.2792 -0.1212
  497loPI   GL1 7941   6.164   2.805   9.350 -0.0597  0.2495  0.1338
  497loPI   GL2 7942   6.401   2.559   9.258 -0.2752 -0.2843  0.3246
  497loPI   C1A 7943   5.830   2.842   8.971  0.3093 -0.3472 -0.0346
  497loPI   C2A 7944   5.795   2.856   8.555 -0.2794 -0.1955 -0.1271
  497loPI   C3A 7945   5.924   2.775   8.128  0.1998  0.0174  0.2188
  497loPI   C4A 7946   6.156   2.604   7.739 -0.1321  0.2053  0.0622
  497loPI   C5A 7947   6.243   2.601   7.333 -0.1972 -0.1305 -0.3612
  497loPI   C6A 7948   6.486   2.729   6.968 -0.1708 -0.0586  0.2151
  497loPI   C1B 7949   6.419   2.267   8.928  0.0113  0.0700 -0.0125
  497loPI   C2B 7950   6.661   1.975   8.707  0.2532  0.1270 -0.1077
  497loPI   C3B 7951   6.685   1.528   8.720  0.1156 -0.2796  0.1461
  497loPI   C4B 7952   6.579   1.238   8.518 -0.1270 -0.0213 -0.1154
  498loPI    C1 7953  14.144   0.612  10.218 -0.1342  0.2625 -0.0272
  498loPI    C2 7954  14.073   0.254  10.382  0.0072  0.1939 -0.1133
  498loPI    C3 7955  14.194   0.558  10.611 -0.3355  0.2509 -0.0023
  498loPI   PO4 7956  13.994   0.695  10.026  0.1290 -0.0204  0.0484
  498loPI   GL1 7957  14.196   0.961   9.612 -0.2049  0.0349 -0.1177
  498loPI   GL2 7958  14.199   1.269   9.402 -0.0578  0.0045  0.1517
  498loPI   C1A 7959  14.351   0.784   9.166  0.0230  0.0296  0.0331
  498loPI   C2A 7960  14.291   0.740   8.708 -0.0363  0.1690  0.0175
  498loPI   C3A 7961  14.096   0.838   8.287  0.0578  0.3989 -0.1844
  498loPI   C4A 7962  13.952   0.823   7.848 -0.0390  0.0679 -0.3080
  498loPI   C5A 7963  14.129   1.085   7.483  0.0740 -0.0811 -0.1850
  498loPI   C6A 7964  14.290   1.531   7.273  0.1510 -0.2643  0.2188
  498loPI   C1B 7965  14.099   1.246   8.935 -0.0044  0.3463  0.1208
  498loPI   C2B 7966  14.276   1.234   8.526  0.1974  0.0989  0.3889
  498loPI   C3B 7967  14.346   1.181   7.985  0.2436 -0.0593 -0.0321
  498loPI   C4B 7968  14.684   1.134   7.651  0.2811  0.1327  0.2892
  499loPI    C1 7969  14.634   4.495   9.891 -0.1901  0.1285  0.0947
  499loPI    C2 7970  14.799   4.182  10.077 -0.0807  0.1417  0.0213
  499loPI    C3 7971  14.713   4.515  10.282 -0.1559  0.0805  0.0902
  499loPI   PO4 7972  14.547   4.469   9.666  0.1280  0.2900 -0.1311
  499loPI   GL1 7973  14.538   4.017   9.538 -0.1333  0.1857 -0.2675
  499loPI   GL2 7974  14.777   4.078   9.498 -0.1700 -0.1815 -0.0686
  499loPI   C1A 7975  14.590   3.560   9.483  0.0280 -0.4829 -0.1510
  499loPI   C2A 7976  14.490   3.350   9.058 -0.2206 -0.0887 -0.0151
  499loPI   C3A 7977  14.450   3.155   8.675  0.0891  0.1694 -0.0417
  499loPI   C4A 7978  14.453   3.177   8.180 -0.0576  0.5293  0.1158
  499loPI   C5A 7979  14.428   3.310   7.837 -0.1470 -0.1134 -0.0058
  499loPI   C6A 7980  14.587   3.530   7.564 -0.1519  0.0304 -0.0960
  499loPI   C1B 7981  15.006   4.452   9.305 -0.1536  0.0026 -0.0047
  499loPI   C2B 7982  15.150   4.796   9.016 -0.0080 -0.2411 -0.1552
  499loPI   C3B 7983  15.074   4.633   8.615 -0.2519  0.1190 -0.0116
  499loPI   C4B 7984  14.861   4.602   8.175 -0.0762  0.0329 -0.1776
  500loPI    C1 7985  11.007   7.639   9.785  0.1067  0.1059 -0.0629
  500loPI    C2 7986  10.999   7.298   9.576 -0.0672  0.1548 -0.1383
  500loPI    C3 7987  10.940   7.292   9.972 -0.0134  0.0921 -0.1309
  500loPI   PO4 7988  11.291   7.730   9.509  0.0561  0.0695 -0.1434
  500loPI   GL1 7989  11.283   7.788   9.060 -0.0289 -0.0208 -0.0439
  500loPI   GL2 7990  10.954   7.791   8.944 -0.0337 -0.0909  0.4753
  500loPI   C1A 7991  11.335   7.681   8.568 -0.1308  0.2342  0.0515
  500loPI   C2A 7992  11.559   7.727   8.216 -0.1400 -0.1636 -0.1163
  500loPI   C3A 7993  11.713   7.773   7.796  0.1036  0.0363  0.0033
  500loPI   C4A 7994  11.860   7.647   7.413  0.1444  0.0539  0.0729
  500loPI   C5A 7995  11.983   7.432   7.034  0.0403 -0.0616  0.2715
  500loPI   C6A 7996  12.032   7.020   6.831  0.0034 -0.1537 -0.0843
  500loPI   C1B 7997  10.971   8.013   8.522 -0.0696 -0.2930 -0.2087
  500loPI   C2B 7998  11.077   8.042   8.108 -0.3625 -0.0800  0.2609
  500loPI   C3B 7999  11.145   7.711   7.801 -0.0727 -0.1220 -0.0945
  500loPI   C4B 8000  11.413   7.431   7.556  0.2317  0.1890 -0.1151
  501loPI    C1 8001   1.329   4.984   9.864 -0.1130 -0.0738 -0.1827
  501loPI    C2 8002   1.225   5.291   9.630  0.0274  0.0148 -0.1305
  501loPI    C3 8003   1.316   5.355  10.014  0.3593 -0.0455 -0.1960
  501loPI   PO4 8004   1.143   4.835   9.750 -0.4456  0.0624  0.2583
  501loPI   GL1 8005   1.033   4.590   9.297  0.1056 -0.2548  0.3596
  501loPI   GL2 8006   0.649   4.741   9.242  0.0754 -0.1062  0.2250
  501loPI   C1A 8007   0.947   4.669   8.858 -0.0451  0.2350 -0.0551
  501loPI   C2A 8008   0.856   4.816   8.481  0.0529  0.0206  0.0333
  501loPI   C3A 8009   0.808   4.930   8.127  0.0143  0.0847  0.1057
  501loPI   C4A 8010   0.804   5.024   7.642  0.0551  0.3669  0.0996
  501loPI   C5A 8011   0.532   5.309   7.260 -0.2027  0.0676  0.0153
  501loPI   C6A 8012   0.358   5.345   6.915  0.4249 -0.0407 -0.1522
  501loPI   C1B 8013   0.426   4.805   8.842 -0.3429 -0.3114 -0.0185
  501loPI   C2B 8014   0.353   4.855   8.466 -0.0976  0.2137  0.2453
  501loPI   C3B 8015   0.341   4.959   8.001  0.0864 -0.2484 -0.3156
  501loPI   C4B 8016   0.380   4.873   7.538 -0.3360  0.3402 -0.0999
  502loPI    C1 8017   3.913   8.561   9.896 -0.0977  0.1443 -0.0661
  502loPI    C2 8018   4.216   8.370  10.075 -0.1100  0.0315 -0.1649
  502loPI    C3 8019   4.270   8.738   9.928 -0.1118  0.1429  0.1089
  502loPI   PO4 8020   3.805   8.394   9.739 -0.1212  0.1064 -0.0051
  502loPI   GL1 8021   3.796   8.243   9.265  0.0714  0.0099  0.0780
  502loPI   GL2 8022   3.959   8.123   9.054  0.2520  0.2776 -0.1062
  502loPI   C1A 8023   3.430   8.317   9.012  0.2489 -0.0211 -0.2120
  502loPI   C2A 8024   3.232   8.450   8.553  0.1140 -0.1487  0.3622
  502loPI   C3A 8025   3.319   8.200   8.146 -0.3749  0.2858  0.1433
  502loPI   C4A 8026   3.436   8.102   7.748 -0.3961  0.0627  0.2343
  502loPI   C5A 8027   3.237   8.254   7.368 -0.0143 -0.2483  0.1575
  502loPI   C6A 8028   2.958   8.447   7.063  0.0969  0.1994  0.0482
  502loPI   C1B 8029   3.809   8.371   8.661  0.1091 -0.1675  0.1463
  502loPI   C2B 8030   3.800   8.271   8.248 -0.1056 -0.1434 -0.0783
  502loPI   C3B 8031   3.850   8.385   7.824 -0.1393  0.1398  0.0067
  502loPI   C4B 8032   3.627   8.527   7.448 -0.0024  0.2624  0.4007
  503loPI    C1 8033  18.066   6.777   9.794  0.2328  0.5033  0.0417
  503loPI    C2 8034  18.378   6.637  10.003  0.0680  0.0050 -0.0320
  503loPI    C3 8035  18.139   6.917  10.161  0.3618  0.1567  0.1518
  503loPI   PO4 8036  18.198   6.827   9.453 -0.0532  0.1788 -0.2502
  503loPI   GL1 8037  18.341   7.082   9.085  0.0113  0.3485  0.2696
  503loPI   GL2 8038  18.776   7.042   9.214 -0.2056  0.0548  0.0072
  503loPI   C1A 8039  18.530   6.970   8.636  0.0092 -0.0130  0.0805
  503loPI   C2A 8040  18.579   6.879   8.225 -0.0047 -0.1124  0.0759
  503loPI   C3A 8041  18.200   6.789   8.067  0.1307  0.0741 -0.0036
  503loPI   C4A 8042  18.101   6.589   7.616  0.2452  0.0992 -0.0623
  503loPI   C5A 8043  18.353   6.373   7.373 -0.1082 -0.0852 -0.1113
  503loPI   C6A 8044  18.503   5.984   7.353 -0.1436  0.1198 -0.2746
  503loPI   C1B 8045  18.628   6.605   8.965  0.0649  0.1371  0.1658
  503loPI   C2B 8046  18.251   6.527   8.717  0.2801  0.2053  0.0057
  503loPI   C3B 8047  17.923   6.394   8.495 -0.1366 -0.1824  0.5349
  503loPI   C4B 8048  17.904   6.298   7.984  0.3606  0.0372  0.0091
  504loPI    C1 8049   9.229   7.956   9.672 -0.0485 -0.2313  0.0747
  504loPI    C2 8050   9.538   8.027   9.916 -0.0034  0.1323 -0.0819
  504loPI    C3 8051   9.251   7.772  10.027  0.1740  0.0566  0.2152
  504loPI   PO4 8052   9.297   7.951   9.447  0.1033  0.1794  0.4398
  504loPI   GL1 8053   9.468   7.988   9.038 -0.2398  0.3453 -0.2286
  504loPI   GL2 8054   9.251   8.235   9.010  0.1366  0.1983 -0.0440
  504loPI   C1A 8055   9.558   7.967   8.607 -0.1202 -0.1028  0.0107
  504loPI   C2A 8056   9.545   7.907   8.196 -0.2397  0.0842 -0.0352
  504loPI   C3A 8057   9.614   7.902   7.818  0.0646 -0.0016  0.0321
  504loPI   C4A 8058   9.678   8.027   7.473  0.0642  0.0148  0.1168
  504loPI   C5A 8059   9.723   7.743   7.063 -0.2571 -0.1909  0.1967
  504loPI   C6A 8060   9.804   7.221   7.035  0.0603 -0.1324 -0.2779
  504loPI   C1B 8061   9.184   8.254   8.485 -0.0878 -0.0566 -0.1697
  504loPI   C2B 8062   9.223   8.299   7.988  0.2094 -0.2394 -0.0501
  504loPI   C3B 8063   9.246   8.292   7.501  0.0536  0.0392  0.3249
  504loPI   C4B 8064   9.259   8.443   7.009 -0.2784 -0.2526 -0.0667
  505loPI    C1 8065  12.691  12.999   9.658  0.0455  0.0404  0.1449
  505loPI    C2 8066  12.525  13.358   9.716 -0.1604 -0.0330  0.0228
  505loPI    C3 8067  12.521  13.085  10.009 -0.1310  0.0142  0.0672
  505loPI   PO4 8068  12.571  12.938   9.463  0.1233 -0.0832  0.0276
  505loPI   GL1 8069  12.542  12.703   9.094 -0.0251  0.0152  0.0102
  505loPI   GL2 8070  12.696  12.346   8.979  0.2811 -0.0432  0.0109
  505loPI   C1A 8071  12.386  12.897   8.689 -0.1251 -0.1451 -0.2918
  505loPI   C2A 8072  12.453  12.912   8.306  0.1071  0.1466  0.1448
  505loPI   C3A 8073  12.605  12.924   7.885  0.0025  0.2640 -0.1549
  505loPI   C4A 8074  12.489  12.869   7.574 -0.0143 -0.2106 -0.0513
  505loPI   C5A 8075  12.548  12.954   7.211  0.2092 -0.2747 -0.3996
  505loPI   C6A 8076  12.709  12.917   6.868 -0.1916 -0.0569  0.3197
  505loPI   C1B 8077  12.630  12.428   8.571  0.0859  0.0268  0.0445
  505loPI   C2B 8078  12.583  12.283   8.215  0.1854 -0.3344  0.0209
  505loPI   C3B 8079  12.581  12.391   7.735  0.1077 -0.0091  0.2301
  505loPI   C4B 8080  12.642  12.410   7.267 -0.0581 -0.1719  0.3681
  506loPI    C1 8081   8.153  15.547   9.946 -0.0639 -0.1595 -0.2799
  506loPI    C2 8082   8.310  15.283   9.689  0.2907 -0.2884  0.0598
  506loPI    C3 8083   8.354  15.230  10.084 -0.1840 -0.0545  0.1513
  506loPI   PO4 8084   8.139  15.762   9.880  0.1529 -0.2586 -0.2750
  506loPI   GL1 8085   8.031  16.069   9.531  0.1174 -0.3727 -0.2504
  506loPI   GL2 8086   7.833  15.922   9.366 -0.3331  0.0301 -0.0024
  506loPI   C1A 8087   8.317  16.127   9.173 -0.0751  0.2797  0.1350
  506loPI   C2A 8088   8.429  16.368   8.824  0.1765 -0.0141  0.0533
  506loPI   C3A 8089   8.584  16.476   8.383  0.1391 -0.3531 -0.0235
  506loPI   C4A 8090   8.944  16.712   8.165  0.1600 -0.1568  0.0154
  506loPI   C5A 8091   8.965  16.977   7.779 -0.1495 -0.1793  0.0401
  506loPI   C6A 8092   8.737  16.975   7.344  0.0721 -0.1378  0.0574
  506loPI   C1B 8093   7.943  15.879   8.875 -0.1193 -0.0549  0.3302
  506loPI   C2B 8094   7.947  15.722   8.440 -0.1011  0.0250 -0.2938
  506loPI   C3B 8095   7.879  15.754   8.014 -0.1436  0.2139  0.0927
  506loPI   C4B 8096   8.274  15.806   7.809 -0.1187  0.2260 -0.2243
  507loPI    C1 8097   7.335  15.492  10.155 -0.2261  0.2520 -0.1859
  507loPI    C2 8098   7.337  15.117  10.293  0.1534  0.2732 -0.1218
  507loPI    C3 8099   6.992  15.317  10.262 -0.0716 -0.1293 -0.2976
  507loPI   PO4 8100   7.414  15.452   9.936  0.0430 -0.1065 -0.2196
  507loPI   GL1 8101   7.337  15.538   9.517 -0.1137 -0.2429 -0.2609
  507loPI   GL2 8102   7.047  15.377   9.285 -0.1458  0.1293  0.3420
  507loPI   C1A 8103   7.489  15.637   9.128 -0.1981  0.3732  0.0321
  507loPI   C2A 8104   7.491  15.556   8.619 -0.0287 -0.1770  0.0098
  507loPI   C3A 8105   7.608  15.410   8.215 -0.2171 -0.0667 -0.1514
  507loPI   C4A 8106   7.620  15.463   7.704 -0.0181 -0.0994 -0.0016
  507loPI   C5A 8107   7.595  15.378   7.244 -0.0970  0.0751  0.4896
  507loPI   C6A 8108   7.799  15.154   6.955  0.0085 -0.2601 -0.1227
  507loPI   C1B 8109   7.076  15.295   8.814 -0.0901  0.2125 -0.1669
  507loPI   C2B 8110   7.062  15.180   8.397  0.0932 -0.3258  0.1645
  507loPI   C3B 8111   7.119  15.179   7.943 -0.1532  0.3543  0.3174
  507loPI   C4B 8112   7.155  15.401   7.502 -0.2351  0.1482  0.0125
  508loPI    C1 8113  19.235   6.191   9.861 -0.0150 -0.2330 -0.1236
  508loPI    C2 8114  19.462   6.446  10.070 -0.0113 -0.0090 -0.3948
  508loPI    C3 8115  19.067   6.437  10.129  0.0002 -0.0096 -0.3161
  508loPI   PO4 8116  19.386   6.089   9.608  0.2594  0.2701 -0.2915
  508loPI   GL1 8117  19.370   6.188   9.166  0.0908  0.2554 -0.3116
  508loPI   GL2 8118  19.639   6.319   9.137 -0.1726  0.0714 -0.2080
  508loPI   C1A 8119  19.272   6.105   8.812  0.0934  0.3106 -0.1059
  508loPI   C2A 8120  19.051   6.045   8.475  0.0917 -0.3110 -0.0383
  508loPI   C3A 8121  18.756   5.960   8.146  0.0433 -0.2069  0.1614
  508loPI   C4A 8122  18.780   5.687   7.812  0.1013  0.0935  0.2276
  508loPI   C5A 8123  18.993   5.403   7.600 -0.2015  0.1693  0.1223
  508loPI   C6A 8124  19.305   5.244   7.278  0.3319  0.3998 -0.0846
  508loPI   C1B 8125  19.808   6.184   8.717  0.0471 -0.3172 -0.1769
  508loPI   C2B 8126  19.935   5.932   8.430 -0.0102 -0.1792  0.0111
  508loPI   C3B 8127  20.267   5.762   8.162 -0.1737  0.1190  0.0630
  508loPI   C4B 8128  20.439   5.881   7.731  0.3310 -0.0109 -0.0359
  509loPI    C1 8129   2.248   8.975  10.123  0.0072  0.1116 -0.2100
  509loPI    C2 8130   2.436   9.306  10.247  0.3247 -0.1194 -0.0585
  509loPI    C3 8131   2.268   9.059  10.514 -0.1718  0.0636 -0.1896
  509loPI   PO4 8132   2.094   9.103   9.881 -0.3336 -0.1634 -0.2213
  509loPI   GL1 8133   1.804   9.030   9.455  0.1731 -0.1247 -0.1014
  509loPI   GL2 8134   1.539   9.037   9.216 -0.0190 -0.0976  0.4169
  509loPI   C1A 8135   1.984   9.005   9.052 -0.0667  0.1386 -0.0020
  509loPI   C2A 8136   1.961   9.144   8.560  0.1087  0.3064  0.1772
  509loPI   C3A 8137   1.884   9.252   8.043 -0.2223  0.2942  0.2367
  509loPI   C4A 8138   1.795   9.328   7.610  0.0840 -0.1255  0.0092
  509loPI   C5A 8139   1.668   9.446   7.149 -0.2135 -0.0609 -0.0775
  509loPI   C6A 8140   1.398   9.440   6.775 -0.1126 -0.0805  0.2451
  509loPI   C1B 8141   1.527   8.990   8.816 -0.1206 -0.0893  0.2059
  509loPI   C2B 8142   1.560   8.830   8.393  0.1994  0.0648  0.1029
  509loPI   C3B 8143   1.601   8.825   7.912 -0.0838  0.0970 -0.1758
  509loPI   C4B 8144   1.418   9.016   7.557  0.0311  0.0268  0.1166
  510loPI    C1 8145   9.533  13.126   9.544  0.2213 -0.2441 -0.0545
  510loPI    C2 8146   9.665  13.486   9.657  0.1856 -0.1463 -0.3172
  510loPI    C3 8147   9.908  13.169   9.677  0.1449 -0.1557  0.1359
  510loPI   PO4 8148   9.459  13.160   9.298  0.1842 -0.1061  0.3867
  510loPI   GL1 8149   9.271  12.913   8.937 -0.1282 -0.0133  0.0497
  510loPI   GL2 8150   9.241  12.599   9.068 -0.0898  0.2676  0.0255
  510loPI   C1A 8151   9.050  13.029   8.556 -0.2376 -0.0928  0.0855
  510loPI   C2A 8152   9.105  12.942   8.162  0.1537 -0.3322 -0.0060
  510loPI   C3A 8153   9.356  13.013   7.737  0.1630  0.2498 -0.1576
  510loPI   C4A 8154   9.837  12.956   7.657  0.0058 -0.1660  0.0710
  510loPI   C5A 8155  10.266  13.025   7.593 -0.0169  0.0291 -0.0247
  510loPI   C6A 8156  10.428  13.004   7.118  0.0082  0.0070 -0.1276
  510loPI   C1B 8157   9.352  12.571   8.569  0.0953 -0.2385  0.4599
  510loPI   C2B 8158   9.083  12.448   8.267 -0.6723  0.0483  0.3086
  510loPI   C3B 8159   9.170  12.423   7.870  0.1554  0.0082  0.1756
  510loPI   C4B 8160   9.071  12.444   7.458  0.3229  0.0692  0.1525
  511loPI    C1 8161   4.650  11.748   9.822  0.0180  0.2082  0.0290
  511loPI    C2 8162   4.363  11.645  10.081  0.0606  0.1966  0.0719
  511loPI    C3 8163   4.671  11.870  10.203  0.1765  0.0370  0.0768
  511loPI   PO4 8164   4.652  11.493   9.669  0.2469  0.2484  0.0092
  511loPI   GL1 8165   4.866  11.524   9.316 -0.2411  0.3502  0.0003
  511loPI   GL2 8166   5.191  11.707   9.331  0.2460  0.0405  0.2691
  511loPI   C1A 8167   4.887  11.766   8.876  0.0724 -0.1701 -0.0874
  511loPI   C2A 8168   4.615  11.565   8.548 -0.2597 -0.0594  0.1562
  511loPI   C3A 8169   4.425  11.539   8.081 -0.0685 -0.2812 -0.1216
  511loPI   C4A 8170   4.333  11.222   7.823 -0.1437  0.0070  0.0806
  511loPI   C5A 8171   4.175  10.931   7.564 -0.2410 -0.2625 -0.3332
  511loPI   C6A 8172   3.949  10.666   7.382 -0.0005  0.0993  0.1248
  511loPI   C1B 8173   5.363  11.665   8.927 -0.1897  0.2695  0.0188
  511loPI   C2B 8174   5.277  11.560   8.521  0.0494 -0.0088 -0.1612
  511loPI   C3B 8175   5.349  11.800   8.168 -0.1303 -0.0084  0.0678
  511loPI   C4B 8176   5.160  11.923   7.827  0.2274  0.0712 -0.1500
  512loPI    C1 8177  18.028  14.748   9.930 -0.2173  0.3194  0.0903
  512loPI    C2 8178  17.878  14.462  10.166  0.2663 -0.0835 -0.0742
  512loPI    C3 8179  18.224  14.639  10.261  0.1409  0.2096 -0.1523
  512loPI   PO4 8180  17.980  14.694   9.734  0.0323 -0.0850  0.1158
  512loPI   GL1 8181  17.886  15.021   9.467  0.0508 -0.0706  0.2880
  512loPI   GL2 8182  17.683  14.711   9.328  0.0191  0.0435  0.5422
  512loPI   C1A 8183  17.974  15.220   9.125  0.2133 -0.0408 -0.0599
  512loPI   C2A 8184  17.879  15.422   8.709 -0.0169 -0.1074  0.0560
  512loPI   C3A 8185  18.038  15.525   8.199  0.0929  0.1868 -0.2056
  512loPI   C4A 8186  17.989  15.698   7.863 -0.0628 -0.1625 -0.0673
  512loPI   C5A 8187  17.670  15.948   7.504  0.5465  0.3545 -0.0604
  512loPI   C6A 8188  17.280  16.186   7.527  0.1460  0.1946 -0.0395
  512loPI   C1B 8189  17.572  14.670   8.898 -0.0614 -0.2362  0.0803
  512loPI   C2B 8190  17.441  14.528   8.658 -0.3637  0.0391  0.0677
  512loPI   C3B 8191  17.234  14.285   8.291  0.0559 -0.2420 -0.1297
  512loPI   C4B 8192  17.324  13.960   7.977 -0.2946  0.0462 -0.3218
  513loPI    C1 8193  16.326  17.794  10.471  0.2614  0.0837 -0.0519
  513loPI    C2 8194  16.161  17.485  10.277 -0.0041  0.1497  0.0641
  513loPI    C3 8195  16.554  17.487  10.353  0.0522 -0.0138 -0.2087
  513loPI   PO4 8196  16.304  17.983  10.352  0.3527  0.1358  0.0321
  513loPI   GL1 8197  16.064  18.018  10.021  0.0760  0.4626  0.0478
  513loPI   GL2 8198  15.883  17.990   9.825 -0.3259  0.0276  0.1480
  513loPI   C1A 8199  16.265  17.660   9.768 -0.1231  0.4329  0.0604
  513loPI   C2A 8200  16.298  17.629   9.308  0.1740 -0.0482 -0.0077
  513loPI   C3A 8201  15.942  17.555   9.010  0.0975  0.1481 -0.0352
  513loPI   C4A 8202  15.801  17.779   8.661 -0.0342  0.1088 -0.2431
  513loPI   C5A 8203  15.773  17.675   8.198 -0.1996 -0.1512 -0.1517
  513loPI   C6A 8204  16.048  17.951   8.003 -0.1618 -0.0793 -0.1487
  513loPI   C1B 8205  15.983  17.980   9.357 -0.3233  0.2718 -0.3258
  513loPI   C2B 8206  15.949  18.177   8.988  0.1161  0.1245 -0.1269
  513loPI   C3B 8207  15.785  18.248   8.644  0.3748  0.1660  0.1722
  513loPI   C4B 8208  15.450  18.419   8.540  0.3028 -0.0036  0.0916
  514loPI    C1 8209   1.173  14.038   9.877 -0.1496  0.2108  0.2260
  514loPI    C2 8210   1.290  13.798  10.174 -0.1167  0.0246  0.0651
  514loPI    C3 8211   1.195  13.643   9.818 -0.3054  0.2305  0.0239
  514loPI   PO4 8212   1.464  14.164   9.802  0.0809  0.1019  0.0612
  514loPI   GL1 8213   1.544  14.177   9.327 -0.0696  0.0323  0.0168
  514loPI   GL2 8214   1.408  13.907   9.400 -0.0046 -0.0784 -0.0669
  514loPI   C1A 8215   1.487  14.249   8.850  0.1463  0.2342  0.0085
  514loPI   C2A 8216   1.668  14.271   8.464  0.1431  0.3357  0.1609
  514loPI   C3A 8217   2.015  14.190   8.271  0.1842 -0.0731  0.1506
  514loPI   C4A 8218   2.227  14.490   8.122 -0.1344  0.1450  0.1688
  514loPI   C5A 8219   2.252  14.617   7.671 -0.0095  0.1806 -0.1152
  514loPI   C6A 8220   2.429  15.007   7.539  0.0812 -0.0060  0.1155
  514loPI   C1B 8221   1.421  13.739   9.091 -0.3558 -0.3276 -0.0641
  514loPI   C2B 8222   1.381  13.675   8.662 -0.2051 -0.1879  0.1677
  514loPI   C3B 8223   1.538  13.856   8.321  0.1482 -0.2098  0.0440
  514loPI   C4B 8224   1.597  13.936   7.929 -0.0879 -0.0377 -0.1374
  515loPI    C1 8225   2.495  10.025   9.845 -0.1545  0.0125  0.0926
  515loPI    C2 8226   2.680   9.755   9.615 -0.0605  0.0133  0.1670
  515loPI    C3 8227   2.663   9.703  10.012 -0.1514  0.0530  0.1685
  515loPI   PO4 8228   2.288  10.080   9.674 -0.1370  0.0716  0.2723
  515loPI   GL1 8229   2.331   9.838   9.252  0.0294 -0.1617 -0.0425
  515loPI   GL2 8230   2.406  10.186   9.151  0.0744 -0.0105  0.0066
  515loPI   C1A 8231   2.424   9.960   8.732 -0.1733  0.2075 -0.1572
  515loPI   C2A 8232   2.515  10.244   8.417 -0.1297 -0.0536  0.1277
  515loPI   C3A 8233   2.697  10.570   8.149 -0.2699 -0.1722  0.1695
  515loPI   C4A 8234   2.720  10.585   7.661  0.0672  0.0707  0.0553
  515loPI   C5A 8235   3.119  10.416   7.359  0.2583 -0.0821  0.1740
  515loPI   C6A 8236   3.069  10.301   6.919 -0.1428 -0.1296 -0.4351
  515loPI   C1B 8237   2.859   9.948   9.164 -0.0991 -0.2402  0.1115
  515loPI   C2B 8238   3.101   9.739   8.905  0.0830 -0.2238 -0.0845
  515loPI   C3B 8239   3.126   9.672   8.401  0.2232 -0.0151 -0.1181
  515loPI   C4B 8240   3.167   9.672   7.980 -0.1240  0.3154 -0.0105
  516loPI    C1 8241   4.853   7.048  10.043  0.1011 -0.2533 -0.1399
  516loPI    C2 8242   4.734   6.777  10.311 -0.3056 -0.0236 -0.0806
  516loPI    C3 8243   4.874   7.131  10.433 -0.0823 -0.0816 -0.1648
  516loPI   PO4 8244   4.774   6.989   9.845  0.0798 -0.2797  0.1385
  516loPI   GL1 8245   4.912   7.294   9.486  0.1417  0.2251  0.0143
  516loPI   GL2 8246   4.564   7.282   9.494 -0.0186  0.2033 -0.0636
  516loPI   C1A 8247   4.918   7.042   9.179 -0.3531  0.0592 -0.3071
  516loPI   C2A 8248   4.791   7.020   8.852  0.6125  0.1594 -0.0865
  516loPI   C3A 8249   4.661   6.913   8.402 -0.3662 -0.0869  0.2302
  516loPI   C4A 8250   4.826   6.888   7.932 -0.0597 -0.1426 -0.1392
  516loPI   C5A 8251   4.742   6.928   7.532 -0.2434 -0.1043 -0.1586
  516loPI   C6A 8252   4.900   6.960   7.141  0.2004 -0.0301  0.0642
  516loPI   C1B 8253   4.402   7.214   9.105 -0.0242  0.0299 -0.1461
  516loPI   C2B 8254   4.432   7.354   8.738  0.0151  0.2193  0.1138
  516loPI   C3B 8255   4.463   7.550   8.347  0.3631 -0.3400  0.0873
  516loPI   C4B 8256   4.369   7.638   7.891  0.0764  0.1579 -0.1397
  517loPI    C1 8257   6.162   3.923   9.976  0.0751 -0.1977  0.0179
  517loPI    C2 8258   5.867   3.744  10.178 -0.0142  0.0295  0.0914
  517loPI    C3 8259   6.216   3.820  10.358 -0.0539  0.1285  0.1276
  517loPI   PO4 8260   6.075   4.081   9.812  0.0256  0.1005 -0.0984
  517loPI   GL1 8261   6.198   4.044   9.353 -0.1562  0.2568  0.1427
  517loPI   GL2 8262   6.012   3.792   9.142 -0.1363 -0.4557  0.1054
  517loPI   C1A 8263   6.477   4.237   8.985 -0.1663  0.0033  0.2490
  517loPI   C2A 8264   6.639   4.201   8.585  0.0318 -0.0291  0.1499
  517loPI   C3A 8265   6.865   4.252   8.173  0.0753 -0.0459  0.3904
  517loPI   C4A 8266   6.828   4.391   7.754  0.1511  0.0969 -0.0842
  517loPI   C5A 8267   6.509   4.357   7.450  0.0529 -0.1004  0.0315
  517loPI   C6A 8268   6.135   4.251   7.185  0.1507  0.1061 -0.1150
  517loPI   C1B 8269   6.188   3.802   8.743 -0.1194 -0.1183 -0.3569
  517loPI   C2B 8270   6.334   3.856   8.346 -0.2115 -0.1810 -0.1685
  517loPI   C3B 8271   6.561   3.790   7.965 -0.2244 -0.0485 -0.0418
  517loPI   C4B 8272   6.717   3.470   7.626  0.2698  0.0546 -0.1516
  518loPI    C1 8273   6.906   1.307   9.868  0.0684 -0.1704  0.0883
  518loPI    C2 8274   7.016   0.982  10.074 -0.1596 -0.1253  0.2848
  518loPI    C3 8275   7.192   1.334  10.147  0.1003 -0.2049  0.0591
  518loPI   PO4 8276   6.900   1.134   9.569 -0.1501  0.1090 -0.1044
  518loPI   GL1 8277   7.067   1.100   9.101  0.0324 -0.3536  0.1784
  518loPI   GL2 8278   7.405   1.156   9.127  0.0189  0.2049 -0.3054
  518loPI   C1A 8279   7.241   0.854   8.826 -0.2021  0.2899  0.0908
  518loPI   C2A 8280   7.527   0.944   8.486 -0.2213  0.0000 -0.3732
  518loPI   C3A 8281   7.736   1.312   8.368 -0.2740 -0.1029  0.1595
  518loPI   C4A 8282   7.726   1.805   8.163 -0.3594  0.1850 -0.0175
  518loPI   C5A 8283   7.627   1.952   7.727  0.0467  0.2042 -0.2744
  518loPI   C6A 8284   7.575   2.087   7.289 -0.1513  0.1665 -0.0517
  518loPI   C1B 8285   7.630   1.348   8.875  0.0066  0.3268 -0.1139
  518loPI   C2B 8286   8.032   1.089   8.779 -0.1838  0.1898  0.2278
  518loPI   C3B 8287   8.062   0.861   8.428 -0.3275 -0.0450  0.1249
  518loPI   C4B 8288   7.837   0.781   7.982 -0.1211 -0.1600  0.1421
  519loPI    C1 8289  10.867  16.444  10.077 -0.0130 -0.2510 -0.0326
  519loPI    C2 8290  10.507  16.606  10.011  0.0742 -0.0222  0.0451
  519loPI    C3 8291  10.661  16.604  10.380  0.2761  0.1435 -0.0359
  519loPI   PO4 8292  10.978  16.582   9.894  0.2923  0.1304  0.0008
  519loPI   GL1 8293  11.063  16.585   9.493 -0.1381  0.1678 -0.0974
  519loPI   GL2 8294  11.054  16.787   9.323  0.3371 -0.3792  0.2768
  519loPI   C1A 8295  11.195  16.302   9.050 -0.3717 -0.0373  0.1241
  519loPI   C2A 8296  11.144  16.055   8.586 -0.0451  0.0431 -0.2900
  519loPI   C3A 8297  11.338  16.008   8.206  0.2832 -0.0261  0.0129
  519loPI   C4A 8298  11.205  15.867   7.848  0.2044 -0.1074 -0.1114
  519loPI   C5A 8299  11.262  15.456   7.617 -0.0143 -0.2746  0.0474
  519loPI   C6A 8300  11.178  15.019   7.445 -0.0659 -0.0797 -0.1275
  519loPI   C1B 8301  11.159  16.750   8.828  0.1141  0.2148 -0.0032
  519loPI   C2B 8302  11.208  16.622   8.480  0.1277 -0.3048  0.2923
  519loPI   C3B 8303  11.423  16.790   8.102  0.1985  0.0606 -0.0441
  519loPI   C4B 8304  11.723  17.042   8.086  0.1031 -0.1233  0.2949
  520loPI    C1 8305   3.832   0.990  10.017 -0.3354 -0.0933  0.1215
  520loPI    C2 8306   3.548   1.240  10.145 -0.2994 -0.0121  0.0439
  520loPI    C3 8307   3.645   0.919  10.363 -0.2642  0.1045  0.2016
  520loPI   PO4 8308   3.880   1.146   9.729  0.3026  0.0221  0.1268
  520loPI   GL1 8309   4.114   1.092   9.394  0.2196  0.0100  0.0599
  520loPI   GL2 8310   4.286   1.384   9.234  0.1773  0.0758  0.0081
  520loPI   C1A 8311   3.996   0.962   8.910  0.2736  0.2929 -0.1184
  520loPI   C2A 8312   3.777   0.636   8.656  0.2115 -0.1315 -0.0330
  520loPI   C3A 8313   3.520   0.256   8.402 -0.0872 -0.1491  0.0007
  520loPI   C4A 8314   3.739  -0.014   8.060 -0.1605 -0.2828 -0.0485
  520loPI   C5A 8315   4.032  -0.194   7.693 -0.0935  0.1525  0.1537
  520loPI   C6A 8316   3.968  -0.156   7.246 -0.2883  0.1222 -0.2197
  520loPI   C1B 8317   3.956   1.526   9.023 -0.0768  0.0343 -0.1040
  520loPI   C2B 8318   3.838   1.461   8.563  0.0150 -0.1133  0.1944
  520loPI   C3B 8319   3.852   1.377   8.136  0.1055  0.2470 -0.1386
  520loPI   C4B 8320   3.859   1.165   7.709 -0.3904  0.0258  0.2930
  521loPI    C1 8321   8.576   4.488   9.631  0.1824 -0.2229 -0.0956
  521loPI    C2 8322   8.564   4.560   9.238 -0.0350  0.0256 -0.0464
  521loPI    C3 8323   8.372   4.802   9.492 -0.0110 -0.2118  0.2032
  521loPI   PO4 8324   8.501   4.173   9.621  0.0402  0.0380  0.4465
  521loPI   GL1 8325   8.356   4.000   9.157 -0.1021  0.2685  0.3363
  521loPI   GL2 8326   7.932   3.961   9.110  0.4300 -0.2140  0.3574
  521loPI   C1A 8327   8.248   4.113   8.746 -0.2161 -0.2083 -0.0568
  521loPI   C2A 8328   8.170   4.254   8.322 -0.0398  0.3892 -0.4109
  521loPI   C3A 8329   8.302   4.177   7.869  0.0719  0.0481  0.0408
  521loPI   C4A 8330   8.509   4.097   7.453  0.1537 -0.1311 -0.0123
  521loPI   C5A 8331   8.293   4.033   6.997 -0.3008 -0.0343  0.1107
  521loPI   C6A 8332   8.488   3.752   6.670  0.0377 -0.2495 -0.1227
  521loPI   C1B 8333   7.971   3.494   8.765 -0.1748 -0.2410  0.0218
  521loPI   C2B 8334   8.146   3.140   8.457 -0.0009  0.1345  0.2357
  521loPI   C3B 8335   8.385   3.046   8.089  0.5084 -0.0445  0.3545
  521loPI   C4B 8336   8.575   3.092   7.713 -0.2156 -0.0689 -0.1181
  522loPI    C1 8337   0.446   4.700   9.868 -0.2330  0.3952  0.0687
  522loPI    C2 8338   0.384   4.698  10.264 -0.1784  0.2070  0.0769
  522loPI    C3 8339   0.757   4.715  10.120 -0.1897  0.1091  0.0350
  522loPI   PO4 8340   0.342   4.407   9.761 -0.0801 -0.0099 -0.1114
  522loPI   GL1 8341   0.648   4.179   9.427  0.1762 -0.4306  0.1871
  522loPI   GL2 8342   0.767   3.955   9.429  0.0089  0.0583 -0.0661
  522loPI   C1A 8343   0.614   4.265   8.944 -0.2285 -0.0383 -0.3601
  522loPI   C2A 8344   0.622   4.422   8.527  0.2951  0.0326 -0.0569
  522loPI   C3A 8345   0.515   4.441   8.094 -0.1307 -0.0322 -0.2492
  522loPI   C4A 8346   0.195   4.475   7.796  0.2578  0.0058 -0.3038
  522loPI   C5A 8347   0.103   4.440   7.371 -0.1158  0.1279 -0.2576
  522loPI   C6A 8348   0.112   4.432   6.904  0.1600 -0.0653  0.0794
  522loPI   C1B 8349   0.499   3.821   9.152 -0.0107 -0.0862 -0.0634
  522loPI   C2B 8350   0.291   3.844   8.781 -0.0661 -0.1972  0.1073
  522loPI   C3B 8351   0.482   3.858   8.450  0.1423  0.0867  0.0938
  522loPI   C4B 8352   0.739   3.963   8.188  0.0134 -0.2122 -0.0500
  523loPI    C1 8353   3.301   8.186  10.061 -0.0145 -0.0455  0.0382
  523loPI    C2 8354   2.918   8.243  10.162 -0.0301  0.1797 -0.1402
  523loPI    C3 8355   3.210   8.344  10.416 -0.0851  0.1328 -0.0580
  523loPI   PO4 8356   3.291   8.322   9.817 -0.0076  0.2652  0.0856
  523loPI   GL1 8357   3.256   8.535   9.469 -0.2984  0.0094 -0.3561
  523loPI   GL2 8358   3.058   8.302   9.341  0.0172  0.0248  0.2401
  523loPI   C1A 8359   3.341   8.829   9.072 -0.1833 -0.0736  0.0452
  523loPI   C2A 8360   3.562   8.821   8.724 -0.0228  0.1605  0.2521
  523loPI   C3A 8361   3.577   8.784   8.258 -0.0133  0.0626 -0.1148
  523loPI   C4A 8362   3.589   8.919   7.858 -0.1573  0.0791 -0.1542
  523loPI   C5A 8363   3.329   8.972   7.577  0.0695 -0.0946 -0.0783
  523loPI   C6A 8364   3.042   8.944   7.360 -0.1647 -0.1645 -0.0521
  523loPI   C1B 8365   2.869   8.510   8.983 -0.1371 -0.2093 -0.3158
  523loPI   C2B 8366   2.605   8.440   8.672  0.2419  0.2221  0.0375
  523loPI   C3B 8367   2.798   8.190   8.242 -0.1554  0.1979  0.0042
  523loPI   C4B 8368   2.864   8.188   7.838  0.1379 -0.1744 -0.1337
  524loPI    C1 8369  14.557   7.645   9.927 -0.1409 -0.2762 -0.0753
  524loPI    C2 8370  14.253   7.581   9.674 -0.1643  0.1642 -0.1653
  524loPI    C3 8371  14.214   7.846   9.972  0.0586  0.0654 -0.0456
  524loPI   PO4 8372  14.776   7.767   9.734  0.1004 -0.0045  0.2911
  524loPI   GL1 8373  14.958   8.070   9.531  0.0228 -0.0102  0.0221
  524loPI   GL2 8374  15.078   7.788   9.363 -0.0941 -0.1264  0.0660
  524loPI   C1A 8375  14.868   8.333   9.187 -0.2066 -0.1139 -0.0688
  524loPI   C2A 8376  14.709   8.588   8.836 -0.0553 -0.1474  0.1323
  524loPI   C3A 8377  14.618   8.802   8.486 -0.1722  0.3507 -0.3399
  524loPI   C4A 8378  14.743   8.765   7.955  0.1803 -0.1486  0.3944
  524loPI   C5A 8379  14.882   8.945   7.581 -0.0662  0.0754 -0.1312
  524loPI   C6A 8380  14.990   8.960   7.094  0.3439 -0.2107  0.0850
  524loPI   C1B 8381  14.947   7.759   8.932 -0.1513 -0.0155 -0.2710
  524loPI   C2B 8382  15.045   7.857   8.611  0.0017  0.0636  0.1662
  524loPI   C3B 8383  14.908   8.255   8.425  0.1121  0.4881 -0.2092
  524loPI   C4B 8384  14.858   8.301   7.938  0.2014  0.0958 -0.0717
  525loPI    C1 8385   1.282   2.252   9.896  0.0158  0.0036  0.0972
  525loPI    C2 8386   1.171   2.503  10.187  0.3697  0.2189  0.0533
  525loPI    C3 8387   1.429   2.208  10.265  0.2067  0.0681  0.0301
  525loPI   PO4 8388   1.386   2.411   9.646  0.1442 -0.1582 -0.0757
  525loPI   GL1 8389   1.601   2.070   9.471 -0.0958  0.3246  0.1220
  525loPI   GL2 8390   1.842   1.980   9.527  0.1947 -0.1376 -0.3073
  525loPI   C1A 8391   1.681   1.906   9.012 -0.0665 -0.0702 -0.1550
  525loPI   C2A 8392   1.511   1.914   8.619 -0.0530 -0.0550  0.0053
  525loPI   C3A 8393   1.461   1.790   8.175 -0.0393  0.2570 -0.3025
  525loPI   C4A 8394   1.378   1.885   7.854  0.2925 -0.0282 -0.0978
  525loPI   C5A 8395   1.052   1.756   7.550  0.2245  0.1302  0.3966
  525loPI   C6A 8396   0.663   1.504   7.514 -0.3396 -0.3149 -0.0737
  525loPI   C1B 8397   2.102   2.259   9.298  0.2623  0.0606  0.0189
  525loPI   C2B 8398   2.150   2.193   8.882 -0.1516  0.1501  0.2965
  525loPI   C3B 8399   2.000   1.970   8.471  0.0669 -0.0017  0.0027
  525loPI   C4B 8400   1.919   1.908   8.019  0.4115  0.0069 -0.1143
  526loPI    C1 8401  12.911   2.314  10.548  0.0049  0.2638  0.0655
  526loPI    C2 8402  13.042   2.658  10.705  0.2357  0.1834  0.0526
  526loPI    C3 8403  13.302   2.370  10.609  0.0409 -0.0100  0.0971
  526loPI   PO4 8404  12.696   2.370  10.321 -0.1253 -0.3583 -0.2445
  526loPI   GL1 8405  12.734   2.344   9.856 -0.1228 -0.2725 -0.1301
  526loPI   GL2 8406  12.805   2.607   9.775  0.2681 -0.2246 -0.4491
  526loPI   C1A 8407  12.936   2.211   9.412  0.0727 -0.0052 -0.2181
  526loPI   C2A 8408  13.047   2.044   9.007  0.3826  0.2171  0.0766
  526loPI   C3A 8409  12.908   2.058   8.614  0.1929  0.0464 -0.2067
  526loPI   C4A 8410  12.733   1.981   8.182  0.2363  0.0606 -0.1035
  526loPI   C5A 8411  12.637   2.126   7.787  0.2245  0.3589 -0.1148
  526loPI   C6A 8412  12.405   2.078   7.414  0.0330  0.0590 -0.1895
  526loPI   C1B 8413  12.586   2.536   9.370  0.1315  0.0075  0.1053
  526loPI   C2B 8414  12.464   2.403   9.009  0.0306 -0.0482  0.0160
  526loPI   C3B 8415  12.359   2.097   8.571 -0.0312 -0.1354  0.2895
  526loPI   C4B 8416  12.233   1.939   8.072 -0.2480  0.1682  0.0434
  527loPI    C1 8417  10.416   7.532  10.001  0.0429 -0.0667  0.1524
  527loPI    C2 8418  10.500   7.165  10.136 -0.3439 -0.2188 -0.0046
  527loPI    C3 8419  10.235   7.393  10.329 -0.0917 -0.0103  0.1028
  527loPI   PO4 8420  10.563   7.453   9.684 -0.0820 -0.0293 -0.0224
  527loPI   GL1 8421  10.632   7.496   9.241  0.1176  0.3237  0.0882
  527loPI   GL2 8422  10.417   7.308   9.108  0.2105  0.0274  0.0922
  527loPI   C1A 8423  10.478   7.793   8.933 -0.2804  0.3242 -0.3512
  527loPI   C2A 8424  10.514   7.806   8.542  0.0142 -0.2436 -0.1630
  527loPI   C3A 8425  10.522   7.842   8.129  0.0994  0.0021 -0.3434
  527loPI   C4A 8426  10.684   7.870   7.734  0.0457  0.0230  0.0495
  527loPI   C5A 8427  10.929   8.070   7.476  0.1214 -0.3681 -0.2122
  527loPI   C6A 8428  10.963   8.487   7.295  0.0947  0.1107  0.1268
  527loPI   C1B 8429  10.246   7.402   8.673  0.0049  0.1558  0.1425
  527loPI   C2B 8430  10.277   7.168   8.275  0.1296  0.0910  0.1904
  527loPI   C3B 8431  10.169   7.120   7.843 -0.1244  0.1141  0.0683
  527loPI   C4B 8432  10.216   7.087   7.456  0.0510  0.0339 -0.1277
  528loPI    C1 8433   0.940  17.371   9.813  0.1292  0.2656  0.0877
  528loPI    C2 8434   0.769  17.507  10.148 -0.0940  0.0770  0.0528
  528loPI    C3 8435   0.544  17.428   9.827  0.1141  0.2221 -0.1314
  528loPI   PO4 8436   1.086  17.532   9.738  0.0754  0.1261  0.0391
  528loPI   GL1 8437   1.192  17.965   9.496  0.5684  0.2164 -0.0486
  528loPI   GL2 8438   1.588  17.949   9.451 -0.1094  0.2458  0.1998
  528loPI   C1A 8439   1.124  17.933   9.139 -0.0417  0.0207 -0.2093
  528loPI   C2A 8440   1.122  18.047   8.706  0.1527  0.3818  0.0992
  528loPI   C3A 8441   1.130  17.917   8.299 -0.0794 -0.1739  0.0243
  528loPI   C4A 8442   0.985  17.769   7.969  0.0335 -0.0569 -0.2426
  528loPI   C5A 8443   0.848  17.907   7.573 -0.2781 -0.0677  0.1362
  528loPI   C6A 8444   0.726  18.052   7.203  0.1025 -0.1344 -0.0509
  528loPI   C1B 8445   1.589  18.197   9.048 -0.0334 -0.0625  0.3693
  528loPI   C2B 8446   1.628  18.131   8.594 -0.3388 -0.1382 -0.1896
  528loPI   C3B 8447   1.615  18.203   8.186  0.0867 -0.2029 -0.0387
  528loPI   C4B 8448   1.470  17.946   7.909  0.2464 -0.0900  0.2342
  529loPI    C1 8449   3.308  11.374   9.569  0.0616 -0.1373  0.2054
  529loPI    C2 8450   3.629  11.577   9.446 -0.0585 -0.2275 -0.2789
  529loPI    C3 8451   3.656  11.333   9.761  0.2450  0.0565 -0.0778
  529loPI   PO4 8452   3.142  11.266   9.295  0.2444  0.0653 -0.0261
  529loPI   GL1 8453   3.208  10.984   8.916 -0.0770 -0.2839 -0.2309
  529loPI   GL2 8454   2.817  11.174   8.946  0.0865 -0.1581 -0.2014
  529loPI   C1A 8455   3.206  11.297   8.684 -0.2129  0.2791  0.1200
  529loPI   C2A 8456   3.016  11.597   8.312  0.0094  0.0889  0.2407
  529loPI   C3A 8457   3.094  11.979   8.067 -0.2568  0.2407 -0.2371
  529loPI   C4A 8458   3.200  12.089   7.659 -0.1407  0.0005 -0.1440
  529loPI   C5A 8459   3.450  12.377   7.341 -0.2293  0.1830 -0.2728
  529loPI   C6A 8460   3.634  12.669   7.215 -0.1051  0.5150 -0.4874
  529loPI   C1B 8461   2.702  11.226   8.550  0.1541 -0.0038  0.0458
  529loPI   C2B 8462   2.827  11.180   8.119  0.1756  0.0431  0.1739
  529loPI   C3B 8463   2.630  11.245   7.680 -0.2427 -0.0393  0.0921
  529loPI   C4B 8464   2.385  11.510   7.568 -0.2547  0.0819  0.0564
  530loPI    C1 8465  12.039   5.695   9.625  0.0200  0.1508  0.1264
  530loPI    C2 8466  12.343   5.483   9.477 -0.0911 -0.0057  0.1194
  530loPI    C3 8467  12.202   5.401   9.842 -0.2388 -0.0517  0.0528
  530loPI   PO4 8468  11.903   5.679   9.534  0.0199  0.2904 -0.0614
  530loPI   GL1 8469  11.812   5.532   9.163 -0.3095 -0.0450 -0.0939
  530loPI   GL2 8470  11.723   5.915   9.020  0.0315 -0.1153  0.3302
  530loPI   C1A 8471  12.034   5.322   8.771  0.0554  0.0178  0.0238
  530loPI   C2A 8472  12.108   5.251   8.417  0.0242 -0.0056 -0.1270
  530loPI   C3A 8473  12.384   5.303   8.070  0.0117  0.0675  0.3702
  530loPI   C4A 8474  12.651   5.325   7.770 -0.1288 -0.1524  0.1706
  530loPI   C5A 8475  12.718   5.187   7.277  0.1359 -0.0127  0.1898
  530loPI   C6A 8476  12.587   5.374   6.857 -0.1211 -0.0671  0.0185
  530loPI   C1B 8477  11.791   5.805   8.612  0.2741  0.0901 -0.0001
  530loPI   C2B 8478  11.733   5.816   8.157 -0.0987 -0.2890 -0.1271
  530loPI   C3B 8479  11.885   5.516   7.922  0.2957  0.1063  0.0908
  530loPI   C4B 8480  11.839   5.382   7.516 -0.1074  0.3167 -0.0684
  531loPI    C1 8481  10.793   5.788   9.593 -0.1851 -0.0592  0.1708
  531loPI    C2 8482  10.531   6.068   9.708 -0.2680 -0.0994  0.0813
  531loPI    C3 8483  10.780   5.905   9.975 -0.1882  0.0919  0.1249
  531loPI   PO4 8484  10.750   5.738   9.322 -0.0825  0.0799  0.0685
  531loPI   GL1 8485  11.113   5.439   9.189 -0.1027 -0.2765  0.0011
  531loPI   GL2 8486  11.354   5.196   9.101 -0.1174 -0.3470  0.4526
  531loPI   C1A 8487  11.193   5.430   8.721  0.1519 -0.3241  0.1343
  531loPI   C2A 8488  11.330   5.407   8.303 -0.1201 -0.2000  0.1547
  531loPI   C3A 8489  11.501   5.266   7.894  0.3500  0.4770 -0.1700
  531loPI   C4A 8490  11.685   4.923   7.634  0.0816  0.1884 -0.2233
  531loPI   C5A 8491  11.611   4.404   7.520  0.3755  0.0080  0.4256
  531loPI   C6A 8492  11.482   3.930   7.569  0.4495 -0.3020  0.3708
  531loPI   C1B 8493  11.483   5.038   8.800  0.0584  0.1220 -0.1747
  531loPI   C2B 8494  11.610   5.025   8.378 -0.0526  0.0463 -0.0104
  531loPI   C3B 8495  11.899   4.974   8.035 -0.1590  0.1649  0.0965
  531loPI   C4B 8496  12.217   5.034   7.650 -0.0890 -0.3298  0.4535
  532loPI    C1 8497   1.561   0.130  10.314  0.1477  0.0050 -0.2107
  532loPI    C2 8498   1.309   0.424  10.412  0.2930  0.1595 -0.2942
  532loPI    C3 8499   1.601   0.320  10.664  0.2015  0.0412 -0.2363
  532loPI   PO4 8500   1.479  -0.072  10.191  0.1117 -0.3459  0.1880
  532loPI   GL1 8501   1.192  -0.010   9.797 -0.0709 -0.0281 -0.0175
  532loPI   GL2 8502   0.985  -0.163   9.748  0.3059 -0.0802  0.0299
  532loPI   C1A 8503   1.325  -0.035   9.313 -0.0754 -0.3599 -0.1899
  532loPI   C2A 8504   1.236  -0.204   8.941  0.0547 -0.1378 -0.2218
  532loPI   C3A 8505   1.230  -0.167   8.459  0.0900  0.4402 -0.0998
  532loPI   C4A 8506   1.234  -0.311   8.023 -0.2740 -0.0180  0.2180
  532loPI   C5A 8507   0.895  -0.493   7.792  0.1095 -0.2187 -0.0671
  532loPI   C6A 8508   0.639  -0.911   7.559  0.0003  0.3673 -0.5488
  532loPI   C1B 8509   0.974  -0.341   9.329  0.1428  0.3122  0.2221
  532loPI   C2B 8510   0.816  -0.425   8.974  0.1851  0.0222 -0.1022
  532loPI   C3B 8511   0.788  -0.351   8.647  0.0573 -0.0197  0.1492
  532loPI   C4B 8512   0.734  -0.562   8.228 -0.1307  0.0994  0.0294
  533loPI    C1 8513   4.383   4.021  10.192 -0.0270 -0.0166 -0.0051
  533loPI    C2 8514   4.210   4.252  10.469 -0.1129 -0.0371 -0.0413
  533loPI    C3 8515   4.460   3.960  10.579  0.0156  0.0886  0.0032
  533loPI   PO4 8516   4.159   3.903  10.038 -0.1100  0.1064  0.0638
  533loPI   GL1 8517   4.071   3.834   9.614 -0.0397  0.0378 -0.1751
  533loPI   GL2 8518   4.354   4.028   9.446 -0.0177 -0.2940 -0.0484
  533loPI   C1A 8519   3.727   3.908   9.190  0.1431 -0.0104  0.2256
  533loPI   C2A 8520   3.699   3.880   8.752  0.2634 -0.1017 -0.1655
  533loPI   C3A 8521   3.683   3.864   8.341  0.1898  0.2063 -0.1276
  533loPI   C4A 8522   3.532   3.823   7.981  0.1533 -0.1951 -0.0912
  533loPI   C5A 8523   3.506   3.845   7.445 -0.2748  0.0130  0.1637
  533loPI   C6A 8524   3.643   4.100   7.071 -0.1752  0.0168  0.2465
  533loPI   C1B 8525   4.197   3.955   9.034 -0.2568  0.1737 -0.1411
  533loPI   C2B 8526   4.203   3.826   8.580  0.2657 -0.0622 -0.1105
  533loPI   C3B 8527   4.134   3.778   8.151 -0.1536  0.0895  0.0301
  533loPI   C4B 8528   4.104   3.686   7.758 -0.1274  0.5792 -0.0351
  534loPI    C1 8529   6.760  18.759  10.197  0.0397  0.3852 -0.2518
  534loPI    C2 8530   7.148  18.841  10.248  0.0496  0.1800  0.0279
  534loPI    C3 8531   6.911  18.794  10.566 -0.1185 -0.0961 -0.1345
  534loPI   PO4 8532   6.792  18.557   9.960 -0.3515  0.1542  0.2051
  534loPI   GL1 8533   6.703  18.551   9.542 -0.2585 -0.4083  0.1757
  534loPI   GL2 8534   6.522  18.638   9.296 -0.0596 -0.0021 -0.0695
  534loPI   C1A 8535   6.932  18.840   9.185  0.1339 -0.1592 -0.0313
  534loPI   C2A 8536   6.978  18.726   8.746  0.2412  0.0172  0.3885
  534loPI   C3A 8537   6.835  18.758   8.328 -0.0987  0.1782  0.2845
  534loPI   C4A 8538   6.893  19.023   7.910 -0.1615  0.0412  0.2205
  534loPI   C5A 8539   7.170  19.059   7.560  0.0563  0.0146  0.1753
  534loPI   C6A 8540   7.271  19.482   7.251 -0.1957 -0.2790  0.0315
  534loPI   C1B 8541   6.100  18.740   9.081 -0.0043 -0.3405 -0.0592
  534loPI   C2B 8542   5.749  18.763   8.936 -0.1057 -0.0658  0.0585
  534loPI   C3B 8543   5.513  18.827   8.518  0.2293 -0.0112  0.0454
  534loPI   C4B 8544   5.485  18.799   8.117  0.0451  0.0578 -0.1092
  535loPI    C1 8545  15.554  13.449   9.913  0.0323 -0.1306 -0.0625
  535loPI    C2 8546  15.582  13.374  10.305 -0.0914  0.0462 -0.0184
  535loPI    C3 8547  15.474  13.082  10.053 -0.0244 -0.0648  0.0799
  535loPI   PO4 8548  15.441  13.593   9.886 -0.0481 -0.1213  0.0779
  535loPI   GL1 8549  15.465  13.888   9.534  0.0608 -0.3497  0.1158
  535loPI   GL2 8550  15.333  13.663   9.385  0.0716 -0.0610 -0.1980
  535loPI   C1A 8551  15.407  14.071   9.075 -0.1823 -0.0206  0.0258
  535loPI   C2A 8552  15.620  14.175   8.633  0.2566 -0.2572  0.2130
  535loPI   C3A 8553  15.538  13.976   8.244  0.1021  0.0619 -0.2145
  535loPI   C4A 8554  15.228  14.048   7.803  0.4362 -0.1120 -0.1616
  535loPI   C5A 8555  14.977  13.877   7.540  0.1080  0.1670  0.0955
  535loPI   C6A 8556  14.977  13.461   7.453  0.1031  0.1802 -0.1057
  535loPI   C1B 8557  15.143  13.663   8.977  0.3174  0.1903 -0.1610
  535loPI   C2B 8558  15.194  13.836   8.625 -0.0196  0.2004  0.2793
  535loPI   C3B 8559  15.101  13.675   8.187 -0.0854  0.3581  0.1324
  535loPI   C4B 8560  14.793  13.547   7.934 -0.2314 -0.0678 -0.2210
  536loPI    C1 8561  10.565  13.899   9.789 -0.1174  0.0276  0.1216
  536loPI    C2 8562  10.813  13.910  10.103 -0.1651 -0.0614  0.1627
  536loPI    C3 8563  10.488  13.676  10.112 -0.1911 -0.0295  0.0651
  536loPI   PO4 8564  10.621  13.829   9.554  0.0419  0.0688  0.0763
  536loPI   GL1 8565  10.908  13.728   9.207  0.0439 -0.0426  0.0727
  536loPI   GL2 8566  10.557  13.610   9.111  0.2062 -0.0057  0.1261
  536loPI   C1A 8567  10.921  13.768   8.751  0.0718  0.1021 -0.2884
  536loPI   C2A 8568  10.803  13.794   8.264 -0.0511 -0.1908 -0.4413
  536loPI   C3A 8569  10.922  13.577   7.914  0.1416 -0.1296  0.0233
  536loPI   C4A 8570  10.798  13.690   7.517  0.2797  0.2393  0.2287
  536loPI   C5A 8571  10.541  13.825   7.159 -0.3356  0.1458  0.2047
  536loPI   C6A 8572  10.435  14.014   6.759  0.0744 -0.0581  0.0354
  536loPI   C1B 8573  10.514  13.484   8.663  0.1338  0.0222  0.2214
  536loPI   C2B 8574  10.392  13.370   8.211 -0.1198 -0.1454  0.0945
  536loPI   C3B 8575  10.419  13.472   7.831  0.1052  0.3585 -0.0114
  536loPI   C4B 8576  10.702  13.224   7.536 -0.1404 -0.1748 -0.0022
  537loPI    C1 8577  14.920   5.933   9.616 -0.3399 -0.0117  0.1411
  537loPI    C2 8578  15.204   5.778   9.851 -0.1301  0.2024  0.0340
  537loPI    C3 8579  14.819   5.695   9.920 -0.0420 -0.1090  0.1674
  537loPI   PO4 8580  14.886   5.882   9.401  0.2272 -0.1602  0.2971
  537loPI   GL1 8581  14.845   5.939   8.955 -0.1692 -0.0590 -0.2234
  537loPI   GL2 8582  15.161   5.703   8.986 -0.0937  0.2599  0.0674
  537loPI   C1A 8583  14.817   5.938   8.486  0.2608  0.2424 -0.5081
  537loPI   C2A 8584  14.833   5.999   8.028 -0.4279  0.0230  0.0154
  537loPI   C3A 8585  15.068   5.732   7.796 -0.0586  0.0192  0.2455
  537loPI   C4A 8586  15.306   5.401   7.594  0.2596  0.0280  0.0055
  537loPI   C5A 8587  15.208   4.921   7.380  0.0070 -0.3183 -0.0038
  537loPI   C6A 8588  15.120   4.918   7.024 -0.0646 -0.0252  0.1693
  537loPI   C1B 8589  15.324   5.834   8.625  0.2490  0.2786  0.0492
  537loPI   C2B 8590  15.391   5.730   8.164 -0.0625 -0.4495  0.0341
  537loPI   C3B 8591  15.654   5.735   7.863 -0.3960  0.2316 -0.0911
  537loPI   C4B 8592  15.481   5.978   7.453 -0.2693 -0.1558 -0.1676
  538loPI    C1 8593   7.143   4.204  10.088 -0.0364 -0.1391  0.3155
  538loPI    C2 8594   7.433   4.439  10.233 -0.0236  0.0490 -0.0048
  538loPI    C3 8595   7.323   4.110  10.433  0.3521  0.0195  0.1617
  538loPI   PO4 8596   7.225   4.231   9.775 -0.0657 -0.0676  0.0814
  538loPI   GL1 8597   7.047   4.051   9.413 -0.0201  0.1086 -0.3848
  538loPI   GL2 8598   6.717   4.041   9.380  0.3283  0.0597  0.0116
  538loPI   C1A 8599   7.068   4.092   8.942 -0.4863  0.1435  0.0722
  538loPI   C2A 8600   7.199   4.123   8.519  0.0358 -0.1390  0.0351
  538loPI   C3A 8601   7.448   4.164   8.212  0.0039  0.0706  0.1129
  538loPI   C4A 8602   7.695   4.217   7.865  0.2197 -0.0532 -0.0809
  538loPI   C5A 8603   8.030   4.444   7.570 -0.0759  0.2771  0.0619
  538loPI   C6A 8604   8.211   4.705   7.333  0.0483  0.1828 -0.2088
  538loPI   C1B 8605   6.568   3.720   9.097 -0.1337 -0.0055 -0.0459
  538loPI   C2B 8606   6.505   3.398   8.755 -0.1472 -0.0531  0.0110
  538loPI   C3B 8607   6.409   3.024   8.446 -0.0427 -0.0156 -0.3393
  538loPI   C4B 8608   6.472   2.683   8.138  0.1044  0.0842 -0.0770
  539loPI    C1 8609   3.106   0.197  10.200  0.2226  0.1491  0.1712
  539loPI    C2 8610   2.847   0.019  10.447  0.1265  0.1318  0.0586
  539loPI    C3 8611   3.153   0.228  10.596  0.0391  0.1657  0.1927
  539loPI   PO4 8612   3.142   0.055  10.039  0.1681 -0.0480 -0.1855
  539loPI   GL1 8613   3.126  -0.082   9.626  0.0807 -0.1558  0.0568
  539loPI   GL2 8614   3.064  -0.382   9.550  0.1054  0.2536 -0.0264
  539loPI   C1A 8615   2.927   0.301   9.358 -0.1157  0.3096  0.0846
  539loPI   C2A 8616   2.789   0.430   9.039  0.3324 -0.2853  0.0916
  539loPI   C3A 8617   2.688   0.274   8.627 -0.0999 -0.1900 -0.0235
  539loPI   C4A 8618   2.666   0.296   8.240 -0.3219  0.0563 -0.1301
  539loPI   C5A 8619   2.718   0.313   7.790  0.1390  0.0467 -0.1390
  539loPI   C6A 8620   3.012   0.151   7.581  0.3344  0.2116  0.4869
  539loPI   C1B 8621   2.872  -0.221   9.167  0.2156 -0.0233 -0.3789
  539loPI   C2B 8622   2.610  -0.195   8.794  0.0798  0.1492  0.0769
  539loPI   C3B 8623   2.514  -0.308   8.423  0.2311 -0.1500  0.2498
  539loPI   C4B 8624   2.607  -0.212   7.967  0.0432  0.5071  0.1520
  540loPI    C1 8625  14.687   0.556  10.543  0.0828 -0.0219  0.0571
  540loPI    C2 8626  14.557   0.180  10.584 -0.0882  0.0070 -0.1944
  540loPI    C3 8627  14.619   0.407  10.907 -0.2860 -0.1363 -0.0536
  540loPI   PO4 8628  14.683   0.577  10.189 -0.1190  0.3188  0.0666
  540loPI   GL1 8629  14.584   0.597   9.815  0.0518 -0.0202  0.2812
  540loPI   GL2 8630  14.289   0.485   9.615  0.2896 -0.2257 -0.5894
  540loPI   C1A 8631  14.703   0.248   9.524 -0.2051 -0.0589  0.1850
  540loPI   C2A 8632  14.556   0.267   9.097  0.0760 -0.1402 -0.1220
  540loPI   C3A 8633  14.318   0.009   8.761  0.1493 -0.0615  0.1134
  540loPI   C4A 8634  14.220  -0.053   8.358 -0.1049  0.1699  0.0499
  540loPI   C5A 8635  14.094  -0.125   7.951  0.1322 -0.0079  0.0666
  540loPI   C6A 8636  14.186   0.149   7.653 -0.3384 -0.2074  0.6318
  540loPI   C1B 8637  13.868   0.511   9.442 -0.1080  0.2940 -0.4031
  540loPI   C2B 8638  13.797   0.842   9.086  0.0855 -0.0274 -0.2624
  540loPI   C3B 8639  13.784   0.897   8.708 -0.0787 -0.1607 -0.1451
  540loPI   C4B 8640  13.609   0.801   8.357  0.0108 -0.1951  0.3786
  541loPI    C1 8641  10.297  14.855  10.040  0.1699 -0.0901  0.0283
  541loPI    C2 8642  10.133  15.111  10.300  0.1278 -0.0294 -0.0577
  541loPI    C3 8643  10.381  14.825  10.429  0.0417 -0.0516  0.0594
  541loPI   PO4 8644  10.449  14.952   9.835  0.4457  0.0177 -0.1131
  541loPI   GL1 8645  10.508  14.874   9.483  0.0499  0.1998  0.0356
  541loPI   GL2 8646  10.509  15.159   9.405 -0.3164  0.1608  0.0967
  541loPI   C1A 8647  10.843  14.785   9.270  0.3087 -0.0269  0.1725
  541loPI   C2A 8648  10.938  14.636   8.902  0.0271  0.1869 -0.0768
  541loPI   C3A 8649  10.956  14.659   8.411  0.0990  0.0367 -0.0019
  541loPI   C4A 8650  11.045  14.652   7.891  0.0514  0.0237 -0.1737
  541loPI   C5A 8651  10.886  14.538   7.511  0.2644  0.2029 -0.2032
  541loPI   C6A 8652  10.722  14.780   7.134 -0.0794 -0.3386 -0.3036
  541loPI   C1B 8653  10.634  15.103   8.930 -0.0525 -0.2404  0.2250
  541loPI   C2B 8654  10.880  15.181   8.509  0.1268 -0.0859 -0.0265
  541loPI   C3B 8655  10.996  15.339   8.193  0.0127  0.1742 -0.0719
  541loPI   C4B 8656  10.865  15.153   7.783 -0.0206 -0.1174  0.1059
  542loPI    C1 8657   9.213   9.387   9.835  0.0318  0.1112 -0.1536
  542loPI    C2 8658   9.049   9.640  10.099  0.3257  0.0383  0.1044
  542loPI    C3 8659   9.447   9.615  10.066  0.2938 -0.0582 -0.2484
  542loPI   PO4 8660   9.161   9.378   9.620  0.1544  0.4712  0.1570
  542loPI   GL1 8661   9.291   9.518   9.247 -0.0864  0.0555 -0.2706
  542loPI   GL2 8662   9.488   9.777   9.051 -0.0447 -0.5395  0.0551
  542loPI   C1A 8663   9.297   9.298   8.883 -0.3664 -0.0844 -0.2596
  542loPI   C2A 8664   9.323   9.205   8.439  0.0437 -0.3639 -0.6613
  542loPI   C3A 8665   9.422   9.233   7.978 -0.0714 -0.1758 -0.0210
  542loPI   C4A 8666   9.171   9.367   7.693 -0.1551  0.0841 -0.0081
  542loPI   C5A 8667   8.869   9.549   7.439  0.0409  0.0834 -0.0377
  542loPI   C6A 8668   8.391   9.737   7.277 -0.0468 -0.2670  0.1302
  542loPI   C1B 8669   9.424   9.738   8.640 -0.0783 -0.1068 -0.0276
  542loPI   C2B 8670   9.394   9.658   8.211 -0.0529  0.1748  0.0761
  542loPI   C3B 8671   9.590   9.716   7.805  0.0264  0.0256  0.0451
  542loPI   C4B 8672   9.534   9.532   7.432 -0.2892 -0.0251 -0.2457
  543loPI    C1 8673   7.086  14.456   9.898 -0.0167 -0.0252 -0.0508
  543loPI    C2 8674   6.982  14.783  10.105  0.2022 -0.0501  0.1016
  543loPI    C3 8675   6.915  14.419  10.257 -0.3577 -0.0905 -0.2160
  543loPI   PO4 8676   7.265  14.646   9.692 -0.0688 -0.0502 -0.1838
  543loPI   GL1 8677   7.173  14.906   9.305 -0.0016  0.1707 -0.0637
  543loPI   GL2 8678   7.438  15.010   9.343  0.0187 -0.0025  0.0375
  543loPI   C1A 8679   7.289  14.854   8.889 -0.1117 -0.0298 -0.0828
  543loPI   C2A 8680   7.635  14.949   8.503  0.2811  0.0997 -0.2702
  543loPI   C3A 8681   7.770  14.994   7.971  0.3042  0.0397  0.0103
  543loPI   C4A 8682   7.937  14.863   7.659 -0.0021 -0.0009  0.3547
  543loPI   C5A 8683   8.188  14.904   7.238 -0.0137 -0.0811 -0.1413
  543loPI   C6A 8684   8.265  15.343   6.942 -0.3828 -0.1794 -0.5226
  543loPI   C1B 8685   7.712  15.200   8.979  0.2259 -0.0983 -0.2182
  543loPI   C2B 8686   8.042  15.442   9.041  0.0764  0.2348  0.0770
  543loPI   C3B 8687   8.421  15.673   8.809  0.2298  0.0390  0.0179
  543loPI   C4B 8688   8.503  15.587   8.404  0.5584  0.2445  0.1005
  544loPI    C1 8689  10.098   5.309   9.625 -0.1557 -0.1111  0.0735
  544loPI    C2 8690   9.994   5.636   9.831 -0.0126 -0.0009 -0.0271
  544loPI    C3 8691  10.377   5.577   9.728 -0.0245 -0.2405  0.0592
  544loPI   PO4 8692   9.964   4.955   9.696 -0.0089  0.1245  0.1018
  544loPI   GL1 8693   9.964   4.703   9.346 -0.2364 -0.1992  0.0076
  544loPI   GL2 8694   9.767   4.776   9.136  0.0105  0.0249 -0.1097
  544loPI   C1A 8695  10.095   4.444   9.078  0.2040 -0.0605 -0.1263
  544loPI   C2A 8696  10.157   4.645   8.637 -0.0977  0.3817 -0.0898
  544loPI   C3A 8697  10.213   4.651   8.196 -0.1306  0.2529 -0.0259
  544loPI   C4A 8698  10.320   4.374   7.862  0.0463 -0.1235 -0.0079
  544loPI   C5A 8699  10.705   4.311   7.558  0.1505 -0.0840 -0.1254
  544loPI   C6A 8700  10.938   3.862   7.428  0.1208 -0.0549  0.3613
  544loPI   C1B 8701   9.716   4.806   8.776  0.1748  0.0700  0.2535
  544loPI   C2B 8702   9.704   4.720   8.442 -0.1384 -0.0789 -0.0942
  544loPI   C3B 8703   9.532   4.786   7.994  0.0470  0.1999  0.0656
  544loPI   C4B 8704   9.550   4.933   7.566 -0.0194  0.0084  0.1082
  545loPI    C1 8705  13.651   2.626  10.189  0.1164 -0.1015 -0.0556
  545loPI    C2 8706  13.790   2.981  10.309  0.3070 -0.1896 -0.0115
  545loPI    C3 8707  13.450   2.837  10.463  0.1271  0.0581 -0.1691
  545loPI   PO4 8708  13.923   2.506  10.123  0.3993  0.2309 -0.0057
  545loPI   GL1 8709  13.931   2.285   9.700  0.1733  0.0866  0.2548
  545loPI   GL2 8710  13.534   2.299   9.739  0.0603  0.1992 -0.1759
  545loPI   C1A 8711  13.832   2.236   9.305  0.3319 -0.3459  0.0243
  545loPI   C2A 8712  13.956   2.127   8.958 -0.0316 -0.1356  0.0965
  545loPI   C3A 8713  14.204   2.083   8.563  0.3121 -0.3370  0.0930
  545loPI   C4A 8714  14.262   2.096   8.189 -0.0711  0.0026  0.0459
  545loPI   C5A 8715  13.941   2.067   7.808  0.2087 -0.2577 -0.2350
  545loPI   C6A 8716  13.938   1.951   7.316 -0.1320  0.5028 -0.1262
  545loPI   C1B 8717  13.846   2.759   9.536 -0.0074  0.0640  0.3064
  545loPI   C2B 8718  14.086   2.684   9.184  0.2047  0.0817  0.0429
  545loPI   C3B 8719  13.827   2.553   8.764  0.1554 -0.3780 -0.2473
  545loPI   C4B 8720  13.838   2.413   8.311  0.0552 -0.1092 -0.0877
  546loPI    C1 8721   6.169   7.404   9.824  0.0863  0.3063  0.0024
  546loPI    C2 8722   6.387   7.193  10.085 -0.0941  0.1324  0.0149
  546loPI    C3 8723   6.144   7.482  10.216 -0.4069 -0.1513  0.0731
  546loPI   PO4 8724   6.067   7.288   9.645 -0.0106  0.1938  0.2947
  546loPI   GL1 8725   6.188   7.337   9.126 -0.3005 -0.0512  0.1293
  546loPI   GL2 8726   6.085   7.515   8.868 -0.0897  0.2326  0.1174
  546loPI   C1A 8727   6.210   7.073   8.683 -0.0774  0.0489  0.3016
  546loPI   C2A 8728   6.306   7.092   8.235 -0.2938 -0.0202  0.0241
  546loPI   C3A 8729   6.349   7.056   7.788  0.1719  0.3136 -0.0443
  546loPI   C4A 8730   6.428   7.026   7.370 -0.0452  0.1597 -0.1045
  546loPI   C5A 8731   6.351   7.135   6.990 -0.3465 -0.0652 -0.2840
  546loPI   C6A 8732   5.969   7.282   6.797 -0.2303 -0.1044  0.1831
  546loPI   C1B 8733   5.968   7.420   8.459 -0.2748  0.0107  0.2451
  546loPI   C2B 8734   5.863   7.468   8.107  0.3573  0.0069  0.0562
  546loPI   C3B 8735   5.839   7.406   7.686  0.2076  0.1202 -0.0209
  546loPI   C4B 8736   5.946   7.085   7.364 -0.1363  0.2441  0.0515
  547loPI    C1 8737  18.412   5.770   9.839  0.2279  0.0290  0.3167
  547loPI    C2 8738  18.034   5.897   9.811  0.1851 -0.1084  0.2600
  547loPI    C3 8739  18.254   5.995  10.130  0.0475 -0.1691  0.3752
  547loPI   PO4 8740  18.541   5.855   9.570  0.0918  0.2794  0.2389
  547loPI   GL1 8741  18.613   5.778   9.067 -0.0716  0.2668  0.1420
  547loPI   GL2 8742  18.698   6.126   8.958  0.1812 -0.0575  0.0388
  547loPI   C1A 8743  18.465   5.734   8.633 -0.1610 -0.3125  0.0908
  547loPI   C2A 8744  18.407   5.597   8.194 -0.1568 -0.0285 -0.0140
  547loPI   C3A 8745  18.355   5.451   7.943  0.2937 -0.4533 -0.0912
  547loPI   C4A 8746  18.341   5.550   7.564  0.1468  0.3590  0.0442
  547loPI   C5A 8747  18.600   5.458   7.229 -0.0193  0.2310  0.0109
  547loPI   C6A 8748  18.901   5.312   6.946 -0.3870 -0.0629 -0.0531
  547loPI   C1B 8749  18.593   6.223   8.505 -0.1479 -0.1355  0.0328
  547loPI   C2B 8750  18.426   6.382   8.168  0.3352 -0.0017  0.0216
  547loPI   C3B 8751  18.551   6.469   7.850 -0.1342 -0.2074  0.0218
  547loPI   C4B 8752  18.524   6.800   7.539 -0.0871 -0.4884  0.0212
  548loPI    C1 8753  19.114  12.190   9.863  0.1790 -0.0829 -0.0437
  548loPI    C2 8754  18.890  12.475  10.032  0.0261 -0.0780 -0.2493
  548loPI    C3 8755  18.791  12.090  10.078  0.0580 -0.0830 -0.2227
  548loPI   PO4 8756  19.190  12.267   9.679  0.0343  0.1175 -0.1010
  548loPI   GL1 8757  19.270  12.075   9.327 -0.3610 -0.2618 -0.0782
  548loPI   GL2 8758  19.037  12.181   9.176 -0.2650  0.2602  0.1342
  548loPI   C1A 8759  19.481  12.289   8.959 -0.1837  0.0257  0.3171
  548loPI   C2A 8760  19.759  12.160   8.686  0.3678  0.1590  0.1623
  548loPI   C3A 8761  20.127  12.222   8.651  0.0058 -0.1848 -0.0620
  548loPI   C4A 8762  20.573  12.202   8.596 -0.0762  0.0664 -0.3657
  548loPI   C5A 8763  20.926  12.351   8.400 -0.1175 -0.0296 -0.2370
  548loPI   C6A 8764  21.188  12.415   8.069  0.0108 -0.0183 -0.1751
  548loPI   C1B 8765  18.987  12.320   8.791 -0.1007  0.2995 -0.0467
  548loPI   C2B 8766  19.296  12.482   8.481 -0.0231 -0.1200 -0.1049
  548loPI   C3B 8767  19.609  12.323   8.176 -0.0687 -0.0316  0.2858
  548loPI   C4B 8768  20.122  12.170   8.102 -0.2420  0.2401 -0.0046
  549loPI    C1 8769   9.059   6.213   9.278  0.1069 -0.1416 -0.0665
  549loPI    C2 8770   8.936   6.420   9.597  0.1005 -0.0273 -0.1424
  549loPI    C3 8771   9.215   6.136   9.638  0.2470  0.1248 -0.0670
  549loPI   PO4 8772   9.140   6.397   9.119  0.4896 -0.1385  0.1916
  549loPI   GL1 8773   8.999   6.667   8.842  0.0611  0.0466  0.1419
  549loPI   GL2 8774   8.721   6.539   8.762  0.0573 -0.1274  0.2619
  549loPI   C1A 8775   9.167   6.521   8.441 -0.1760  0.4620 -0.0724
  549loPI   C2A 8776   9.097   6.471   8.002  0.0561  0.0370 -0.1949
  549loPI   C3A 8777   9.054   6.386   7.600 -0.2428  0.1103  0.0504
  549loPI   C4A 8778   9.066   6.554   7.128 -0.2019 -0.0425  0.2252
  549loPI   C5A 8779   8.965   6.770   6.817  0.5372 -0.2702  0.2742
  549loPI   C6A 8780   8.781   7.083   6.681 -0.4195 -0.1082  0.0266
  549loPI   C1B 8781   8.718   6.370   8.368 -0.1056  0.0067  0.2992
  549loPI   C2B 8782   8.611   6.336   7.902  0.2776 -0.0378 -0.1280
  549loPI   C3B 8783   8.635   6.561   7.592  0.0015  0.2379  0.2367
  549loPI   C4B 8784   8.378   6.906   7.363 -0.3812 -0.1025 -0.0778
  550loPI    C1 8785  16.294   5.888   9.882  0.0592 -0.2722  0.2623
  550loPI    C2 8786  16.593   6.135   9.979 -0.1693  0.0383  0.1920
  550loPI    C3 8787  16.496   5.832  10.222  0.0271  0.0972  0.3464
  550loPI   PO4 8788  16.318   6.017   9.600  0.2916 -0.0220  0.3032
  550loPI   GL1 8789  16.333   5.778   9.286 -0.2218  0.1352 -0.1826
  550loPI   GL2 8790  15.976   5.810   9.250 -0.3261 -0.1649 -0.0201
  550loPI   C1A 8791  16.364   5.524   8.812  0.0544  0.0729 -0.0041
  550loPI   C2A 8792  16.340   5.423   8.284 -0.1033 -0.1518 -0.2926
  550loPI   C3A 8793  16.492   5.466   7.854  0.0100 -0.1741  0.1409
  550loPI   C4A 8794  16.617   5.688   7.427  0.1998 -0.2169 -0.0490
  550loPI   C5A 8795  16.593   6.057   7.272 -0.0930  0.1004  0.0592
  550loPI   C6A 8796  16.649   6.246   6.968 -0.2543 -0.0198  0.1218
  550loPI   C1B 8797  15.801   5.560   8.943 -0.1229 -0.1508  0.1668
  550loPI   C2B 8798  15.599   5.312   8.494  0.0641 -0.0008  0.1080
  550loPI   C3B 8799  15.481   5.278   8.032  0.1735 -0.0675  0.2106
  550loPI   C4B 8800  15.628   5.027   7.759  0.3251  0.1179  0.3002
  551loPI    C1 8801   2.437   5.745   9.680  0.0348 -0.1044  0.1137
  551loPI    C2 8802   2.294   5.965   9.982  0.0796  0.0550  0.0198
  551loPI    C3 8803   2.277   5.566  10.000 -0.1236  0.0675  0.1323
  551loPI   PO4 8804   2.775   5.746   9.667  0.0045 -0.2937  0.0068
  551loPI   GL1 8805   2.948   5.673   9.298  0.1209 -0.1071 -0.3362
  551loPI   GL2 8806   2.767   5.968   9.260 -0.0563  0.1837  0.1543
  551loPI   C1A 8807   2.681   5.679   8.873  0.2545  0.0064 -0.1958
  551loPI   C2A 8808   2.658   5.464   8.505 -0.1270  0.3379  0.4665
  551loPI   C3A 8809   2.739   5.459   8.123  0.0946 -0.0231  0.0301
  551loPI   C4A 8810   2.639   5.450   7.712 -0.0737 -0.0546  0.0125
  551loPI   C5A 8811   2.437   5.449   7.266  0.0789 -0.1315  0.1199
  551loPI   C6A 8812   2.200   5.386   6.835  0.1165  0.5088  0.1422
  551loPI   C1B 8813   2.956   6.046   8.900 -0.0276 -0.0477  0.0174
  551loPI   C2B 8814   3.155   5.926   8.647 -0.1071 -0.2555 -0.1820
  551loPI   C3B 8815   3.034   5.829   8.313 -0.0397 -0.0085 -0.1167
  551loPI   C4B 8816   2.960   5.835   7.849  0.0995 -0.2568  0.3063
  552loPI    C1 8817  13.529   1.718  10.550 -0.0276 -0.1353  0.1630
  552loPI    C2 8818  13.718   2.056  10.651 -0.1435 -0.0361  0.0518
  552loPI    C3 8819  13.488   1.867  10.919 -0.1229  0.0034  0.0974
  552loPI   PO4 8820  13.714   1.640  10.331  0.1088  0.0295  0.0511
  552loPI   GL1 8821  13.703   1.727   9.933  0.0368 -0.1939 -0.0790
  552loPI   GL2 8822  13.481   1.806   9.737  0.0299  0.0303 -0.1397
  552loPI   C1A 8823  13.960   1.744   9.573  0.0442  0.0158  0.3325
  552loPI   C2A 8824  14.101   1.701   9.134  0.0491 -0.0243  0.2984
  552loPI   C3A 8825  14.056   1.665   8.670  0.0959 -0.0864  0.0049
  552loPI   C4A 8826  14.132   1.614   8.236  0.1829  0.1408  0.1768
  552loPI   C5A 8827  14.242   1.727   7.807 -0.1210 -0.0372  0.3108
  552loPI   C6A 8828  14.535   1.890   7.440  0.0230  0.1109  0.1312
  552loPI   C1B 8829  13.509   1.863   9.259  0.2868  0.1993  0.0290
  552loPI   C2B 8830  13.537   1.867   8.750 -0.1855  0.0436 -0.0253
  552loPI   C3B 8831  13.690   1.937   8.415  0.0099  0.3755  0.0243
  552loPI   C4B 8832  13.634   1.736   8.031 -0.1541  0.2028  0.0922
  553loPI    C1 8833  15.590  11.208   9.488 -0.2849  0.0713 -0.1594
  553loPI    C2 8834  15.785  11.063   9.805 -0.0515  0.4025 -0.1454
  553loPI    C3 8835  15.723  10.831   9.485 -0.0638  0.1452  0.0400
  553loPI   PO4 8836  15.732  11.518   9.465  0.0790  0.1395  0.0098
  553loPI   GL1 8837  15.754  11.748   9.063 -0.0363  0.3093  0.1211
  553loPI   GL2 8838  15.928  11.469   9.048  0.2153  0.1037  0.0070
  553loPI   C1A 8839  15.696  11.762   8.641  0.3585 -0.0624  0.0596
  553loPI   C2A 8840  15.942  11.791   8.136  0.3583  0.0764 -0.0327
  553loPI   C3A 8841  16.357  11.911   7.832 -0.0952  0.1120  0.0334
  553loPI   C4A 8842  16.516  11.773   7.518  0.3713  0.0525  0.1806
  553loPI   C5A 8843  16.896  11.979   7.380 -0.1887  0.0870  0.1467
  553loPI   C6A 8844  17.319  11.899   7.368 -0.0052  0.0403  0.0501
  553loPI   C1B 8845  16.070  11.431   8.716 -0.1448  0.0116 -0.2498
  553loPI   C2B 8846  16.056  11.286   8.299  0.0955 -0.0665  0.1219
  553loPI   C3B 8847  16.053  11.365   7.871  0.0500  0.1941  0.0189
  553loPI   C4B 8848  15.900  11.614   7.632 -0.0739  0.0850  0.1895
  554loPI    C1 8849  12.000  12.987   9.839 -0.2158  0.0570  0.0381
  554loPI    C2 8850  12.057  13.280  10.105  0.2839  0.1458 -0.1557
  554loPI    C3 8851  12.055  12.899  10.225 -0.1124  0.2103  0.0592
  554loPI   PO4 8852  12.093  13.033   9.669  0.1134 -0.0684  0.0732
  554loPI   GL1 8853  12.104  13.141   9.333  0.3366 -0.0721  0.2539
  554loPI   GL2 8854  12.105  12.910   9.173 -0.0129 -0.0114  0.0462
  554loPI   C1A 8855  12.254  13.446   9.009  0.1327  0.0126 -0.0554
  554loPI   C2A 8856  12.274  13.393   8.594 -0.0207  0.1006  0.1327
  554loPI   C3A 8857  12.352  13.353   8.106 -0.0832 -0.0724 -0.3212
  554loPI   C4A 8858  12.327  13.287   7.677 -0.3669  0.0536 -0.2676
  554loPI   C5A 8859  12.072  13.173   7.305 -0.2225 -0.2454  0.2507
  554loPI   C6A 8860  11.694  12.978   7.378  0.0174  0.0566  0.1016
  554loPI   C1B 8861  11.879  13.100   8.791  0.1642 -0.1905 -0.1738
  554loPI   C2B 8862  11.806  13.422   8.514 -0.0014 -0.1095 -0.0431
  554loPI   C3B 8863  11.787  13.500   8.053  0.1656 -0.0597 -0.5622
  554loPI   C4B 8864  11.822  13.557   7.607 -0.1936  0.4799 -0.0393
  555loPI    C1 8865  18.221   8.743  10.237  0.2202  0.0454 -0.0408
  555loPI    C2 8866  18.167   8.352  10.301  0.0548  0.0246 -0.2901
  555loPI    C3 8867  18.386   8.568  10.556  0.2282 -0.2493 -0.2022
  555loPI   PO4 8868  18.220   8.769   9.990  0.3688 -0.0558  0.1308
  555loPI   GL1 8869  18.513   8.843   9.668  0.0355  0.0984 -0.3916
  555loPI   GL2 8870  18.511   8.538   9.451  0.0302  0.1344 -0.0417
  555loPI   C1A 8871  18.654   8.996   9.297  0.1157 -0.2488  0.0565
  555loPI   C2A 8872  18.803   9.104   9.081 -0.1489  0.1740  0.0454
  555loPI   C3A 8873  19.093   9.076   8.696 -0.1361  0.2071 -0.1971
  555loPI   C4A 8874  19.230   8.938   8.231  0.0907  0.1366  0.0632
  555loPI   C5A 8875  19.083   8.991   7.772  0.1979 -0.0504  0.0737
  555loPI   C6A 8876  18.729   8.940   7.363  0.1305  0.1825 -0.0195
  555loPI   C1B 8877  18.415   8.214   9.092  0.1601  0.1696  0.0278
  555loPI   C2B 8878  18.269   7.998   8.635  0.0410  0.0334 -0.1807
  555loPI   C3B 8879  18.279   7.837   8.212  0.1484  0.0402  0.1228
  555loPI   C4B 8880  18.091   7.613   7.828 -0.3589  0.0746  0.0158
  556loPI    C1 8881   1.661   0.769  10.301  0.1169 -0.1941  0.0784
  556loPI    C2 8882   2.032   0.880  10.400 -0.0018  0.2597  0.0341
  556loPI    C3 8883   1.768   0.786  10.686  0.0810  0.1519  0.0759
  556loPI   PO4 8884   1.504   1.025  10.118 -0.2171 -0.0020 -0.0530
  556loPI   GL1 8885   1.470   0.925   9.694 -0.0968  0.2404 -0.1549
  556loPI   GL2 8886   1.601   1.079   9.482 -0.1652 -0.1431 -0.4281
  556loPI   C1A 8887   1.500   0.596   9.353 -0.1704 -0.1766 -0.0873
  556loPI   C2A 8888   1.432   0.338   8.988  0.1860  0.1228 -0.1534
  556loPI   C3A 8889   1.337   0.336   8.569  0.2416  0.1435  0.0481
  556loPI   C4A 8890   1.302   0.212   8.133  0.0798 -0.2412 -0.3908
  556loPI   C5A 8891   1.185   0.201   7.713  0.0078 -0.0705 -0.2311
  556loPI   C6A 8892   1.134   0.449   7.430  0.1021  0.1496  0.1159
  556loPI   C1B 8893   1.561   1.102   9.049  0.2407 -0.0245 -0.1291
  556loPI   C2B 8894   1.420   0.819   8.686  0.1121  0.1136  0.1369
  556loPI   C3B 8895   1.318   0.806   8.255  0.1016 -0.3277  0.3315
  556loPI   C4B 8896   1.266   0.711   7.830  0.1148 -0.2408  0.0295
  557loPI    C1 8897   5.573   9.840   9.653  0.3111 -0.0076 -0.0704
  557loPI    C2 8898   5.686  10.198   9.514 -0.1690  0.1761 -0.0057
  557loPI    C3 8899   5.709  10.119   9.906 -0.0867  0.1432 -0.0168
  557loPI   PO4 8900   5.509   9.609   9.504  0.0311 -0.0312  0.0012
  557loPI   GL1 8901   5.225   9.526   9.206 -0.0915  0.1936  0.1461
  557loPI   GL2 8902   5.401   9.700   8.986  0.0188 -0.0746 -0.3159
  557loPI   C1A 8903   4.874   9.765   8.938 -0.0482  0.0649  0.1980
  557loPI   C2A 8904   4.775   9.771   8.525  0.0306 -0.1534  0.2578
  557loPI   C3A 8905   4.703   9.554   8.149  0.4367 -0.0121  0.2688
  557loPI   C4A 8906   4.622   9.374   7.803 -0.1885  0.0001  0.0059
  557loPI   C5A 8907   4.668   9.105   7.483 -0.1159 -0.1699 -0.0307
  557loPI   C6A 8908   4.670   8.738   7.279  0.0529  0.2954 -0.0199
  557loPI   C1B 8909   5.286   9.757   8.530 -0.0510  0.0392 -0.2554
  557loPI   C2B 8910   5.174   9.876   8.164  0.3576 -0.1488 -0.2390
  557loPI   C3B 8911   5.333  10.128   7.930 -0.1449 -0.1003 -0.0210
  557loPI   C4B 8912   5.383  10.345   7.600 -0.3033 -0.2138  0.1553
  558loPI    C1 8913   6.094   9.578   9.996  0.2621 -0.0980 -0.0786
  558loPI    C2 8914   5.919   9.803  10.277  0.2547  0.0482 -0.1989
  558loPI    C3 8915   5.721   9.496  10.113  0.2578 -0.0351 -0.0481
  558loPI   PO4 8916   6.094   9.727   9.704  0.3533  0.0252  0.2453
  558loPI   GL1 8917   6.353   9.893   9.348 -0.2448 -0.2192  0.0934
  558loPI   GL2 8918   6.596  10.132   9.288  0.0149  0.3492  0.0300
  558loPI   C1A 8919   6.269   9.987   8.921  0.2945  0.2435 -0.0333
  558loPI   C2A 8920   6.227  10.041   8.529 -0.2954 -0.0212 -0.0053
  558loPI   C3A 8921   6.444   9.974   8.084  0.4067 -0.0208  0.0232
  558loPI   C4A 8922   6.397   9.894   7.628  0.2412 -0.4143  0.1502
  558loPI   C5A 8923   6.593   9.944   7.224  0.0642  0.2248  0.2666
  558loPI   C6A 8924   6.719   9.837   6.823  0.3801 -0.0028  0.3249
  558loPI   C1B 8925   6.677  10.265   8.858  0.1528 -0.3024 -0.1401
  558loPI   C2B 8926   6.698  10.411   8.481 -0.1372  0.0150  0.1597
  558loPI   C3B 8927   6.810  10.362   8.012 -0.0682 -0.0029  0.2183
  558loPI   C4B 8928   6.702  10.348   7.629  0.0065 -0.3111 -0.2986
  559loPI    C1 8929   9.275  12.082   9.362  0.2008  0.1362 -0.0778
  559loPI    C2 8930   9.353  12.148   9.749  0.2659  0.2812 -0.1148
  559loPI    C3 8931   9.514  11.833   9.563 -0.0212  0.0289  0.0564
  559loPI   PO4 8932   8.956  12.309   9.361  0.1789  0.2442  0.2774
  559loPI   GL1 8933   8.618  12.201   9.091 -0.2592  0.0997  0.0488
  559loPI   GL2 8934   8.309  12.331   9.265  0.2379  0.0422 -0.2517
  559loPI   C1A 8935   8.444  12.265   8.738  0.0897  0.2143 -0.1497
  559loPI   C2A 8936   8.265  12.181   8.319 -0.1200 -0.0627 -0.0321
  559loPI   C3A 8937   8.359  12.291   7.934  0.1980 -0.0158 -0.1359
  559loPI   C4A 8938   8.243  12.714   7.913  0.0628 -0.2299  0.0681
  559loPI   C5A 8939   7.969  12.923   7.588 -0.3004 -0.2643 -0.0046
  559loPI   C6A 8940   7.604  12.947   7.348  0.0058  0.0873 -0.0692
  559loPI   C1B 8941   7.950  12.315   8.900  0.1178  0.0799  0.0381
  559loPI   C2B 8942   7.903  12.500   8.571  0.3877 -0.0041  0.0813
  559loPI   C3B 8943   7.820  12.347   8.075  0.1880  0.1180  0.0195
  559loPI   C4B 8944   7.598  12.595   7.743 -0.2780  0.1390  0.1896
  560loPI    C1 8945  17.605  15.028   9.891 -0.2481  0.1337 -0.0360
  560loPI    C2 8946  17.313  15.128  10.145 -0.1518  0.1340  0.0754
  560loPI    C3 8947  17.628  14.917  10.274 -0.1520  0.0449 -0.0667
  560loPI   PO4 8948  17.462  14.880   9.730 -0.0725  0.1653 -0.2273
  560loPI   GL1 8949  17.273  15.007   9.376  0.0909  0.3056  0.0008
  560loPI   GL2 8950  17.183  15.340   9.572  0.1098  0.0699  0.2807
  560loPI   C1A 8951  17.094  14.735   8.987 -0.3287  0.1752 -0.1694
  560loPI   C2A 8952  17.027  14.730   8.531  0.0151 -0.0072 -0.2382
  560loPI   C3A 8953  16.880  14.794   8.045 -0.0378 -0.0188 -0.0265
  560loPI   C4A 8954  16.677  14.752   7.727 -0.5217 -0.2895  0.0919
  560loPI   C5A 8955  16.524  14.448   7.458 -0.0097 -0.0639 -0.0286
  560loPI   C6A 8956  16.079  14.254   7.526 -0.0631  0.1911 -0.0688
  560loPI   C1B 8957  17.028  15.377   9.122  0.2942 -0.0718 -0.0244
  560loPI   C2B 8958  17.077  15.200   8.698 -0.0724 -0.1570 -0.0412
  560loPI   C3B 8959  17.059  15.227   8.297 -0.2693  0.1065 -0.1124
  560loPI   C4B 8960  17.212  15.269   7.866  0.0699 -0.0232 -0.2344
  561loPI    C1 8961   7.168  16.740  10.060  0.0756 -0.1856  0.0745
  561loPI    C2 8962   6.797  16.691  10.203 -0.0047 -0.1321 -0.1124
  561loPI    C3 8963   7.045  16.954  10.376 -0.0848 -0.1016 -0.0430
  561loPI   PO4 8964   7.301  16.467  10.014 -0.2655  0.1026 -0.1473
  561loPI   GL1 8965   7.388  16.229   9.584  0.1159 -0.0339 -0.1883
  561loPI   GL2 8966   7.688  16.444   9.442  0.0848 -0.0610 -0.3520
  561loPI   C1A 8967   7.411  16.201   9.149 -0.1151 -0.0044 -0.1689
  561loPI   C2A 8968   7.440  16.030   8.709 -0.2159  0.1458  0.1427
  561loPI   C3A 8969   7.495  15.979   8.227  0.0433  0.2573 -0.2882
  561loPI   C4A 8970   7.677  16.134   7.762 -0.0904  0.0091 -0.4850
  561loPI   C5A 8971   7.644  15.869   7.403  0.2729  0.1227  0.0070
  561loPI   C6A 8972   7.694  15.986   7.029 -0.1055  0.2212 -0.0165
  561loPI   C1B 8973   7.917  16.385   9.093 -0.1683 -0.1338 -0.1240
  561loPI   C2B 8974   7.953  16.389   8.612 -0.0168  0.0124 -0.1659
  561loPI   C3B 8975   8.081  16.197   8.180  0.1389 -0.1050  0.1508
  561loPI   C4B 8976   8.548  16.183   7.973  0.0400 -0.0917 -0.1092
  562loPI    C1 8977  12.437  13.835  10.293  0.0506 -0.0230  0.0504
  562loPI    C2 8978  12.316  13.606  10.597  0.1148 -0.0141  0.0830
  562loPI    C3 8979  12.203  13.989  10.579 -0.0672 -0.0713 -0.0193
  562loPI   PO4 8980  12.384  13.730   9.980 -0.2023  0.0212 -0.4459
  562loPI   GL1 8981  12.627  13.850   9.637 -0.1390 -0.0006  0.1335
  562loPI   GL2 8982  12.976  13.816   9.466  0.3809  0.1356 -0.0105
  562loPI   C1A 8983  12.647  13.534   9.251 -0.0528  0.3389 -0.2009
  562loPI   C2A 8984  12.757  13.418   8.731  0.1536 -0.0319  0.0177
  562loPI   C3A 8985  12.805  13.281   8.330 -0.0870 -0.0863 -0.0101
  562loPI   C4A 8986  12.898  13.368   7.886 -0.0977 -0.0729 -0.5112
  562loPI   C5A 8987  13.075  13.581   7.500 -0.2300  0.2582  0.0141
  562loPI   C6A 8988  12.956  13.817   7.087 -0.0691  0.5385 -0.1465
  562loPI   C1B 8989  12.900  13.894   9.018 -0.3352  0.1763 -0.1112
  562loPI   C2B 8990  13.057  13.780   8.592  0.0288  0.2512 -0.1665
  562loPI   C3B 8991  13.368  13.933   8.439 -0.0160 -0.2230  0.3233
  562loPI   C4B 8992  13.766  13.891   8.444  0.3991 -0.1814 -0.2474
  563loPI    C1 8993  17.929  11.686   9.594  0.0369 -0.0359  0.2880
  563loPI    C2 8994  17.683  11.460   9.813 -0.0798  0.1458  0.3466
  563loPI    C3 8995  17.565  11.821   9.688 -0.1475 -0.0892 -0.3063
  563loPI   PO4 8996  18.048  11.584   9.356  0.0174  0.0466  0.1131
  563loPI   GL1 8997  18.288  11.806   9.095  0.1664 -0.4007 -0.0098
  563loPI   GL2 8998  18.544  11.971   8.974 -0.0864 -0.0560 -0.0152
  563loPI   C1A 8999  18.165  11.676   8.697 -0.0609  0.1223  0.0421
  563loPI   C2A 9000  18.289  11.794   8.264 -0.0662 -0.0309  0.0353
  563loPI   C3A 9001  18.345  11.781   7.826  0.1247 -0.0930  0.0851
  563loPI   C4A 9002  18.584  11.653   7.447  0.1026  0.0217  0.3150
  563loPI   C5A 9003  18.946  11.699   7.107 -0.0253 -0.0777 -0.2649
  563loPI   C6A 9004  19.004  11.504   6.685 -0.3701  0.2791 -0.2413
  563loPI   C1B 9005  18.535  12.083   8.573  0.2222 -0.3897  0.0049
  563loPI   C2B 9006  18.563  12.229   8.083 -0.1091  0.2220 -0.0850
  563loPI   C3B 9007  18.679  12.246   7.666  0.1076  0.0160  0.0150
  563loPI   C4B 9008  18.913  12.278   7.211 -0.0342 -0.0702  0.2807
  564loPI    C1 9009   7.819   0.573  10.009 -0.0784  0.0037 -0.0491
  564loPI    C2 9010   7.917   0.960  10.026  0.3566 -0.1050  0.0419
  564loPI    C3 9011   8.121   0.693  10.243  0.1354 -0.4007 -0.1081
  564loPI   PO4 9012   7.777   0.460   9.701 -0.4875 -0.0722 -0.1286
  564loPI   GL1 9013   7.964   0.487   9.307  0.1194  0.1538 -0.0526
  564loPI   GL2 9014   7.860   0.758   9.103 -0.2419  0.2348  0.1977
  564loPI   C1A 9015   7.718   0.111   9.070 -0.4299 -0.0920 -0.0294
  564loPI   C2A 9016   7.956  -0.059   8.665 -0.2022 -0.2207  0.0113
  564loPI   C3A 9017   8.172  -0.119   8.205  0.0424 -0.3062  0.2259
  564loPI   C4A 9018   8.037  -0.217   7.771  0.2260  0.1193 -0.1941
  564loPI   C5A 9019   7.894  -0.135   7.346  0.1086 -0.2386  0.0794
  564loPI   C6A 9020   7.495  -0.297   7.102  0.1462  0.0583 -0.0543
  564loPI   C1B 9021   8.025   0.455   8.787  0.1853 -0.0016 -0.1397
  564loPI   C2B 9022   7.776   0.425   8.391 -0.2176  0.1982  0.5474
  564loPI   C3B 9023   7.778   0.255   8.081 -0.1110  0.3540  0.1540
  564loPI   C4B 9024   7.583   0.086   7.652  0.0580  0.0408 -0.1887
  565loPI    C1 9025  17.008  17.960  10.585  0.1900 -0.5061  0.1353
  565loPI    C2 9026  16.862  18.260  10.805  0.0539 -0.2212 -0.3284
  565loPI    C3 9027  17.018  17.938  10.984 -0.0180  0.0148  0.1770
  565loPI   PO4 9028  16.829  17.893  10.458 -0.1476 -0.3444  0.0580
  565loPI   GL1 9029  16.731  17.825  10.014 -0.2604 -0.1519 -0.3739
  565loPI   GL2 9030  16.588  18.087   9.963 -0.1522  0.2360  0.2559
  565loPI   C1A 9031  16.817  17.648   9.594  0.0376 -0.0934  0.2396
  565loPI   C2A 9032  16.737  17.672   9.067  0.0882  0.2051  0.2275
  565loPI   C3A 9033  16.736  17.852   8.553 -0.1211 -0.2006  0.0323
  565loPI   C4A 9034  16.754  17.759   8.139  0.0461  0.1589 -0.2128
  565loPI   C5A 9035  16.988  17.853   7.708  0.0157  0.1532 -0.0388
  565loPI   C6A 9036  17.304  17.949   7.555  0.0642 -0.1383  0.3117
  565loPI   C1B 9037  16.518  18.062   9.521 -0.0193 -0.0932 -0.2414
  565loPI   C2B 9038  16.455  18.074   9.087  0.0436  0.1830  0.2228
  565loPI   C3B 9039  16.328  18.037   8.716  0.2929  0.0912  0.0269
  565loPI   C4B 9040  16.275  17.761   8.373  0.0405 -0.1368 -0.1029
  566loPI    C1 9041  17.416   2.049  10.123  0.0738 -0.0443  0.1470
  566loPI    C2 9042  17.117   2.300  10.209  0.0871 -0.0279  0.1451
  566loPI    C3 9043  17.463   2.327  10.408  0.1590  0.0864  0.0069
  566loPI   PO4 9044  17.289   1.922   9.893  0.0547  0.2816 -0.0976
  566loPI   GL1 9045  17.461   1.945   9.473  0.0330  0.2542  0.1559
  566loPI   GL2 9046  17.441   1.701   9.255  0.0044 -0.0643 -0.0195
  566loPI   C1A 9047  17.124   2.026   9.125 -0.0500 -0.1498 -0.3433
  566loPI   C2A 9048  17.130   1.799   8.663  0.0827 -0.3117 -0.0716
  566loPI   C3A 9049  17.056   1.622   8.338 -0.0707 -0.1177 -0.2316
  566loPI   C4A 9050  16.936   1.364   8.003 -0.0712 -0.0530 -0.0760
  566loPI   C5A 9051  16.863   1.146   7.634  0.0174  0.2790 -0.1097
  566loPI   C6A 9052  16.652   0.900   7.589 -0.1593  0.1338 -0.0363
  566loPI   C1B 9053  17.520   1.359   9.054 -0.2298  0.0651 -0.1244
  566loPI   C2B 9054  17.594   0.957   8.781  0.1314  0.2569  0.0178
  566loPI   C3B 9055  17.379   0.976   8.337  0.0461 -0.0560  0.0518
  566loPI   C4B 9056  17.520   1.379   8.152  0.1709 -0.1602 -0.0359
  567loPI    C1 9057  11.664  14.828  10.087 -0.0279 -0.1827 -0.0686
  567loPI    C2 9058  11.586  14.480  10.268 -0.0206 -0.0653  0.1638
  567loPI    C3 9059  11.812  14.754  10.452 -0.0431  0.0708 -0.0092
  567loPI   PO4 9060  11.332  14.874   9.931  0.0280  0.3406  0.2545
  567loPI   GL1 9061  11.215  15.007   9.514  0.0321 -0.0475  0.1122
  567loPI   GL2 9062  11.375  14.728   9.365  0.0084 -0.2990  0.0818
  567loPI   C1A 9063  11.156  15.075   9.025 -0.0712 -0.0050  0.2061
  567loPI   C2A 9064  11.295  14.912   8.666 -0.2436  0.1790 -0.1172
  567loPI   C3A 9065  11.432  14.598   8.359 -0.2853  0.1208  0.0035
  567loPI   C4A 9066  11.562  14.521   7.930 -0.0180 -0.2542 -0.1936
  567loPI   C5A 9067  11.453  14.306   7.494 -0.0839  0.1925 -0.1559
  567loPI   C6A 9068  11.731  14.533   7.253 -0.2471  0.0619 -0.1294
  567loPI   C1B 9069  11.676  14.931   9.161  0.2257  0.1378 -0.1320
  567loPI   C2B 9070  11.941  14.760   8.799  0.1571 -0.3653 -0.3524
  567loPI   C3B 9071  11.894  14.737   8.342 -0.1269 -0.0020 -0.0367
  567loPI   C4B 9072  11.972  14.956   8.036  0.2641  0.1003  0.0447
  568loPI    C1 9073  16.001   3.952  10.305 -0.0783  0.2791 -0.0902
  568loPI    C2 9074  15.663   4.158  10.248 -0.2196  0.1044  0.0994
  568loPI    C3 9075  15.691   3.900  10.552  0.0256 -0.0089 -0.0160
  568loPI   PO4 9076  16.117   3.738  10.077 -0.0762  0.0604 -0.0941
  568loPI   GL1 9077  16.283   3.526   9.687 -0.0077 -0.0865  0.1721
  568loPI   GL2 9078  15.898   3.552   9.528 -0.0152  0.2994  0.0250
  568loPI   C1A 9079  16.284   3.526   9.225  0.1068  0.0150  0.0827
  568loPI   C2A 9080  16.042   3.545   8.820 -0.1151 -0.2687  0.1406
  568loPI   C3A 9081  15.766   3.331   8.639 -0.2600 -0.4069 -0.0746
  568loPI   C4A 9082  15.691   3.360   8.204 -0.0340  0.0903  0.1145
  568loPI   C5A 9083  15.486   3.172   7.864  0.0082  0.3764  0.2169
  568loPI   C6A 9084  14.961   3.201   7.815 -0.1614 -0.0167  0.3999
  568loPI   C1B 9085  15.726   3.815   9.120 -0.1088  0.1019  0.1970
  568loPI   C2B 9086  15.577   3.874   8.646  0.2167  0.2597  0.2954
  568loPI   C3B 9087  15.650   3.890   8.076  0.3816 -0.1048 -0.0504
  568loPI   C4B 9088  15.939   3.620   7.836  0.0387  0.2483 -0.1359
  569loPI    C1 9089   7.513  10.293   9.527 -0.1074  0.0331  0.1422
  569loPI    C2 9090   7.811  10.144   9.749  0.0678 -0.0943 -0.1731
  569loPI    C3 9091   7.643  10.493   9.848  0.3239 -0.0197  0.0062
  569loPI   PO4 9092   7.524  10.124   9.350  0.0054  0.0983 -0.2783
  569loPI   GL1 9093   7.300  10.132   9.010  0.0057  0.2479  0.1812
  569loPI   GL2 9094   7.389  10.448   8.934  0.1073 -0.1036 -0.1810
  569loPI   C1A 9095   7.364  10.031   8.567 -0.5759  0.0619  0.0556
  569loPI   C2A 9096   7.676   9.999   8.268  0.4394  0.1623 -0.0685
  569loPI   C3A 9097   7.789   9.915   7.800  0.1450 -0.0295  0.0617
  569loPI   C4A 9098   7.851   9.734   7.417  0.2106 -0.0799  0.1673
  569loPI   C5A 9099   7.738   9.439   7.152 -0.1782 -0.1612  0.5284
  569loPI   C6A 9100   7.379   9.156   7.037  0.1907 -0.1111  0.1287
  569loPI   C1B 9101   7.153  10.712   8.694 -0.2029  0.0159 -0.0298
  569loPI   C2B 9102   7.011  10.730   8.315 -0.0665  0.2228  0.0597
  569loPI   C3B 9103   7.171  10.722   7.848 -0.2381  0.0313  0.0668
  569loPI   C4B 9104   7.492  10.771   7.632  0.1270  0.3173 -0.0344
  570loPI    C1 9105  10.412   9.957  10.111 -0.0460 -0.2935 -0.5050
  570loPI    C2 9106  10.756   9.758  10.071  0.1291 -0.1365  0.1115
  570loPI    C3 9107  10.518   9.685  10.384 -0.2416 -0.0064 -0.1332
  570loPI   PO4 9108  10.320   9.967   9.893 -0.0284 -0.1774 -0.1431
  570loPI   GL1 9109  10.137   9.702   9.641 -0.0428  0.1792 -0.0874
  570loPI   GL2 9110   9.967   9.446   9.553  0.0193  0.0460 -0.0973
  570loPI   C1A 9111  10.337   9.711   9.264  0.1199 -0.1653 -0.0630
  570loPI   C2A 9112  10.340   9.619   8.823 -0.0939  0.0834  0.0382
  570loPI   C3A 9113  10.285   9.621   8.298 -0.0101 -0.1154  0.2562
  570loPI   C4A 9114  10.404   9.505   7.936  0.1561 -0.4450  0.0291
  570loPI   C5A 9115  10.532   9.374   7.553 -0.0909 -0.0162  0.1946
  570loPI   C6A 9116  10.846   9.146   7.309  0.1096 -0.1392  0.0148
  570loPI   C1B 9117   9.876   9.469   9.220 -0.2468  0.3867 -0.0506
  570loPI   C2B 9118   9.814   9.476   8.694 -0.1514 -0.0316 -0.0811
  570loPI   C3B 9119   9.829   9.343   8.312  0.3498 -0.2832 -0.0186
  570loPI   C4B 9120   9.887   9.346   7.893 -0.3876  0.0468  0.1565
  571loPI    C1 9121   3.705  18.153   9.898  0.3243 -0.0069  0.1803
  571loPI    C2 9122   3.481  18.447  10.051  0.2346  0.0875 -0.1230
  571loPI    C3 9123   3.776  18.286  10.268 -0.2060 -0.1314  0.3349
  571loPI   PO4 9124   3.653  18.237   9.659 -0.0831  0.1300  0.0479
  571loPI   GL1 9125   3.519  18.309   9.343 -0.1791 -0.1455 -0.1025
  571loPI   GL2 9126   3.484  17.945   9.159 -0.0322  0.0077 -0.0073
  571loPI   C1A 9127   3.735  18.503   9.006 -0.3525  0.1393  0.0334
  571loPI   C2A 9128   3.648  18.634   8.658 -0.0974 -0.2441 -0.2433
  571loPI   C3A 9129   3.668  18.355   8.249  0.0560 -0.1883  0.0041
  571loPI   C4A 9130   3.648  18.431   7.776  0.0578 -0.2623 -0.1142
  571loPI   C5A 9131   3.735  18.113   7.473  0.1390 -0.0216 -0.1952
  571loPI   C6A 9132   3.564  17.765   7.307 -0.0151 -0.1395  0.1224
  571loPI   C1B 9133   3.386  18.191   8.875  0.0001 -0.0182  0.1944
  571loPI   C2B 9134   3.076  18.334   8.627 -0.0747 -0.2267  0.0979
  571loPI   C3B 9135   2.952  18.200   8.270 -0.0592 -0.2429  0.1185
  571loPI   C4B 9136   2.935  17.760   8.160 -0.1206 -0.0773  0.1657
  572loPI    C1 9137   2.768   2.534   9.826  0.1310 -0.0536 -0.0055
  572loPI    C2 9138   2.945   2.331   9.531  0.0478  0.0584 -0.1335
  572loPI    C3 9139   3.051   2.710   9.604  0.0853  0.0233 -0.0032
  572loPI   PO4 9140   2.528   2.488   9.796 -0.0263 -0.1162  0.0469
  572loPI   GL1 9141   2.386   2.562   9.480  0.1439 -0.1718 -0.1045
  572loPI   GL2 9142   2.570   2.831   9.431  0.0323  0.2308  0.0432
  572loPI   C1A 9143   2.488   2.535   9.041  0.1923 -0.1714  0.1053
  572loPI   C2A 9144   2.595   2.561   8.612 -0.0801 -0.0329  0.3271
  572loPI   C3A 9145   2.528   2.711   8.181 -0.1173  0.0174 -0.2490
  572loPI   C4A 9146   2.400   2.909   7.823 -0.4145  0.0791 -0.1333
  572loPI   C5A 9147   2.183   2.597   7.584  0.2806 -0.1885 -0.0209
  572loPI   C6A 9148   2.118   2.330   7.453  0.0085 -0.1310  0.1494
  572loPI   C1B 9149   2.589   3.053   9.026  0.1420 -0.0547  0.1089
  572loPI   C2B 9150   2.380   3.077   8.530 -0.0695 -0.3481  0.2151
  572loPI   C3B 9151   2.396   3.376   8.182  0.2044 -0.2357  0.1242
  572loPI   C4B 9152   2.576   3.564   7.916  0.2469 -0.1173  0.0965
  573loPI    C1 9153   3.018   7.331   9.898  0.0620  0.0700 -0.0542
  573loPI    C2 9154   2.967   7.631  10.158 -0.1115 -0.1153  0.1290
  573loPI    C3 9155   3.210   7.326  10.248  0.1807  0.0391 -0.1195
  573loPI   PO4 9156   3.100   7.427   9.688  0.2689  0.3554  0.0367
  573loPI   GL1 9157   2.976   7.383   9.284 -0.0213  0.2230  0.1330
  573loPI   GL2 9158   3.279   7.285   9.204  0.0922 -0.0120 -0.1578
  573loPI   C1A 9159   3.016   7.452   8.792 -0.0022  0.2549  0.0448
  573loPI   C2A 9160   3.103   7.260   8.485 -0.5486  0.1927  0.0535
  573loPI   C3A 9161   3.077   7.197   8.011  0.2182 -0.1616 -0.0701
  573loPI   C4A 9162   2.759   7.371   7.815 -0.2211 -0.2109  0.1220
  573loPI   C5A 9163   2.369   7.360   7.729 -0.0600 -0.3897 -0.0678
  573loPI   C6A 9164   2.062   7.482   7.492 -0.0980  0.1128  0.1519
  573loPI   C1B 9165   3.516   7.342   8.795  0.2649 -0.1573  0.3663
  573loPI   C2B 9166   3.636   7.173   8.491 -0.1650 -0.1570 -0.0051
  573loPI   C3B 9167   3.522   7.341   8.034  0.2012 -0.3408 -0.1539
  573loPI   C4B 9168   3.455   7.395   7.657 -0.1383 -0.0006 -0.1689
  574loPI    C1 9169  15.338   7.713   9.796  0.1222 -0.0495  0.1634
  574loPI    C2 9170  15.505   8.042   9.640  0.0839 -0.0666  0.0854
  574loPI    C3 9171  15.532   7.970  10.033  0.3032 -0.0950  0.0661
  574loPI   PO4 9172  15.429   7.500   9.618 -0.4421 -0.0004  0.1868
  574loPI   GL1 9173  15.742   7.425   9.348 -0.0510  0.3091  0.1667
  574loPI   GL2 9174  15.530   7.175   9.171  0.1014 -0.1184 -0.0916
  574loPI   C1A 9175  15.563   7.712   9.056  0.0741  0.0804  0.1929
  574loPI   C2A 9176  15.569   7.741   8.696 -0.0087 -0.2215  0.0088
  574loPI   C3A 9177  15.405   7.536   8.367  0.1777  0.0711 -0.1390
  574loPI   C4A 9178  15.316   7.407   7.913  0.1774 -0.0810  0.2627
  574loPI   C5A 9179  15.185   7.740   7.637  0.1422 -0.0659  0.0959
  574loPI   C6A 9180  14.889   7.594   7.413  0.3773  0.2518 -0.2335
  574loPI   C1B 9181  15.691   7.223   8.708 -0.0140 -0.0825 -0.1747
  574loPI   C2B 9182  15.733   7.087   8.275  0.0317 -0.1599  0.1136
  574loPI   C3B 9183  15.732   7.056   7.881  0.0425  0.2623  0.1366
  574loPI   C4B 9184  15.950   6.967   7.523 -0.2463  0.0409 -0.0317
  575loPI    C1 9185  19.213  13.230  10.146  0.0091  0.3692 -0.0881
  575loPI    C2 9186  19.582  13.077  10.141 -0.0777  0.1577 -0.1327
  575loPI    C3 9187  19.481  13.346  10.420 -0.0249 -0.1252  0.1657
  575loPI   PO4 9188  19.187  13.257   9.833 -0.1218 -0.2961  0.0629
  575loPI   GL1 9189  19.156  13.155   9.437 -0.0945 -0.1362 -0.0435
  575loPI   GL2 9190  19.285  13.494   9.407  0.1504 -0.1030  0.1284
  575loPI   C1A 9191  18.950  13.214   9.123  0.3459 -0.0072  0.0939
  575loPI   C2A 9192  18.986  13.347   8.615  0.2323 -0.0591  0.0882
  575loPI   C3A 9193  19.230  13.375   8.236  0.0602  0.2187  0.0428
  575loPI   C4A 9194  19.190  13.492   7.830  0.0183  0.0816 -0.2240
  575loPI   C5A 9195  19.147  13.640   7.477 -0.3945 -0.2503  0.0703
  575loPI   C6A 9196  18.964  13.676   7.024  0.0257  0.0267  0.4897
  575loPI   C1B 9197  19.416  13.244   9.026  0.2987 -0.1871  0.4441
  575loPI   C2B 9198  19.378  13.064   8.637  0.2128 -0.0072 -0.2106
  575loPI   C3B 9199  19.476  12.899   8.145  0.0809 -0.0566 -0.3416
  575loPI   C4B 9200  19.291  13.050   7.683  0.1661  0.0947 -0.0705
  576loPI    C1 9201   1.397   9.266   9.702  0.2536  0.0051 -0.2394
  576loPI    C2 9202   1.716   9.425   9.885 -0.0214  0.0516  0.2168
  576loPI    C3 9203   1.587   9.060   9.987 -0.1946  0.0875  0.1312
  576loPI   PO4 9204   1.432   9.501   9.515  0.1262 -0.2533  0.1323
  576loPI   GL1 9205   1.606   9.634   9.255  0.4253 -0.0652 -0.1657
  576loPI   GL2 9206   1.954   9.561   9.251 -0.0599  0.1874 -0.0423
  576loPI   C1A 9207   1.516   9.879   8.920 -0.1168 -0.0020  0.0924
  576loPI   C2A 9208   1.490  10.054   8.551  0.3155 -0.1876 -0.2378
  576loPI   C3A 9209   1.301  10.037   8.149 -0.2783 -0.2317  0.0563
  576loPI   C4A 9210   1.420   9.795   7.821  0.1990  0.3075 -0.0364
  576loPI   C5A 9211   1.632   9.844   7.502  0.0580  0.0510  0.1264
  576loPI   C6A 9212   1.874   9.914   7.109 -0.2886  0.2198  0.3239
  576loPI   C1B 9213   1.958   9.616   8.701 -0.1110  0.3300  0.1555
  576loPI   C2B 9214   2.234   9.641   8.302  0.2162  0.1148  0.2616
  576loPI   C3B 9215   2.356   9.927   8.082  0.0589 -0.0889  0.0627
  576loPI   C4B 9216   2.347  10.273   7.912 -0.1193 -0.0344 -0.3293
  577loPI    C1 9217   1.497  10.077   9.697 -0.0894  0.2869  0.1256
  577loPI    C2 9218   1.830  10.053   9.475 -0.2063  0.0381 -0.0265
  577loPI    C3 9219   1.824   9.899   9.844 -0.1409  0.0786 -0.0085
  577loPI   PO4 9220   1.405  10.329   9.404 -0.0145  0.1086  0.2014
  577loPI   GL1 9221   1.164  10.388   9.034 -0.1851 -0.2272 -0.0731
  577loPI   GL2 9222   1.376  10.746   9.070 -0.1173 -0.0877 -0.1790
  577loPI   C1A 9223   1.117  10.357   8.657 -0.1532 -0.5937 -0.0869
  577loPI   C2A 9224   0.891  10.224   8.322  0.1864  0.0610 -0.0790
  577loPI   C3A 9225   0.811   9.952   7.992 -0.0507  0.1337  0.1176
  577loPI   C4A 9226   0.901   9.701   7.731 -0.4211 -0.2220  0.2419
  577loPI   C5A 9227   1.190   9.472   7.495 -0.1385  0.0163  0.0202
  577loPI   C6A 9228   1.090   9.121   7.185 -0.0800 -0.0089  0.2850
  577loPI   C1B 9229   1.270  10.898   8.689 -0.1105 -0.4595  0.2156
  577loPI   C2B 9230   1.057  10.774   8.262  0.1983 -0.2287 -0.0461
  577loPI   C3B 9231   0.914  10.469   7.878  0.0505 -0.0347 -0.1690
  577loPI   C4B 9232   1.218  10.145   7.572 -0.2794 -0.0107  0.0587
  578loPI    C1 9233  14.465   6.075  10.045  0.2381  0.1463 -0.1164
  578loPI    C2 9234  14.262   6.046  10.388  0.1555  0.0971 -0.1688
  578loPI    C3 9235  14.569   5.800  10.316  0.1064  0.0374 -0.1749
  578loPI   PO4 9236  14.379   5.990   9.736  0.2575  0.1318  0.0621
  578loPI   GL1 9237  14.401   5.643   9.350 -0.0496  0.1904 -0.3737
  578loPI   GL2 9238  14.429   5.995   9.229  0.2725  0.1958  0.1885
  578loPI   C1A 9239  14.387   5.314   8.990  0.2795  0.2429 -0.2592
  578loPI   C2A 9240  14.559   5.414   8.631 -0.2605  0.1079  0.1014
  578loPI   C3A 9241  14.509   5.549   8.333  0.1518 -0.0844 -0.0566
  578loPI   C4A 9242  14.405   5.426   7.895  0.0125  0.2707  0.2920
  578loPI   C5A 9243  14.694   5.447   7.570  0.0106 -0.1803 -0.2698
  578loPI   C6A 9244  15.024   5.747   7.320  0.2269 -0.1667  0.0200
  578loPI   C1B 9245  14.340   5.882   8.883  0.0475  0.2905  0.0959
  578loPI   C2B 9246  14.122   5.988   8.551  0.0173  0.0623 -0.0550
  578loPI   C3B 9247  14.064   6.097   8.120  0.0831  0.1314  0.3230
  578loPI   C4B 9248  13.799   6.076   7.946 -0.1343  0.1933 -0.0257
  579loPI    C1 9249  11.989   3.543  10.085 -0.1008 -0.0655 -0.0137
  579loPI    C2 9250  11.950   3.442  10.470 -0.0133  0.1910  0.0644
  579loPI    C3 9251  11.638   3.593  10.270 -0.0364  0.1340  0.0572
  579loPI   PO4 9252  12.002   3.407   9.888 -0.2005  0.1369  0.0318
  579loPI   GL1 9253  12.113   3.445   9.494  0.0727 -0.1190  0.0297
  579loPI   GL2 9254  11.717   3.365   9.454 -0.0930 -0.0142 -0.3173
  579loPI   C1A 9255  12.230   3.412   9.075  0.0458  0.0630  0.0631
  579loPI   C2A 9256  12.262   3.305   8.571  0.0211 -0.6062 -0.2434
  579loPI   C3A 9257  12.046   3.053   8.178  0.1305 -0.1013 -0.1289
  579loPI   C4A 9258  12.070   2.876   7.869  0.2089  0.1799  0.1266
  579loPI   C5A 9259  11.981   2.749   7.402  0.1138 -0.1485 -0.0501
  579loPI   C6A 9260  12.055   2.284   7.234  0.0515  0.1886 -0.0057
  579loPI   C1B 9261  11.748   3.271   9.032  0.0939 -0.0277 -0.2583
  579loPI   C2B 9262  11.784   3.241   8.621  0.1635 -0.2017  0.0184
  579loPI   C3B 9263  11.590   3.202   8.292 -0.1110  0.3118 -0.0987
  579loPI   C4B 9264  11.564   3.051   7.886  0.0603 -0.1272  0.1669
  580loPI    C1 9265  13.283  11.531   9.832  0.0276 -0.1234  0.0335
  580loPI    C2 9266  13.400  11.320  10.151  0.0460  0.2975  0.3130
  580loPI    C3 9267  13.275  11.697  10.196 -0.0388  0.3328 -0.1696
  580loPI   PO4 9268  13.483  11.458   9.641 -0.1833 -0.0226 -0.0003
  580loPI   GL1 9269  13.663  11.205   9.259  0.0603 -0.0872  0.1257
  580loPI   GL2 9270  13.905  11.062   9.085  0.0416  0.0553  0.3240
  580loPI   C1A 9271  13.443  10.990   8.903  0.3399  0.0010  0.0082
  580loPI   C2A 9272  13.480  10.813   8.437 -0.0169 -0.3169  0.0180
  580loPI   C3A 9273  13.269  10.690   8.136 -0.0718  0.3207  0.0246
  580loPI   C4A 9274  13.410  10.699   7.789  0.2927  0.2831  0.0632
  580loPI   C5A 9275  13.726  10.751   7.501 -0.0468 -0.2184 -0.0991
  580loPI   C6A 9276  14.003  10.370   7.352  0.0189  0.2398 -0.1416
  580loPI   C1B 9277  13.955  10.932   8.639 -0.1141 -0.1979 -0.3532
  580loPI   C2B 9278  13.941  10.763   8.237  0.0968 -0.1454 -0.2882
  580loPI   C3B 9279  14.079  10.797   7.796 -0.3930  0.0065  0.0143
  580loPI   C4B 9280  14.195  10.860   7.367  0.1109 -0.0854 -0.0893
  581loPI    C1 9281   1.031   3.030   9.840 -0.1027  0.2425  0.1016
  581loPI    C2 9282   0.914   2.914  10.205  0.1776  0.1798  0.1743
  581loPI    C3 9283   0.643   3.036   9.937 -0.0859 -0.2607  0.2291
  581loPI   PO4 9284   1.224   2.937   9.663  0.0389  0.2172 -0.2617
  581loPI   GL1 9285   1.188   2.824   9.302  0.0254 -0.0777 -0.1021
  581loPI   GL2 9286   0.833   2.975   9.399  0.0032  0.2584  0.1038
  581loPI   C1A 9287   1.134   2.658   8.903  0.0342  0.0940  0.1577
  581loPI   C2A 9288   1.022   2.725   8.481  0.1259  0.1064 -0.0727
  581loPI   C3A 9289   1.111   2.585   8.110  0.0473 -0.0395  0.2843
  581loPI   C4A 9290   1.167   2.702   7.614 -0.2720  0.1230  0.1415
  581loPI   C5A 9291   1.188   2.679   7.204 -0.3252 -0.1173  0.2187
  581loPI   C6A 9292   1.201   2.370   6.883  0.3055  0.0313  0.1462
  581loPI   C1B 9293   0.989   3.121   8.970  0.1345  0.2030 -0.2534
  581loPI   C2B 9294   1.068   3.241   8.519  0.0452 -0.1550  0.1108
  581loPI   C3B 9295   0.859   3.473   8.184 -0.4741 -0.1571 -0.1940
  581loPI   C4B 9296   0.877   3.624   7.844 -0.3653 -0.0816 -0.0672
  582loPI    C1 9297   1.451  17.150  10.008  0.1166 -0.0498 -0.0493
  582loPI    C2 9298   1.289  17.397  10.277  0.1551 -0.0929  0.0135
  582loPI    C3 9299   1.101  17.058  10.179  0.0852 -0.0222 -0.0985
  582loPI   PO4 9300   1.595  17.280   9.860  0.0793  0.2290 -0.0485
  582loPI   GL1 9301   1.510  17.470   9.465 -0.3494 -0.1122  0.2448
  582loPI   GL2 9302   1.212  17.441   9.199  0.1335  0.2270 -0.2360
  582loPI   C1A 9303   1.591  17.717   8.997 -0.1481  0.0959 -0.0974
  582loPI   C2A 9304   1.532  17.654   8.519 -0.2007 -0.0794 -0.1844
  582loPI   C3A 9305   1.445  17.461   8.161 -0.2653  0.0642 -0.3834
  582loPI   C4A 9306   1.482  17.424   7.716  0.0770 -0.0957 -0.3019
  582loPI   C5A 9307   1.524  17.649   7.446  0.0565  0.3435  0.2639
  582loPI   C6A 9308   1.677  17.861   6.940 -0.0748  0.1487  0.1173
  582loPI   C1B 9309   1.085  17.457   8.839  0.3371 -0.1454  0.2588
  582loPI   C2B 9310   0.975  17.411   8.406  0.1918  0.1345 -0.1551
  582loPI   C3B 9311   0.944  17.255   8.005  0.0791  0.1678 -0.2964
  582loPI   C4B 9312   0.908  17.240   7.581 -0.0953  0.0799 -0.0499
  583loPI    C1 9313   4.549  17.079   9.709  0.2155  0.0499  0.0520
  583loPI    C2 9314   4.357  17.428   9.743 -0.0851 -0.0963 -0.0953
  583loPI    C3 9315   4.555  17.277  10.056 -0.0334  0.1579 -0.0028
  583loPI   PO4 9316   4.330  16.937   9.549  0.0692  0.2363 -0.5282
  583loPI   GL1 9317   4.086  16.828   9.271 -0.1316  0.0421  0.2162
  583loPI   GL2 9318   3.981  16.532   9.278 -0.2460 -0.0803  0.0296
  583loPI   C1A 9319   3.836  17.112   8.921  0.1130 -0.0045  0.0544
  583loPI   C2A 9320   3.756  17.273   8.516  0.2026  0.1569 -0.4533
  583loPI   C3A 9321   3.648  17.293   8.039 -0.1899 -0.1122 -0.0892
  583loPI   C4A 9322   3.542  17.305   7.583  0.1645 -0.3015 -0.1805
  583loPI   C5A 9323   3.764  17.322   7.143  0.0853 -0.1285  0.2767
  583loPI   C6A 9324   3.845  17.262   6.617 -0.1036  0.1679 -0.2924
  583loPI   C1B 9325   3.618  16.662   9.012  0.0386  0.2777 -0.0368
  583loPI   C2B 9326   3.206  16.580   8.846  0.5016 -0.1329  0.0560
  583loPI   C3B 9327   2.726  16.646   8.634  0.0617  0.1185  0.0817
  583loPI   C4B 9328   2.565  16.594   8.292  0.2333  0.4297  0.2728
  584loPI    C1 9329  16.689   0.353  10.395 -0.2702 -0.1241  0.0572
  584loPI    C2 9330  16.327   0.418  10.553 -0.1890  0.1922  0.1197
  584loPI    C3 9331  16.582   0.167  10.733 -0.3676 -0.0168  0.0859
  584loPI   PO4 9332  16.666   0.275  10.096  0.0816 -0.2175  0.0562
  584loPI   GL1 9333  16.709   0.479   9.716 -0.1186  0.0788  0.1989
  584loPI   GL2 9334  17.036   0.402   9.681  0.1779 -0.0952  0.1272
  584loPI   C1A 9335  16.464   0.601   9.381 -0.1676  0.0345 -0.1179
  584loPI   C2A 9336  16.374   0.646   8.964 -0.4257 -0.3303  0.0559
  584loPI   C3A 9337  16.056   0.552   8.693 -0.2890  0.4728 -0.1303
  584loPI   C4A 9338  16.004   0.438   8.328 -0.0279 -0.1983  0.3008
  584loPI   C5A 9339  15.953   0.322   7.890 -0.0575 -0.0521 -0.0989
  584loPI   C6A 9340  15.661   0.608   7.630 -0.1986  0.0360  0.0802
  584loPI   C1B 9341  16.937   0.431   9.291 -0.1543 -0.4000  0.1353
  584loPI   C2B 9342  16.874   0.281   8.922 -0.2853 -0.1259  0.1976
  584loPI   C3B 9343  16.952  -0.007   8.635  0.2014 -0.0651  0.1257
  584loPI   C4B 9344  16.886  -0.182   8.164 -0.3106 -0.3347  0.2751
  585loPI    C1 9345  13.057  10.418   9.782  0.1133  0.4076 -0.0533
  585loPI    C2 9346  12.727  10.545   9.967  0.0714  0.3616 -0.0960
  585loPI    C3 9347  13.010  10.353  10.174 -0.2656 -0.2676 -0.1951
  585loPI   PO4 9348  13.144  10.634   9.652 -0.0724  0.1100 -0.1005
  585loPI   GL1 9349  13.103  10.801   9.162  0.2266  0.1695  0.0122
  585loPI   GL2 9350  12.801  10.963   9.088 -0.4398  0.0768  0.1261
  585loPI   C1A 9351  13.002  10.670   8.674  0.0778  0.4367  0.0832
  585loPI   C2A 9352  12.981  10.399   8.418  0.0029  0.1440  0.0281
  585loPI   C3A 9353  12.793  10.103   8.198  0.0747  0.0472 -0.0385
  585loPI   C4A 9354  12.796   9.883   7.763 -0.1464 -0.1681 -0.1958
  585loPI   C5A 9355  12.521   9.855   7.386 -0.1479 -0.0360  0.1044
  585loPI   C6A 9356  12.420  10.006   6.968 -0.1706 -0.3781 -0.1302
  585loPI   C1B 9357  13.024  11.155   8.757 -0.1092  0.1202 -0.0923
  585loPI   C2B 9358  13.068  11.178   8.336 -0.1182 -0.2277 -0.0508
  585loPI   C3B 9359  13.160  11.176   7.907 -0.2052 -0.1070  0.0749
  585loPI   C4B 9360  13.209  11.480   7.600 -0.2984  0.1428  0.1828
  586loPI    C1 9361  13.666   6.314   9.723  0.1148  0.0025 -0.0961
  586loPI    C2 9362  13.973   6.164   9.930  0.0246  0.0360  0.0630
  586loPI    C3 9363  13.627   6.243  10.114  0.0255  0.3057 -0.0476
  586loPI   PO4 9364  13.736   6.517   9.560  0.1472  0.3236  0.2854
  586loPI   GL1 9365  13.835   6.905   9.405 -0.1703  0.1768 -0.0190
  586loPI   GL2 9366  13.473   6.837   9.259  0.1088  0.0520 -0.3747
  586loPI   C1A 9367  13.804   7.023   8.938 -0.3275  0.1291 -0.2589
  586loPI   C2A 9368  13.920   7.332   8.657 -0.1460  0.1405  0.2521
  586loPI   C3A 9369  13.954   7.638   8.298  0.0656 -0.1568 -0.1880
  586loPI   C4A 9370  14.075   7.537   7.886  0.2793 -0.1017  0.3838
  586loPI   C5A 9371  14.145   7.250   7.486  0.0800 -0.1214  0.0756
  586loPI   C6A 9372  13.917   7.454   7.177 -0.1626  0.1817 -0.1595
  586loPI   C1B 9373  13.466   6.695   8.803  0.0270 -0.0049  0.0037
  586loPI   C2B 9374  13.731   6.874   8.396 -0.0601 -0.0445  0.2945
  586loPI   C3B 9375  14.115   7.078   8.284 -0.4040 -0.0220  0.0244
  586loPI   C4B 9376  14.456   7.412   8.212  0.1459  0.3527  0.0722
  587loPI    C1 9377  18.201  13.641  10.083 -0.1135 -0.0291 -0.1959
  587loPI    C2 9378  18.346  13.577  10.450 -0.1513  0.0177 -0.1725
  587loPI    C3 9379  17.951  13.583  10.390 -0.1447 -0.0339 -0.2220
  587loPI   PO4 9380  18.400  13.584   9.951  0.1750  0.4522 -0.1625
  587loPI   GL1 9381  18.486  13.814   9.595  0.2388 -0.2547  0.2421
  587loPI   GL2 9382  18.613  13.449   9.542  0.0101 -0.3407  0.1027
  587loPI   C1A 9383  18.372  14.002   9.193 -0.0816  0.0268 -0.2973
  587loPI   C2A 9384  18.598  14.039   8.867 -0.1471  0.0732 -0.3560
  587loPI   C3A 9385  18.793  13.848   8.468 -0.1505 -0.0531 -0.1383
  587loPI   C4A 9386  18.835  13.607   8.096 -0.0135  0.0360 -0.3131
  587loPI   C5A 9387  18.706  13.538   7.726  0.1385 -0.0320  0.1935
  587loPI   C6A 9388  18.407  13.578   7.378 -0.0210  0.0871 -0.1914
  587loPI   C1B 9389  18.383  13.471   9.189 -0.2671 -0.0098 -0.1760
  587loPI   C2B 9390  18.093  13.344   8.995 -0.3997  0.0789  0.4773
  587loPI   C3B 9391  17.957  13.212   8.626 -0.1644  0.1031  0.2706
  587loPI   C4B 9392  17.897  13.230   8.260  0.0674 -0.1477  0.0908
  588loPI    C1 9393   7.923  11.724   9.985 -0.0896 -0.1277  0.2248
  588loPI    C2 9394   8.057  11.466   9.711 -0.0342 -0.0437  0.1722
  588loPI    C3 9395   8.313  11.641   9.963 -0.0426  0.1218  0.0676
  588loPI   PO4 9396   7.652  11.848   9.725  0.2359  0.4013  0.3150
  588loPI   GL1 9397   7.687  11.965   9.236 -0.2647 -0.2633  0.1858
  588loPI   GL2 9398   8.052  11.871   9.114 -0.0043  0.1537  0.2778
  588loPI   C1A 9399   7.504  12.083   8.868 -0.1649  0.0001  0.0065
  588loPI   C2A 9400   7.399  12.119   8.390 -0.0629 -0.2268 -0.4747
  588loPI   C3A 9401   7.399  12.131   7.908 -0.1191  0.2267  0.3525
  588loPI   C4A 9402   7.535  12.147   7.519 -0.2107 -0.0615  0.1545
  588loPI   C5A 9403   7.479  12.464   7.262 -0.1549  0.0527 -0.0943
  588loPI   C6A 9404   7.115  12.767   7.242  0.2490 -0.1694  0.3308
  588loPI   C1B 9405   7.956  11.808   8.684  0.1378  0.1793  0.0255
  588loPI   C2B 9406   7.850  11.851   8.190 -0.0387 -0.0980  0.4106
  588loPI   C3B 9407   7.872  11.925   7.767 -0.0123  0.1042 -0.1886
  588loPI   C4B 9408   7.987  12.407   7.517 -0.3290 -0.0682  0.4484
  589loPI    C1 9409  13.518   7.767   9.760  0.1022  0.3328  0.0781
  589loPI    C2 9410  13.615   7.814  10.145 -0.0654 -0.0711  0.1742
  589loPI    C3 9411  13.454   7.470  10.019 -0.1789  0.1216 -0.2248
  589loPI   PO4 9412  13.786   7.859   9.610 -0.0826 -0.4478 -0.0678
  589loPI   GL1 9413  13.983   8.007   9.230  0.2675  0.1749  0.0045
  589loPI   GL2 9414  13.790   8.214   9.151 -0.2287 -0.2639 -0.0378
  589loPI   C1A 9415  14.069   7.847   8.885  0.0487 -0.2064  0.0488
  589loPI   C2A 9416  14.343   7.776   8.516  0.0195  0.0464 -0.0902
  589loPI   C3A 9417  14.554   7.950   8.211 -0.0362 -0.2138  0.1712
  589loPI   C4A 9418  14.674   7.859   7.833  0.1330  0.0631  0.0040
  589loPI   C5A 9419  14.641   8.073   7.451 -0.2225  0.0627 -0.1168
  589loPI   C6A 9420  14.679   8.136   7.006  0.2376  0.3705 -0.1794
  589loPI   C1B 9421  13.883   8.258   8.689 -0.1826 -0.3593 -0.1475
  589loPI   C2B 9422  14.024   8.160   8.232  0.4998  0.3696 -0.4074
  589loPI   C3B 9423  14.143   8.007   7.728  0.1053 -0.1853  0.1619
  589loPI   C4B 9424  13.924   7.847   7.477  0.2017  0.0713  0.1392
  590loPI    C1 9425  14.185   1.495  10.167  0.0069  0.1588 -0.0756
  590loPI    C2 9426  14.004   1.320   9.855 -0.3345  0.2299  0.0780
  590loPI    C3 9427  13.895   1.226  10.229 -0.1531  0.3825  0.1712
  590loPI   PO4 9428  14.413   1.595  10.044 -0.3530  0.6665 -0.2036
  590loPI   GL1 9429  14.518   1.489   9.666 -0.1221 -0.1224 -0.1177
  590loPI   GL2 9430  14.697   1.082   9.631  0.0925 -0.1350 -0.0014
  590loPI   C1A 9431  14.533   1.737   9.336 -0.0395 -0.1218 -0.1614
  590loPI   C2A 9432  14.556   1.706   8.808  0.2968  0.2460  0.1846
  590loPI   C3A 9433  14.628   1.917   8.478  0.0578  0.0811 -0.0248
  590loPI   C4A 9434  14.838   1.961   8.209 -0.2190  0.2169  0.2063
  590loPI   C5A 9435  14.940   2.005   7.775 -0.1130 -0.2665 -0.0570
  590loPI   C6A 9436  14.881   2.445   7.570 -0.3977 -0.0291 -0.1276
  590loPI   C1B 9437  14.718   1.267   9.192  0.1394 -0.1305  0.1318
  590loPI   C2B 9438  14.749   1.226   8.711  0.1561 -0.0495  0.2054
  590loPI   C3B 9439  14.653   1.427   8.279 -0.2263  0.4172  0.2085
  590loPI   C4B 9440  14.717   1.541   7.908 -0.0842  0.4549  0.0279
  591loPI    C1 9441   1.086   5.925   9.545 -0.3394  0.2197 -0.2182
  591loPI    C2 9442   0.856   5.616   9.439  0.2749 -0.3113 -0.0670
  591loPI    C3 9443   0.979   5.653   9.818  0.4446 -0.0433 -0.1456
  591loPI   PO4 9444   1.273   5.963   9.449 -0.0669 -0.2789 -0.1247
  591loPI   GL1 9445   1.572   5.849   9.125 -0.0374  0.0077  0.2178
  591loPI   GL2 9446   1.470   6.188   8.926  0.0230  0.0089 -0.1118
  591loPI   C1A 9447   1.439   5.716   8.689  0.3093  0.2453 -0.0391
  591loPI   C2A 9448   1.453   5.493   8.352 -0.0772  0.1154  0.4418
  591loPI   C3A 9449   1.587   5.675   8.047  0.3031 -0.0571 -0.3003
  591loPI   C4A 9450   1.582   5.708   7.583  0.2186 -0.1320 -0.2639
  591loPI   C5A 9451   1.392   5.882   7.241  0.1901  0.1319  0.1910
  591loPI   C6A 9452   1.420   5.778   6.763 -0.3231  0.0353  0.0142
  591loPI   C1B 9453   1.514   6.472   8.636 -0.2920 -0.1785  0.0766
  591loPI   C2B 9454   1.664   6.535   8.258 -0.4405  0.0786  0.0865
  591loPI   C3B 9455   1.713   6.630   7.851 -0.0578  0.1242 -0.0071
  591loPI   C4B 9456   1.799   6.626   7.400  0.0382  0.0578 -0.0222
  592loPI    C1 9457   2.677  13.351   9.916 -0.1473  0.0112 -0.1399
  592loPI    C2 9458   2.966  13.475  10.163 -0.1459  0.1730 -0.2211
  592loPI    C3 9459   2.582  13.536  10.257 -0.1476  0.1559 -0.2173
  592loPI   PO4 9460   2.670  13.476   9.588 -0.1321  0.2959 -0.2117
  592loPI   GL1 9461   2.400  13.400   9.147  0.0492 -0.0246  0.0680
  592loPI   GL2 9462   2.442  13.732   9.181  0.0078 -0.1418 -0.0225
  592loPI   C1A 9463   2.440  13.565   8.677  0.0429 -0.2260  0.2545
  592loPI   C2A 9464   2.693  13.420   8.336 -0.2039  0.0327 -0.0157
  592loPI   C3A 9465   2.656  13.414   8.062  0.0241  0.0106  0.0369
  592loPI   C4A 9466   2.442  13.248   7.671  0.0481  0.1425  0.0122
  592loPI   C5A 9467   2.641  13.269   7.157 -0.0872  0.0653  0.0001
  592loPI   C6A 9468   2.729  13.443   6.726 -0.0905  0.0764 -0.2602
  592loPI   C1B 9469   2.770  14.037   8.964  0.1245  0.1660 -0.2969
  592loPI   C2B 9470   2.799  14.090   8.558  0.0625  0.0844 -0.2396
  592loPI   C3B 9471   2.879  13.873   8.127  0.2234 -0.2600  0.1576
  592loPI   C4B 9472   3.107  13.593   7.945 -0.1182  0.0833  0.2606
  593loPI    C1 9473   0.682  18.461  10.241  0.2793  0.0624 -0.0813
  593loPI    C2 9474   0.557  18.737  10.502  0.0695 -0.1255  0.0198
  593loPI    C3 9475   0.694  18.385  10.633  0.3634 -0.0611 -0.1071
  593loPI   PO4 9476   0.482  18.487  10.059 -0.1968  0.2723 -0.0438
  593loPI   GL1 9477   0.450  18.344   9.636 -0.1709  0.0955  0.0127
  593loPI   GL2 9478   0.276  18.169   9.526  0.3065  0.2876  0.1682
  593loPI   C1A 9479   0.476  18.571   9.267  0.0726 -0.2511  0.0909
  593loPI   C2A 9480   0.344  18.757   8.845 -0.1223  0.1162  0.0912
  593loPI   C3A 9481   0.176  18.694   8.421 -0.2585  0.0041 -0.4059
  593loPI   C4A 9482   0.303  18.691   8.036  0.0017 -0.1514 -0.2434
  593loPI   C5A 9483   0.317  18.805   7.540 -0.4616 -0.1164 -0.0367
  593loPI   C6A 9484   0.498  18.993   7.306  0.2456 -0.3166 -0.2718
  593loPI   C1B 9485   0.306  18.090   9.126  0.2457 -0.2746 -0.0123
  593loPI   C2B 9486   0.282  18.175   8.794  0.3092  0.0022 -0.3025
  593loPI   C3B 9487   0.147  18.172   8.318 -0.2776 -0.0045 -0.0856
  593loPI   C4B 9488   0.189  18.187   7.847 -0.3290 -0.1457 -0.0277
  594loPI    C1 9489  14.789   5.306   9.615  0.0346  0.0829  0.0882
  594loPI    C2 9490  15.110   5.304   9.854  0.1285  0.0221 -0.0370
  594loPI    C3 9491  14.953   4.959   9.727 -0.0269  0.0501  0.0764
  594loPI   PO4 9492  14.867   5.370   9.387  0.3147 -0.0594  0.2481
  594loPI   GL1 9493  14.884   5.265   9.002  0.3362 -0.3586  0.0428
  594loPI   GL2 9494  15.121   5.233   8.655 -0.1925 -0.5032  0.2257
  594loPI   C1A 9495  14.673   4.953   8.746  0.0924  0.0479 -0.0410
  594loPI   C2A 9496  14.489   4.584   8.466  0.2626  0.0938  0.1345
  594loPI   C3A 9497  14.370   4.501   8.067  0.3260  0.2770  0.1848
  594loPI   C4A 9498  14.334   4.487   7.726 -0.2944 -0.0753 -0.0829
  594loPI   C5A 9499  14.071   4.265   7.499  0.1961 -0.0555  0.0642
  594loPI   C6A 9500  13.817   4.419   7.292  0.0751  0.0249 -0.0399
  594loPI   C1B 9501  15.039   5.432   8.250 -0.0712  0.1066  0.0146
  594loPI   C2B 9502  14.958   5.196   7.954  0.0505 -0.0176  0.1437
  594loPI   C3B 9503  14.804   4.928   7.756 -0.1296  0.0866 -0.0163
  594loPI   C4B 9504  14.717   4.669   7.540  0.1638 -0.1933  0.0225
  595loPI    C1 9505   4.803   1.028   9.577  0.0456 -0.0402  0.0078
  595loPI    C2 9506   4.900   1.413   9.525 -0.0099 -0.0197  0.0550
  595loPI    C3 9507   4.918   1.249   9.890  0.0165 -0.0627  0.0345
  595loPI   PO4 9508   4.584   1.022   9.508  0.0656 -0.0731  0.0149
  595loPI   GL1 9509   4.414   0.725   9.242  0.0768  0.2248  0.1184
  595loPI   GL2 9510   4.277   0.474   9.134  0.6248 -0.0446  0.0037
  595loPI   C1A 9511   4.483   1.000   8.873  0.0906 -0.0039 -0.1768
  595loPI   C2A 9512   4.575   0.929   8.471 -0.1844  0.1032  0.2475
  595loPI   C3A 9513   4.755   0.893   8.092  0.0385  0.3605  0.0977
  595loPI   C4A 9514   4.818   0.984   7.681 -0.1769  0.0930  0.4420
  595loPI   C5A 9515   4.812   1.063   7.271  0.0610  0.2710 -0.2459
  595loPI   C6A 9516   4.644   1.101   6.911  0.0885  0.0902  0.1037
  595loPI   C1B 9517   4.267   0.548   8.757 -0.1012 -0.4821  0.4426
  595loPI   C2B 9518   4.413   0.479   8.388  0.2269  0.1491 -0.1619
  595loPI   C3B 9519   4.514   0.478   7.936  0.0237 -0.0438  0.1661
  595loPI   C4B 9520   4.535   0.620   7.563  0.0987  0.1528  0.0834
  596loPI    C1 9521  11.284  17.358  10.303 -0.2856 -0.2000  0.0618
  596loPI    C2 9522  11.443  17.050  10.502 -0.1843 -0.2415 -0.0816
  596loPI    C3 9523  11.557  17.424  10.588 -0.0708 -0.2656 -0.1261
  596loPI   PO4 9524  11.355  17.285  10.038  0.0098 -0.0612 -0.1139
  596loPI   GL1 9525  11.411  17.313   9.651 -0.3548  0.1131 -0.1742
  596loPI   GL2 9526  11.112  17.153   9.616  0.1572 -0.0877 -0.2390
  596loPI   C1A 9527  11.640  17.768   9.523  0.0873  0.2252  0.0593
  596loPI   C2A 9528  11.861  18.053   9.185  0.0027  0.0514  0.1831
  596loPI   C3A 9529  11.846  17.853   8.847 -0.1819 -0.0560  0.1271
  596loPI   C4A 9530  12.165  17.643   8.546  0.1548 -0.0156  0.3230
  596loPI   C5A 9531  11.977  17.445   8.216  0.1190  0.3213 -0.0869
  596loPI   C6A 9532  12.019  17.556   7.793 -0.1585 -0.0307  0.1694
  596loPI   C1B 9533  11.437  17.010   9.240 -0.1604  0.0876 -0.0521
  596loPI   C2B 9534  11.533  17.059   8.805 -0.2201 -0.0574  0.1826
  596loPI   C3B 9535  11.496  17.278   8.452 -0.0570 -0.1917 -0.1756
  596loPI   C4B 9536  11.559  17.551   8.623  0.2370  0.2281  0.0798
  597loPI    C1 9537  15.650   1.394  10.299 -0.3038 -0.3030  0.1731
  597loPI    C2 9538  15.733   1.209  10.643  0.1556 -0.0551  0.2029
  597loPI    C3 9539  15.805   1.600  10.604 -0.0019 -0.0569 -0.1380
  597loPI   PO4 9540  15.727   1.172  10.131 -0.3429 -0.0236  0.1060
  597loPI   GL1 9541  15.681   1.074   9.678  0.0886  0.2469  0.0590
  597loPI   GL2 9542  15.727   0.695   9.560  0.0628  0.0143  0.0377
  597loPI   C1A 9543  15.664   1.250   9.263 -0.1759  0.3791 -0.0317
  597loPI   C2A 9544  15.617   1.401   8.856  0.1713 -0.1045  0.2819
  597loPI   C3A 9545  15.679   1.353   8.458  0.2363 -0.2532  0.0461
  597loPI   C4A 9546  15.501   1.146   8.103  0.0004  0.0681  0.0031
  597loPI   C5A 9547  15.442   0.809   7.999  0.1283 -0.1372  0.0442
  597loPI   C6A 9548  15.545   0.541   8.243 -0.1379  0.0632  0.0002
  597loPI   C1B 9549  15.625   0.732   9.130 -0.1180  0.2769  0.0742
  597loPI   C2B 9550  15.620   0.859   8.640 -0.0850 -0.0081  0.0672
  597loPI   C3B 9551  15.930   0.924   8.268 -0.0461 -0.1829 -0.2489
  597loPI   C4B 9552  15.950   1.258   7.957  0.1904  0.1042  0.1185
  598loPI    C1 9553   1.027  10.433   9.806 -0.3466 -0.0497 -0.0254
  598loPI    C2 9554   0.977  10.048   9.710 -0.2960 -0.0643  0.0061
  598loPI    C3 9555   1.144  10.147  10.059 -0.0478 -0.0176 -0.1237
  598loPI   PO4 9556   0.814  10.506   9.628 -0.0240  0.2220 -0.1019
  598loPI   GL1 9557   0.834  10.733   9.273 -0.3516  0.0994 -0.0480
  598loPI   GL2 9558   0.846  10.996   9.278 -0.0541  0.2431 -0.0087
  598loPI   C1A 9559   0.830  10.737   8.865  0.2656 -0.0932 -0.1898
  598loPI   C2A 9560   0.654  10.627   8.515 -0.1588 -0.1952 -0.1673
  598loPI   C3A 9561   0.560  10.733   8.094 -0.1188  0.2356  0.4989
  598loPI   C4A 9562   0.441  10.616   7.785 -0.2973 -0.1344 -0.1391
  598loPI   C5A 9563   0.339  10.751   7.341 -0.0401 -0.1383 -0.4224
  598loPI   C6A 9564   0.684  10.844   7.029  0.3738  0.0406 -0.0364
  598loPI   C1B 9565   0.552  11.115   9.011 -0.0629 -0.0997  0.1636
  598loPI   C2B 9566   0.264  11.299   8.840 -0.3252  0.2170 -0.0120
  598loPI   C3B 9567   0.026  11.402   8.448 -0.1270  0.1045 -0.1213
  598loPI   C4B 9568  -0.343  11.245   8.179  0.0219 -0.0824  0.0179
  599loPI    C1 9569   0.331   7.080   9.479  0.0595  0.0694  0.0565
  599loPI    C2 9570   0.177   6.960   9.828  0.2178 -0.1486  0.0535
  599loPI    C3 9571   0.452   7.250   9.820 -0.0988  0.1583  0.0692
  599loPI   PO4 9572   0.151   7.171   9.339  0.2136 -0.1495  0.0734
  599loPI   GL1 9573  -0.064   7.271   9.039  0.2112 -0.2387 -0.1991
  599loPI   GL2 9574  -0.303   7.506   9.205  0.4026 -0.0494  0.3452
  599loPI   C1A 9575   0.071   7.497   8.554  0.1918  0.0580 -0.2307
  599loPI   C2A 9576  -0.009   7.532   8.139 -0.2146  0.2737 -0.2492
  599loPI   C3A 9577  -0.190   7.447   7.781 -0.0757 -0.1234 -0.0306
  599loPI   C4A 9578  -0.460   7.246   7.488  0.0712  0.2601 -0.0454
  599loPI   C5A 9579  -0.361   7.023   7.157  0.0944 -0.1241 -0.1083
  599loPI   C6A 9580  -0.441   7.135   6.747  0.1794  0.0533  0.3746
  599loPI   C1B 9581  -0.374   7.575   8.796  0.1041 -0.2556 -0.4542
  599loPI   C2B 9582  -0.539   7.738   8.387  0.1541 -0.0797  0.0736
  599loPI   C3B 9583  -0.610   7.609   7.988  0.0434 -0.0786  0.1210
  599loPI   C4B 9584  -0.800   7.675   7.502  0.0129 -0.2066  0.2389
  600loPI    C1 9585   6.230   6.841   9.802  0.3942 -0.1443  0.0100
  600loPI    C2 9586   6.311   6.477   9.947  0.2800 -0.0953  0.2011
  600loPI    C3 9587   5.963   6.653  10.033  0.2502 -0.0235 -0.0570
  600loPI   PO4 9588   6.371   6.834   9.579 -0.2455  0.0546  0.1057
  600loPI   GL1 9589   6.277   6.819   9.132  0.1208  0.1801 -0.1241
  600loPI   GL2 9590   5.954   6.834   9.124 -0.0778 -0.3259  0.2773
  600loPI   C1A 9591   6.540   6.996   8.995  0.0344 -0.0652 -0.0273
  600loPI   C2A 9592   6.559   7.429   8.808  0.2521  0.3660 -0.0153
  600loPI   C3A 9593   6.471   7.631   8.474  0.0268 -0.2237  0.1222
  600loPI   C4A 9594   6.343   7.651   8.074 -0.0158 -0.0308 -0.4972
  600loPI   C5A 9595   6.274   7.608   7.724  0.0010  0.0764 -0.1010
  600loPI   C6A 9596   6.243   7.575   7.242 -0.1287  0.0777 -0.3053
  600loPI   C1B 9597   5.904   6.673   8.639  0.3571  0.0045  0.2028
  600loPI   C2B 9598   5.560   6.560   8.353  0.1261  0.0784 -0.0802
  600loPI   C3B 9599   5.336   6.485   7.936  0.0866  0.0987 -0.4542
  600loPI   C4B 9600   5.155   6.620   7.549  0.0628 -0.0666  0.1407
  601loPI    C1 9601  10.386  17.076  10.297  0.1205 -0.0703 -0.1533
  601loPI    C2 9602  10.623  17.328  10.497 -0.0995  0.0497 -0.0399
  601loPI    C3 9603  10.268  17.225  10.649 -0.0988 -0.1695 -0.1832
  601loPI   PO4 9604  10.436  17.158  10.033 -0.1677  0.0758  0.0772
  601loPI   GL1 9605  10.248  17.173   9.631 -0.0053  0.0294 -0.2592
  601loPI   GL2 9606  10.226  17.458   9.700 -0.0789  0.2445  0.1807
  601loPI   C1A 9607  10.413  17.067   9.237 -0.2447 -0.0825 -0.2006
  601loPI   C2A 9608  10.628  16.897   8.879 -0.3857 -0.1492 -0.2304
  601loPI   C3A 9609  10.657  16.821   8.496  0.1757  0.0679  0.2517
  601loPI   C4A 9610  10.684  16.865   8.043 -0.0388  0.0949  0.0281
  601loPI   C5A 9611  10.720  16.538   7.663  0.2863 -0.0523 -0.0656
  601loPI   C6A 9612  10.811  16.116   7.681  0.1583  0.3372  0.2539
  601loPI   C1B 9613  10.669  17.413   9.510 -0.2227  0.0641 -0.0069
  601loPI   C2B 9614  10.883  17.260   9.107 -0.3468 -0.2086 -0.2523
  601loPI   C3B 9615  11.015  17.173   8.712  0.0621  0.3093 -0.0317
  601loPI   C4B 9616  11.020  17.176   8.307 -0.1925  0.1505 -0.0035
  602loPI    C1 9617   2.333  16.716   9.996 -0.0821  0.0525  0.1054
  602loPI    C2 9618   2.130  16.376   9.948 -0.2170  0.1552 -0.0594
  602loPI    C3 9619   2.144  16.551  10.307 -0.1164 -0.0424  0.0344
  602loPI   PO4 9620   2.274  16.770   9.661 -0.0491 -0.1152  0.2196
  602loPI   GL1 9621   2.257  16.686   9.211 -0.0694  0.1604  0.0736
  602loPI   GL2 9622   2.511  16.534   9.115 -0.2167 -0.0142 -0.0653
  602loPI   C1A 9623   1.979  16.889   8.934  0.1042 -0.1064  0.1572
  602loPI   C2A 9624   1.844  16.761   8.522  0.0842 -0.0619 -0.1565
  602loPI   C3A 9625   1.715  16.668   8.145  0.0579 -0.1087 -0.0911
  602loPI   C4A 9626   1.645  16.586   7.764  0.1819  0.0836  0.1369
  602loPI   C5A 9627   1.450  16.654   7.357 -0.1314 -0.0472 -0.0515
  602loPI   C6A 9628   1.016  16.841   7.291  0.0261 -0.2300 -0.1196
  602loPI   C1B 9629   2.266  16.478   8.696 -0.2004  0.3395  0.3454
  602loPI   C2B 9630   2.110  16.365   8.349 -0.5081  0.1502  0.1195
  602loPI   C3B 9631   2.279  16.334   7.969  0.2361  0.1713 -0.1955
  602loPI   C4B 9632   2.590  16.504   7.616 -0.0774 -0.2419 -0.0284
  603loPI    C1 9633  19.076   6.610   9.595  0.0338 -0.0397 -0.0733
  603loPI    C2 9634  18.679   6.581   9.561  0.0282  0.0455 -0.0815
  603loPI    C3 9635  18.841   6.748   9.887  0.0506  0.1968 -0.1692
  603loPI   PO4 9636  19.153   6.691   9.416  0.1008  0.1710  0.0645
  603loPI   GL1 9637  19.128   6.546   9.030 -0.0740  0.0259 -0.1969
  603loPI   GL2 9638  19.475   6.750   9.032 -0.4319 -0.2116  0.0805
  603loPI   C1A 9639  19.029   6.880   8.818 -0.1333 -0.0463  0.3005
  603loPI   C2A 9640  18.955   7.203   8.352 -0.2494 -0.0510 -0.1115
  603loPI   C3A 9641  19.186   7.003   8.005 -0.0623  0.0071 -0.1713
  603loPI   C4A 9642  19.463   6.746   7.848  0.0073  0.1495 -0.3995
  603loPI   C5A 9643  19.591   6.313   7.817  0.1479 -0.0031 -0.1902
  603loPI   C6A 9644  19.761   5.885   7.900 -0.1992 -0.2315  0.0892
  603loPI   C1B 9645  19.453   6.561   8.692 -0.3420 -0.4948  0.1209
  603loPI   C2B 9646  19.521   6.304   8.337 -0.0771  0.1166 -0.0737
  603loPI   C3B 9647  19.960   6.364   8.117 -0.0108  0.3817 -0.1761
  603loPI   C4B 9648  20.072   6.301   7.741  0.3809  0.0887  0.0326
  604loPI    C1 9649  15.387  15.361  10.151 -0.0839 -0.0096  0.0225
  604loPI    C2 9650  15.196  15.685  10.288  0.0436  0.0749  0.0012
  604loPI    C3 9651  15.310  15.397  10.542 -0.0346  0.0651  0.0253
  604loPI   PO4 9652  15.561  15.458   9.940 -0.3799  0.1225 -0.1653
  604loPI   GL1 9653  15.534  15.658   9.543 -0.1812  0.0273  0.1952
  604loPI   GL2 9654  15.719  15.774   9.391  0.1660 -0.3185  0.0337
  604loPI   C1A 9655  15.355  15.650   9.104  0.5232  0.3295 -0.2425
  604loPI   C2A 9656  15.201  15.542   8.655  0.1590  0.0335  0.2344
  604loPI   C3A 9657  15.162  15.124   8.535 -0.2207  0.1623 -0.1957
  604loPI   C4A 9658  15.281  15.177   8.053 -0.1712  0.1660 -0.2063
  604loPI   C5A 9659  15.391  15.136   7.703  0.0538 -0.0028  0.0165
  604loPI   C6A 9660  15.830  15.311   7.454 -0.0431  0.0555 -0.3649
  604loPI   C1B 9661  16.059  15.773   9.149  0.0347 -0.2915  0.0597
  604loPI   C2B 9662  16.161  15.725   8.659 -0.1908  0.1613 -0.1173
  604loPI   C3B 9663  16.269  15.844   8.238 -0.1832 -0.0490  0.0786
  604loPI   C4B 9664  16.381  15.831   7.754  0.1323 -0.1094  0.0244
  605loPI    C1 9665  18.000  10.953   9.647  0.0102 -0.0122  0.0012
  605loPI    C2 9666  18.111  10.950  10.031  0.0165  0.1086  0.0008
  605loPI    C3 9667  17.723  10.978   9.935  0.0041 -0.0576 -0.0007
  605loPI   PO4 9668  18.137  11.089   9.558  0.0580 -0.3568  0.0967
  605loPI   GL1 9669  18.244  11.231   9.041  0.3671 -0.0159 -0.1525
  605loPI   GL2 9670  18.503  11.415   8.976  0.0218  0.0399 -0.2073
  605loPI   C1A 9671  18.238  10.978   8.718 -0.0689 -0.0429  0.0295
  605loPI   C2A 9672  18.292  10.910   8.299  0.1288 -0.1213  0.0294
  605loPI   C3A 9673  18.260  11.027   7.862 -0.0882 -0.2051 -0.1878
  605loPI   C4A 9674  18.243  11.282   7.559 -0.0229  0.2893  0.2162
  605loPI   C5A 9675  18.192  11.375   7.225  0.3615  0.0574  0.4637
  605loPI   C6A 9676  17.837  11.097   7.111 -0.0810 -0.1855 -0.0476
  605loPI   C1B 9677  18.524  11.341   8.480 -0.1985  0.0086  0.1590
  605loPI   C2B 9678  18.502  11.400   8.095  0.2314  0.1325  0.1618
  605loPI   C3B 9679  18.752  11.292   7.734  0.2512  0.0247 -0.0584
  605loPI   C4B 9680  19.014  11.403   7.501  0.2274 -0.1618  0.2066
  606loPI    C1 9681  10.381  18.989  10.432 -0.1814  0.0448 -0.2440
  606loPI    C2 9682  10.408  19.365  10.565 -0.1232  0.0321 -0.2197
  606loPI    C3 9683  10.609  19.073  10.750 -0.1489 -0.0070 -0.2536
  606loPI   PO4 9684  10.488  19.041  10.150 -0.0357 -0.1084  0.2421
  606loPI   GL1 9685  10.422  19.015   9.749  0.0555 -0.0240  0.0556
  606loPI   GL2 9686  10.268  18.848   9.605 -0.1566  0.0431  0.2327
  606loPI   C1A 9687  10.526  19.376   9.426  0.1101  0.2835  0.2866
  606loPI   C2A 9688  10.479  19.423   8.953  0.1965  0.4037  0.0772
  606loPI   C3A 9689  10.470  19.389   8.502  0.0807 -0.1068  0.1082
  606loPI   C4A 9690  10.675  19.369   8.162 -0.2583 -0.0246 -0.0688
  606loPI   C5A 9691  10.819  19.473   7.780 -0.0442 -0.0175  0.0520
  606loPI   C6A 9692  10.854  19.567   7.338  0.2520 -0.2573  0.2504
  606loPI   C1B 9693  10.040  18.666   9.285 -0.3031  0.0836  0.2398
  606loPI   C2B 9694  10.066  18.558   8.815 -0.0175 -0.2221  0.3804
  606loPI   C3B 9695  10.081  18.561   8.389 -0.0225  0.0008 -0.1175
  606loPI   C4B 9696   9.990  18.470   7.909  0.0382  0.2447  0.3098
  607loPI    C1 9697   3.146   1.450   9.937 -0.1859  0.0003  0.1174
  607loPI    C2 9698   3.208   1.553  10.318  0.0791 -0.0876  0.0999
  607loPI    C3 9699   3.042   1.199  10.231 -0.2243  0.0416  0.1392
  607loPI   PO4 9700   3.420   1.544   9.727 -0.0785  0.0545  0.0671
  607loPI   GL1 9701   3.534   1.544   9.300  0.0654  0.1880  0.1257
  607loPI   GL2 9702   3.568   1.229   9.349  0.1556  0.1376  0.0581
  607loPI   C1A 9703   3.450   1.674   8.893 -0.0433  0.4004  0.2385
  607loPI   C2A 9704   3.389   1.577   8.500  0.5858  0.0857 -0.0744
  607loPI   C3A 9705   3.213   1.540   8.222 -0.1644  0.1072 -0.1702
  607loPI   C4A 9706   3.039   1.454   7.886  0.1034  0.1497  0.0386
  607loPI   C5A 9707   2.617   1.521   7.629  0.0685  0.2390 -0.0450
  607loPI   C6A 9708   2.186   1.781   7.622  0.0945  0.0556 -0.0391
  607loPI   C1B 9709   3.594   1.205   8.894  0.0087 -0.1022  0.2433
  607loPI   C2B 9710   3.573   0.985   8.461 -0.1301 -0.2135  0.2813
  607loPI   C3B 9711   3.620   0.862   8.052 -0.1681  0.0867  0.0929
  607loPI   C4B 9712   3.599   0.433   7.903  0.0349 -0.3158  0.1132
  608loPI    C1 9713   0.441   8.438   9.915 -0.0837  0.3020 -0.0882
  608loPI    C2 9714   0.064   8.514  10.024 -0.0369  0.2445  0.1198
  608loPI    C3 9715   0.262   8.209  10.191  0.1629  0.3888  0.1487
  608loPI   PO4 9716   0.431   8.415   9.714 -0.2822 -0.1457  0.0675
  608loPI   GL1 9717   0.413   8.252   9.365  0.4545  0.3412 -0.3963
  608loPI   GL2 9718   0.101   8.243   9.317 -0.1909 -0.0062  0.0233
  608loPI   C1A 9719   0.667   8.486   9.066 -0.1108  0.2330  0.1618
  608loPI   C2A 9720   0.702   8.388   8.664  0.1450  0.3020 -0.1364
  608loPI   C3A 9721   0.697   8.178   8.322  0.0703 -0.0269  0.1913
  608loPI   C4A 9722   0.453   7.935   8.039 -0.2415  0.0880 -0.0289
  608loPI   C5A 9723   0.243   7.760   7.710  0.2480 -0.1293  0.1049
  608loPI   C6A 9724   0.046   7.873   7.309 -0.0561  0.2151 -0.2207
  608loPI   C1B 9725   0.181   8.335   8.834  0.0442 -0.3111 -0.2955
  608loPI   C2B 9726   0.224   8.380   8.370 -0.0007  0.0427  0.2769
  608loPI   C3B 9727   0.284   8.577   8.023  0.0502  0.1125  0.1872
  608loPI   C4B 9728   0.419   8.783   7.632 -0.1266  0.1790 -0.4029
  609loPI    C1 9729   8.482  13.060   9.827 -0.0933 -0.0663  0.0550
  609loPI    C2 9730   8.289  13.410   9.848  0.1458  0.0896 -0.2531
  609loPI    C3 9731   8.481  13.268  10.169 -0.0437  0.1850 -0.0949
  609loPI   PO4 9732   8.668  13.099   9.602  0.0203  0.3020 -0.3433
  609loPI   GL1 9733   8.343  13.363   9.277 -0.1782  0.0035  0.0630
  609loPI   GL2 9734   8.223  13.676   9.379  0.1235 -0.1255  0.1750
  609loPI   C1A 9735   8.372  13.226   8.915  0.0071 -0.1084 -0.0282
  609loPI   C2A 9736   8.496  13.054   8.596 -0.1381 -0.2274 -0.2220
  609loPI   C3A 9737   8.587  13.107   8.204 -0.3452  0.0141 -0.1419
  609loPI   C4A 9738   8.546  13.051   7.688 -0.0761  0.1286  0.0913
  609loPI   C5A 9739   8.438  13.004   7.305  0.1123 -0.2925 -0.1993
  609loPI   C6A 9740   8.160  13.070   7.044  0.0743 -0.2472  0.1796
  609loPI   C1B 9741   8.245  13.721   8.952 -0.5536 -0.2245  0.0051
  609loPI   C2B 9742   8.260  13.924   8.540 -0.1237  0.0711 -0.0969
  609loPI   C3B 9743   8.234  13.940   8.081  0.4233 -0.2654 -0.1499
  609loPI   C4B 9744   8.109  14.034   7.728  0.1563  0.0674 -0.1931
  610loPI    C1 9745   9.212   8.813   9.854 -0.0832 -0.0594 -0.0047
  610loPI    C2 9746   9.239   8.432   9.976  0.0375 -0.0399  0.0309
  610loPI    C3 9747   9.103   8.713  10.226 -0.3399 -0.1082 -0.0907
  610loPI   PO4 9748   9.146   8.837   9.548 -0.0414  0.2634 -0.1183
  610loPI   GL1 9749   9.050   9.088   9.240  0.0683  0.0543 -0.0594
  610loPI   GL2 9750   8.826   9.297   9.136 -0.2981  0.1393  0.6791
  610loPI   C1A 9751   8.805   8.988   8.772 -0.0644 -0.0722  0.0823
  610loPI   C2A 9752   8.855   8.995   8.420 -0.2616 -0.0560 -0.1585
  610loPI   C3A 9753   8.879   9.180   7.982  0.1608  0.0099 -0.5072
  610loPI   C4A 9754   8.821   9.036   7.531 -0.0299 -0.1388  0.0891
  610loPI   C5A 9755   8.752   9.188   7.110  0.1179  0.0781 -0.0182
  610loPI   C6A 9756   8.815   9.161   6.741  0.2655 -0.1102  0.2579
  610loPI   C1B 9757   8.534   9.399   8.749 -0.1419  0.2507  0.1076
  610loPI   C2B 9758   8.459   9.331   8.264 -0.1248 -0.0311 -0.0760
  610loPI   C3B 9759   8.388   9.215   7.883 -0.1251 -0.0870 -0.3146
  610loPI   C4B 9760   8.249   9.218   7.406  0.1750  0.0795 -0.1704
  611loPI    C1 9761  10.250   4.665   9.976 -0.4505 -0.2066  0.1502
  611loPI    C2 9762  10.382   5.041  10.010 -0.0587 -0.3125 -0.1248
  611loPI    C3 9763  10.307   4.825  10.338  0.1526 -0.1431  0.0389
  611loPI   PO4 9764  10.390   4.582   9.783  0.1990  0.1277  0.1332
  611loPI   GL1 9765  10.574   4.525   9.408 -0.1064  0.2762  0.0382
  611loPI   GL2 9766  10.572   4.221   9.333 -0.0060 -0.2539  0.1146
  611loPI   C1A 9767  10.570   4.688   8.957 -0.0749  0.0496 -0.1336
  611loPI   C2A 9768  10.612   4.745   8.577 -0.1416 -0.0219  0.2172
  611loPI   C3A 9769  10.739   4.484   8.156  0.1876 -0.0019 -0.0328
  611loPI   C4A 9770  10.649   4.759   7.820 -0.1236 -0.2527 -0.1100
  611loPI   C5A 9771  10.796   4.710   7.283  0.3476 -0.2882 -0.0210
  611loPI   C6A 9772  10.799   4.566   6.869  0.0020  0.0660  0.1464
  611loPI   C1B 9773  10.459   4.154   8.874  0.0146 -0.0967  0.1227
  611loPI   C2B 9774  10.434   4.156   8.513 -0.0134  0.4599 -0.0083
  611loPI   C3B 9775  10.087   4.146   8.370 -0.0184  0.2256 -0.1399
  611loPI   C4B 9776   9.871   4.273   8.090 -0.0148  0.1099  0.0786
  612loPI    C1 9777  17.025  10.096   9.858  0.0774 -0.1906  0.0238
  612loPI    C2 9778  16.904  10.320  10.167 -0.0578 -0.2586  0.0205
  612loPI    C3 9779  16.928   9.922  10.205  0.1320 -0.2490  0.0100
  612loPI   PO4 9780  17.247  10.233   9.774  0.2747  0.0868  0.1148
  612loPI   GL1 9781  17.398  10.398   9.499 -0.0744  0.0853  0.0273
  612loPI   GL2 9782  17.234  10.696   9.389 -0.0931  0.3173 -0.1438
  612loPI   C1A 9783  17.359  10.226   9.162 -0.1154 -0.3288 -0.1513
  612loPI   C2A 9784  17.604  10.138   8.783 -0.0483 -0.1220  0.0009
  612loPI   C3A 9785  17.943  10.005   8.570  0.0067  0.0816 -0.2608
  612loPI   C4A 9786  17.951   9.763   8.163  0.1900 -0.0725  0.2242
  612loPI   C5A 9787  18.055   9.626   7.693  0.2093 -0.1468 -0.0482
  612loPI   C6A 9788  17.674   9.404   7.392 -0.0859 -0.0640  0.3346
  612loPI   C1B 9789  17.272  10.716   8.933  0.1291  0.0222  0.0045
  612loPI   C2B 9790  17.445  10.862   8.556 -0.3274  0.2317 -0.1351
  612loPI   C3B 9791  17.291  10.751   8.149 -0.1075  0.1233  0.1295
  612loPI   C4B 9792  17.258  10.701   7.692  0.0898  0.1393  0.0847
  613loPI    C1 9793  10.515   6.551   9.563 -0.2037  0.1081 -0.0305
  613loPI    C2 9794  10.546   6.944   9.491 -0.0228  0.1009  0.0030
  613loPI    C3 9795  10.697   6.790   9.828 -0.1853  0.0174  0.0389
  613loPI   PO4 9796  10.295   6.541   9.346  0.2054 -0.2448 -0.2083
  613loPI   GL1 9797  10.393   6.065   9.119  0.3950 -0.1733 -0.0915
  613loPI   GL2 9798  10.549   6.316   8.872  0.0666 -0.0596 -0.2752
  613loPI   C1A 9799  10.351   5.751   8.704 -0.1508  0.4724 -0.0171
  613loPI   C2A 9800  10.188   5.577   8.286  0.0535  0.3620  0.2896
  613loPI   C3A 9801  10.102   5.520   7.842  0.2961 -0.3332 -0.2436
  613loPI   C4A 9802   9.998   5.323   7.477  0.1912  0.1763 -0.2116
  613loPI   C5A 9803  10.244   5.094   7.249  0.2281 -0.2520 -0.0384
  613loPI   C6A 9804  10.366   5.085   6.913  0.0325 -0.2320 -0.1275
  613loPI   C1B 9805  10.729   6.521   8.468 -0.0319  0.1593  0.2215
  613loPI   C2B 9806  10.531   6.447   8.038 -0.1542  0.0668 -0.1198
  613loPI   C3B 9807  10.595   6.323   7.631 -0.0496 -0.0372  0.0667
  613loPI   C4B 9808  10.619   6.185   7.150 -0.0257  0.0206 -0.0001
  614loPI    C1 9809  14.058  15.223  10.795  0.0898 -0.0512  0.1444
  614loPI    C2 9810  13.750  15.174  11.046  0.0746 -0.1540  0.1062
  614loPI    C3 9811  14.120  15.072  11.160  0.0810 -0.1170  0.1187
  614loPI   PO4 9812  13.922  15.233  10.530 -0.1501  0.1659  0.1729
  614loPI   GL1 9813  13.763  15.353  10.149  0.1420  0.0268 -0.0112
  614loPI   GL2 9814  13.589  15.602  10.324 -0.0875 -0.0462 -0.2484
  614loPI   C1A 9815  13.597  15.194   9.741  0.0779  0.0960 -0.0494
  614loPI   C2A 9816  13.344  15.221   9.250 -0.1591 -0.1001 -0.1220
  614loPI   C3A 9817  13.195  15.162   8.862 -0.0846 -0.0954 -0.2110
  614loPI   C4A 9818  13.176  15.334   8.429 -0.2549 -0.0230 -0.2136
  614loPI   C5A 9819  13.274  15.770   8.142  0.2663  0.1733 -0.5077
  614loPI   C6A 9820  13.085  16.124   8.255 -0.1776  0.0810 -0.0455
  614loPI   C1B 9821  13.432  15.643   9.886  0.1134 -0.1488 -0.2088
  614loPI   C2B 9822  13.393  15.661   9.467 -0.0121  0.0456 -0.2035
  614loPI   C3B 9823  13.490  15.676   9.047 -0.1880  0.1422  0.0081
  614loPI   C4B 9824  13.384  15.827   8.636  0.0142  0.2516  0.1366
  615loPI    C1 9825   8.961  17.928  10.366 -0.2379 -0.1378  0.2975
  615loPI    C2 9826   9.208  18.087  10.638 -0.0180 -0.2894  0.1892
  615loPI    C3 9827   8.812  18.123  10.682  0.0239  0.1879  0.2263
  615loPI   PO4 9828   9.090  17.678  10.350 -0.1417  0.1325  0.2726
  615loPI   GL1 9829   9.195  17.440  10.027 -0.1292  0.2304  0.1347
  615loPI   GL2 9830   9.416  17.314  10.002  0.1969 -0.1875 -0.1289
  615loPI   C1A 9831   8.924  17.234   9.708 -0.1282  0.0216 -0.3108
  615loPI   C2A 9832   8.885  16.955   9.385 -0.4283 -0.1543  0.0945
  615loPI   C3A 9833   8.746  16.805   8.914  0.2780 -0.0306 -0.0623
  615loPI   C4A 9834   8.714  17.058   8.508  0.1166 -0.1453 -0.2142
  615loPI   C5A 9835   8.446  17.042   8.166  0.0688 -0.0066  0.0335
  615loPI   C6A 9836   8.400  17.129   7.705  0.0507 -0.2963  0.1527
  615loPI   C1B 9837   9.472  17.167   9.562  0.0095  0.1745  0.1978
  615loPI   C2B 9838   9.548  17.274   9.139  0.1320  0.2017  0.1105
  615loPI   C3B 9839   9.592  17.243   8.710  0.1910 -0.1625  0.0507
  615loPI   C4B 9840   9.800  17.304   8.253  0.2514  0.2310 -0.0465
  616loPI    C1 9841   4.836  11.052  10.040  0.0418  0.0734 -0.1618
  616loPI    C2 9842   4.569  11.215  10.290  0.2588  0.1109  0.0498
  616loPI    C3 9843   4.902  11.414  10.196  0.2703  0.0146 -0.1190
  616loPI   PO4 9844   4.728  10.982   9.864 -0.1681  0.0518  0.0492
  616loPI   GL1 9845   4.542  11.097   9.389  0.0409 -0.2399  0.1914
  616loPI   GL2 9846   4.843  11.018   9.296  0.1060  0.0279 -0.1150
  616loPI   C1A 9847   4.478  11.233   8.924 -0.0807 -0.0428 -0.3814
  616loPI   C2A 9848   4.184  11.223   8.585 -0.1137  0.0431 -0.1505
  616loPI   C3A 9849   3.928  11.330   8.220  0.1726 -0.1801  0.1615
  616loPI   C4A 9850   3.815  11.299   7.813  0.1595 -0.4223  0.0084
  616loPI   C5A 9851   3.775  11.200   7.358 -0.0292  0.1562 -0.1690
  616loPI   C6A 9852   3.446  10.949   7.078 -0.0626 -0.2653 -0.0103
  616loPI   C1B 9853   4.996  11.292   8.857  0.0856  0.1108 -0.0582
  616loPI   C2B 9854   4.902  11.224   8.471 -0.2480 -0.0820  0.3908
  616loPI   C3B 9855   4.578  11.077   8.294  0.3312 -0.2146 -0.0634
  616loPI   C4B 9856   4.222  10.853   8.176  0.0038 -0.5258 -0.2102
  617loPI    C1 9857   9.635  12.573   9.723  0.1863 -0.0932 -0.0767
  617loPI    C2 9858   9.837  12.236   9.799 -0.1818 -0.2644  0.1705
  617loPI    C3 9859   9.667  12.439  10.099 -0.2194 -0.0220 -0.0121
  617loPI   PO4 9860   9.549  12.560   9.482 -0.2003  0.0462 -0.0332
  617loPI   GL1 9861   9.740  12.307   9.222  0.0089  0.1135 -0.1591
  617loPI   GL2 9862  10.035  12.240   9.372 -0.1533 -0.2510 -0.1895
  617loPI   C1A 9863   9.588  12.267   8.862  0.1996 -0.1035  0.0645
  617loPI   C2A 9864   9.474  12.104   8.371  0.1061 -0.2553 -0.3518
  617loPI   C3A 9865   9.228  11.904   8.159  0.1836 -0.0797  0.1373
  617loPI   C4A 9866   9.217  11.782   7.843  0.1299 -0.0220  0.0281
  617loPI   C5A 9867   9.406  11.991   7.578 -0.1225  0.1775  0.2523
  617loPI   C6A 9868   9.413  12.261   7.223 -0.1164  0.1767 -0.3924
  617loPI   C1B 9869  10.076  12.033   8.963 -0.4301  0.4173 -0.2554
  617loPI   C2B 9870   9.921  12.065   8.577 -0.1651 -0.0160  0.1486
  617loPI   C3B 9871   9.829  12.446   8.401  0.0333 -0.0017 -0.0443
  617loPI   C4B 9872   9.615  12.692   8.142 -0.0700  0.2425 -0.3129
  618loPI    C1 9873   3.183  18.177   9.733  0.0110 -0.1167  0.2383
  618loPI    C2 9874   2.868  18.072   9.956 -0.0782 -0.1107  0.1161
  618loPI    C3 9875   3.022  18.440   9.989 -0.2317 -0.0353  0.0070
  618loPI   PO4 9876   3.143  18.063   9.470  0.0111  0.2191 -0.1406
  618loPI   GL1 9877   2.943  18.038   9.070  0.0060 -0.0421  0.0074
  618loPI   GL2 9878   2.580  18.107   9.007 -0.1174 -0.0881 -0.0353
  618loPI   C1A 9879   2.997  17.852   8.667  0.0265  0.2670  0.2410
  618loPI   C2A 9880   3.249  17.467   8.413  0.2840 -0.1726  0.3573
  618loPI   C3A 9881   3.168  17.178   8.079 -0.2218 -0.2002 -0.1454
  618loPI   C4A 9882   3.013  17.216   7.629 -0.0960 -0.2680 -0.0781
  618loPI   C5A 9883   2.772  16.890   7.323  0.0133  0.0493  0.4231
  618loPI   C6A 9884   2.555  16.966   6.923  0.0652  0.0907 -0.0125
  618loPI   C1B 9885   2.519  18.025   8.540 -0.0622  0.0008 -0.2265
  618loPI   C2B 9886   2.417  18.050   8.109  0.0130  0.0516  0.0783
  618loPI   C3B 9887   2.286  17.886   7.711  0.0330  0.0329 -0.1083
  618loPI   C4B 9888   1.911  17.921   7.548 -0.0543 -0.0095 -0.0791
  619loPI    C1 9889   1.528   3.940   9.708  0.1785 -0.2507  0.1804
  619loPI    C2 9890   1.144   3.961   9.818  0.0818  0.2495 -0.2151
  619loPI    C3 9891   1.409   4.219   9.969  0.1775  0.1815 -0.2660
  619loPI   PO4 9892   1.437   3.854   9.411 -0.0131  0.1299 -0.0514
  619loPI   GL1 9893   1.415   4.104   8.925  0.0030  0.0224 -0.3672
  619loPI   GL2 9894   1.142   4.186   9.080 -0.2947  0.1552 -0.3545
  619loPI   C1A 9895   1.619   4.182   8.651 -0.1371 -0.0376  0.2176
  619loPI   C2A 9896   1.645   4.031   8.229 -0.0645 -0.3032 -0.3478
  619loPI   C3A 9897   1.544   3.869   7.755 -0.2699 -0.1255  0.0846
  619loPI   C4A 9898   1.544   3.800   7.354  0.0571 -0.1857 -0.3097
  619loPI   C5A 9899   1.523   3.982   6.985 -0.0361  0.0763 -0.3167
  619loPI   C6A 9900   1.324   4.203   6.723 -0.2628  0.1214 -0.2174
  619loPI   C1B 9901   1.118   4.237   8.613 -0.0907 -0.1630  0.0094
  619loPI   C2B 9902   1.035   4.389   8.291 -0.0386 -0.2290  0.2106
  619loPI   C3B 9903   1.007   4.505   7.813 -0.2011  0.1205 -0.0588
  619loPI   C4B 9904   0.629   4.398   7.559  0.3807  0.2466  0.0155
  620loPI    C1 9905  16.248   4.110   9.771 -0.2149  0.0935 -0.3377
  620loPI    C2 9906  16.380   4.486   9.813 -0.2768  0.0786  0.0261
  620loPI    C3 9907  16.059   4.362  10.018 -0.0300 -0.2821  0.2059
  620loPI   PO4 9908  16.496   3.987   9.738 -0.1627  0.0656 -0.2846
  620loPI   GL1 9909  16.813   3.701   9.421 -0.4447 -0.0202  0.1825
  620loPI   GL2 9910  17.103   3.835   9.308 -0.0909  0.0155 -0.1441
  620loPI   C1A 9911  16.694   3.419   8.988  0.0355 -0.2839 -0.4165
  620loPI   C2A 9912  16.912   3.179   8.665  0.0132  0.2282 -0.1059
  620loPI   C3A 9913  17.051   3.082   8.262 -0.2461  0.0241  0.5011
  620loPI   C4A 9914  17.143   3.137   7.896 -0.1235 -0.2386 -0.1612
  620loPI   C5A 9915  16.988   3.516   7.767  0.0786  0.1390 -0.1365
  620loPI   C6A 9916  16.875   3.926   7.577 -0.0382 -0.0022 -0.0851
  620loPI   C1B 9917  17.332   3.545   8.965  0.1836 -0.1151 -0.5333
  620loPI   C2B 9918  17.352   3.390   8.587 -0.2681  0.1508 -0.0901
  620loPI   C3B 9919  17.200   3.575   8.226 -0.0717  0.2740  0.1765
  620loPI   C4B 9920  16.955   3.940   8.128  0.1904 -0.4342  0.2518
  621loPI    C1 9921  14.622  17.499  10.756  0.0904 -0.0075 -0.0719
  621loPI    C2 9922  14.369  17.708  10.985 -0.3974 -0.5017 -0.1373
  621loPI    C3 9923  14.745  17.645  11.108 -0.3050  0.2020 -0.0153
  621loPI   PO4 9924  14.647  17.637  10.552  0.1422 -0.0096  0.1604
  621loPI   GL1 9925  14.732  17.726  10.211  0.1235 -0.1284  0.5591
  621loPI   GL2 9926  14.355  17.746  10.119  0.0013 -0.0868 -0.3538
  621loPI   C1A 9927  14.879  17.605   9.756 -0.1971 -0.1318 -0.3697
  621loPI   C2A 9928  14.979  17.621   9.341 -0.0012  0.3415 -0.1262
  621loPI   C3A 9929  15.088  17.506   8.952  0.0762 -0.2039 -0.1583
  621loPI   C4A 9930  15.206  17.559   8.532 -0.0233 -0.2352  0.0543
  621loPI   C5A 9931  15.263  17.946   8.202  0.0503  0.0318 -0.1603
  621loPI   C6A 9932  15.633  18.197   8.108  0.2230  0.0267  0.1174
  621loPI   C1B 9933  14.128  17.998   9.768 -0.3761 -0.1403  0.1785
  621loPI   C2B 9934  13.945  18.111   9.423  0.0455 -0.1818 -0.0980
  621loPI   C3B 9935  13.901  18.019   8.964 -0.1451  0.0439  0.2021
  621loPI   C4B 9936  14.047  18.013   8.444 -0.0533 -0.1091 -0.1373
  622loPI    C1 9937   4.565  10.080   9.700  0.0771 -0.0393  0.0122
  622loPI    C2 9938   4.281   9.984   9.964  0.0392 -0.2452 -0.1009
  622loPI    C3 9939   4.589   9.737   9.903  0.2026 -0.0601 -0.0369
  622loPI   PO4 9940   4.420  10.169   9.456  0.0822 -0.1149 -0.1142
  622loPI   GL1 9941   4.363  10.354   9.107 -0.0485 -0.1857  0.7396
  622loPI   GL2 9942   4.615  10.609   9.160  0.0233 -0.1305  0.0584
  622loPI   C1A 9943   4.435  10.276   8.707  0.2237 -0.0130 -0.1190
  622loPI   C2A 9944   4.390  10.056   8.357 -0.4444  0.2964  0.4299
  622loPI   C3A 9945   4.652  10.076   7.939 -0.1668 -0.0937  0.1807
  622loPI   C4A 9946   4.970   9.831   7.715 -0.2206  0.0638  0.1503
  622loPI   C5A 9947   4.969  10.038   7.323 -0.0107  0.1429 -0.2208
  622loPI   C6A 9948   4.924  10.363   7.086 -0.3044 -0.5147  0.0236
  622loPI   C1B 9949   4.687  10.707   8.659  0.0890  0.1864 -0.0337
  622loPI   C2B 9950   4.571  10.521   8.295 -0.2561 -0.3012  0.2702
  622loPI   C3B 9951   4.469  10.602   7.825  0.0549  0.0822  0.1323
  622loPI   C4B 9952   4.497  10.467   7.280  0.3122 -0.1979 -0.2337
  623loPI    C1 9953   3.566   0.334   9.927 -0.1190  0.0396 -0.1814
  623loPI    C2 9954   3.612   0.361  10.323  0.0048  0.1860 -0.2047
  623loPI    C3 9955   3.667   0.011  10.138  0.8586  0.2997 -0.2054
  623loPI   PO4 9956   3.646   0.592   9.816  0.0829  0.1912 -0.0159
  623loPI   GL1 9957   3.664   0.694   9.446 -0.1222  0.0375 -0.0742
  623loPI   GL2 9958   3.404   0.381   9.384  0.2010 -0.0744  0.1021
  623loPI   C1A 9959   3.522   0.772   9.087  0.1102 -0.2511  0.0124
  623loPI   C2A 9960   3.222   0.709   8.664 -0.0799  0.0361 -0.2109
  623loPI   C3A 9961   3.074   0.519   8.269  0.0431  0.2089  0.1512
  623loPI   C4A 9962   3.167   0.626   7.870 -0.0479  0.0301 -0.0105
  623loPI   C5A 9963   3.103   0.687   7.451 -0.1192 -0.0506 -0.3063
  623loPI   C6A 9964   3.226   0.421   7.183  0.2502 -0.0739 -0.2238
  623loPI   C1B 9965   3.268   0.248   8.994 -0.0617 -0.2192 -0.2106
  623loPI   C2B 9966   3.117   0.011   8.793  0.1512  0.0045 -0.1972
  623loPI   C3B 9967   3.035  -0.035   8.388 -0.2749 -0.2033  0.1692
  623loPI   C4B 9968   3.176  -0.046   8.033  0.2766 -0.0075 -0.0825
  624loPI    C1 9969   5.942  13.062   9.730 -0.0206 -0.0507  0.0590
  624loPI    C2 9970   5.811  12.735   9.919 -0.2378  0.0034  0.0050
  624loPI    C3 9971   5.684  13.096  10.033 -0.1638  0.0547 -0.0733
  624loPI   PO4 9972   5.954  12.948   9.456 -0.0930  0.2650  0.2586
  624loPI   GL1 9973   5.880  12.825   9.133  0.0042 -0.2212  0.3604
  624loPI   GL2 9974   5.507  12.853   8.977  0.2880 -0.3097  0.2568
  624loPI   C1A 9975   6.066  12.446   8.789 -0.2070 -0.0338  0.1685
  624loPI   C2A 9976   6.014  12.182   8.412 -0.0848  0.0699 -0.0630
  624loPI   C3A 9977   5.801  11.914   8.091 -0.2340 -0.2279 -0.1577
  624loPI   C4A 9978   5.594  11.976   7.775 -0.3074 -0.0780 -0.0826
  624loPI   C5A 9979   5.706  11.937   7.431 -0.2434 -0.1728 -0.0529
  624loPI   C6A 9980   5.791  11.940   6.993  0.4188  0.2416  0.1236
  624loPI   C1B 9981   5.236  12.540   8.771 -0.0803  0.2280 -0.1113
  624loPI   C2B 9982   5.143  12.488   8.258 -0.1660 -0.0457  0.2105
  624loPI   C3B 9983   5.293  12.366   7.794  0.0689  0.1072 -0.2108
  624loPI   C4B 9984   5.287  12.530   7.373 -0.1870  0.0326 -0.0980
  625loPI    C1 9985   2.921   4.864  10.124  0.0148  0.2615 -0.0062
  625loPI    C2 9986   2.552   4.859  10.277  0.0126  0.1178 -0.0155
  625loPI    C3 9987   2.849   5.035  10.478 -0.0193  0.0540  0.0884
  625loPI   PO4 9988   2.880   4.898   9.838 -0.3363  0.0144 -0.1503
  625loPI   GL1 9989   2.957   4.843   9.478 -0.1894 -0.2032 -0.1555
  625loPI   GL2 9990   3.152   4.991   9.225 -0.0470 -0.1818 -0.2506
  625loPI   C1A 9991   2.636   4.706   9.152 -0.1268  0.0805 -0.1715
  625loPI   C2A 9992   2.566   4.517   8.753  0.0248 -0.2771 -0.2114
  625loPI   C3A 9993   2.396   4.502   8.303  0.0791 -0.0578  0.2573
  625loPI   C4A 9994   2.430   4.623   7.908 -0.0654 -0.4381 -0.0816
  625loPI   C5A 9995   2.491   4.598   7.478 -0.0231 -0.0621  0.0128
  625loPI   C6A 9996   2.733   4.523   7.078  0.1344 -0.1826 -0.2919
  625loPI   C1B 9997   3.360   4.942   8.934 -0.0256  0.0239 -0.0462
  625loPI   C2B 9998   3.410   4.892   8.550  0.0313 -0.0523 -0.0850
  625loPI   C3B 9999   3.371   4.823   8.104  0.1401  0.1331  0.3229
  625loPI   C4B10000   3.264   4.869   7.726 -0.2907  0.2602  0.1001
  626loPI    C110001  18.395   1.913  10.428  0.0427  0.2400  0.0864
  626loPI    C210002  18.660   2.008  10.712  0.0879  0.0496  0.1095
  626loPI    C310003  18.269   2.067  10.775  0.1027  0.0678  0.1859
  626loPI   PO410004  18.549   2.018  10.063 -0.0661 -0.0389  0.3073
  626loPI   GL110005  18.490   1.802   9.545  0.1277 -0.1506  0.0922
  626loPI   GL210006  18.417   2.037   9.589  0.1213  0.0302  0.0404
  626loPI   C1A10007  18.829   1.722   9.337 -0.2098 -0.1113  0.0202
  626loPI   C2A10008  19.074   1.559   9.085  0.1001  0.3655 -0.0001
  626loPI   C3A10009  18.879   1.663   8.750 -0.0556 -0.2293  0.0276
  626loPI   C4A10010  18.958   1.616   8.379 -0.1289  0.1604  0.2347
  626loPI   C5A10011  18.785   1.604   8.036 -0.3694 -0.0657  0.0821
  626loPI   C6A10012  18.750   1.619   7.557 -0.1184 -0.0667  0.0687
  626loPI   C1B10013  18.297   1.954   9.098 -0.1057  0.1327 -0.2254
  626loPI   C2B10014  18.288   1.790   8.706  0.2021  0.2225 -0.2549
  626loPI   C3B10015  18.373   1.789   8.223  0.0119  0.0366 -0.0143
  626loPI   C4B10016  18.405   1.820   7.794 -0.0941  0.3157  0.0994
  627loPI    C110017   3.463   9.963   9.713 -0.0179  0.0820  0.0520
  627loPI    C210018   3.369  10.024  10.097 -0.0986  0.1110  0.0278
  627loPI    C310019   3.125   9.811   9.862 -0.1053  0.1878 -0.0358
  627loPI   PO410020   3.465  10.146   9.598  0.1451  0.1124 -0.3883
  627loPI   GL110021   3.702  10.119   9.144  0.2082 -0.2350  0.2329
  627loPI   GL210022   3.448  10.132   9.090 -0.2058  0.0692  0.1328
  627loPI   C1A10023   3.930  10.260   8.793  0.2455 -0.3072 -0.0207
  627loPI   C2A10024   3.893  10.124   8.516 -0.0087  0.1629  0.0347
  627loPI   C3A10025   4.006  10.257   8.128  0.0759 -0.1079 -0.4190
  627loPI   C4A10026   4.193  10.188   7.712 -0.2262  0.0968  0.1359
  627loPI   C5A10027   4.471   9.924   7.498 -0.1006 -0.2441 -0.0058
  627loPI   C6A10028   4.642   9.602   7.250  0.2219 -0.0794 -0.0443
  627loPI   C1B10029   3.417  10.092   8.612 -0.2131  0.2218 -0.1784
  627loPI   C2B10030   3.516  10.017   8.123 -0.2687 -0.1309  0.0850
  627loPI   C3B10031   3.713   9.894   7.770  0.0868 -0.1483 -0.0123
  627loPI   C4B10032   3.789   9.715   7.358 -0.3311 -0.1423  0.3548
  628loPI    C110033  15.888   8.272   9.971  0.0279 -0.2205  0.1283
  628loPI    C210034  15.894   8.668  10.026 -0.0948 -0.1697 -0.2009
  628loPI    C310035  15.575   8.455  10.139 -0.0008 -0.1868  0.0385
  628loPI   PO410036  16.042   8.252   9.747  0.1541 -0.0568  0.2332
  628loPI   GL110037  15.828   8.405   9.293  0.2184 -0.0344 -0.4389
  628loPI   GL210038  15.764   8.766   9.208  0.1076 -0.1387 -0.2175
  628loPI   C1A10039  15.733   8.138   8.917 -0.0351 -0.1649 -0.2009
  628loPI   C2A10040  15.916   8.140   8.529  0.1500 -0.0492  0.3619
  628loPI   C3A10041  15.731   7.999   8.160 -0.1336  0.1246 -0.0600
  628loPI   C4A10042  15.538   8.071   7.821  0.0885 -0.1836 -0.1139
  628loPI   C5A10043  15.368   8.300   7.509  0.0291  0.0440 -0.1284
  628loPI   C6A10044  15.003   8.445   7.310  0.2045  0.1223  0.3071
  628loPI   C1B10045  15.923   8.656   8.885  0.0906  0.2440 -0.3514
  628loPI   C2B10046  15.761   8.593   8.442  0.4399  0.0972  0.2805
  628loPI   C3B10047  15.864   8.679   8.010 -0.1907  0.1193 -0.3289
  628loPI   C4B10048  15.840   8.498   7.652 -0.0511  0.0726 -0.2949
  629loPI    C110049  11.351  16.717  10.152 -0.1012  0.0412  0.0074
  629loPI    C210050  11.544  16.562  10.466 -0.0469 -0.2077 -0.1456
  629loPI    C310051  11.148  16.615  10.481 -0.0123  0.0083  0.0521
  629loPI   PO410052  11.486  16.797  10.043  0.0316 -0.0703  0.1209
  629loPI   GL110053  11.752  16.935   9.651 -0.1191  0.0072 -0.1298
  629loPI   GL210054  11.974  16.694   9.630  0.1748  0.1190 -0.0470
  629loPI   C1A10055  11.911  16.904   9.147 -0.0035  0.1002 -0.0913
  629loPI   C2A10056  12.177  16.695   8.818  0.2631 -0.0908 -0.0890
  629loPI   C3A10057  12.546  16.689   8.532 -0.3240 -0.1025  0.2202
  629loPI   C4A10058  12.807  16.596   8.293  0.2354 -0.0275 -0.1110
  629loPI   C5A10059  13.311  16.555   8.228  0.0408 -0.1838 -0.1219
  629loPI   C6A10060  13.743  16.610   8.367  0.1162  0.1601  0.0856
  629loPI   C1B10061  12.443  16.701   9.563 -0.5147  0.1829  0.1421
  629loPI   C2B10062  12.775  16.678   9.465  0.1784 -0.1166  0.1776
  629loPI   C3B10063  13.049  16.346   9.386  0.0368  0.0526 -0.1803
  629loPI   C4B10064  13.148  16.114   9.042  0.3481  0.2196 -0.0367
  630loPI    C110065   0.776   5.171   9.951  0.1066  0.0061 -0.1763
  630loPI    C210066   0.496   5.442  10.038  0.0829 -0.0635 -0.0314
  630loPI    C310067   0.578   5.150  10.298  0.2249 -0.0981 -0.1142
  630loPI   PO410068   0.682   5.144   9.560  0.0182 -0.3851  0.0975
  630loPI   GL110069   0.921   5.196   9.154 -0.1291 -0.3255 -0.1778
  630loPI   GL210070   1.287   5.444   9.164  0.0585  0.1933  0.0864
  630loPI   C1A10071   0.741   5.179   8.807  0.0552  0.2808 -0.1887
  630loPI   C2A10072   0.531   5.384   8.531  0.4444  0.0745  0.1093
  630loPI   C3A10073   0.546   5.445   8.165 -0.2584 -0.1597 -0.2744
  630loPI   C4A10074   0.701   5.494   7.713  0.1281 -0.2053  0.1682
  630loPI   C5A10075   0.821   5.712   7.392  0.0454  0.0813  0.1727
  630loPI   C6A10076   0.892   6.074   7.297 -0.1992 -0.0220 -0.3623
  630loPI   C1B10077   1.204   5.119   8.754  0.0365  0.1248  0.0557
  630loPI   C2B10078   1.347   4.984   8.310  0.2921  0.0263 -0.2272
  630loPI   C3B10079   1.373   4.896   7.895  0.2382 -0.1662 -0.1595
  630loPI   C4B10080   1.316   4.770   7.463  0.2027  0.1989 -0.1283
  631loPI    C110081   7.450   3.785   9.919 -0.1016  0.0043  0.0093
  631loPI    C210082   7.659   4.126   9.906 -0.1716  0.0424 -0.1272
  631loPI    C310083   7.764   3.837  10.162 -0.0689  0.1379 -0.0608
  631loPI   PO410084   7.355   3.728   9.644  0.0785 -0.1449  0.0972
  631loPI   GL110085   7.447   3.581   9.263 -0.0243  0.0610  0.0450
  631loPI   GL210086   7.138   3.619   9.233 -0.1836 -0.2924  0.0679
  631loPI   C1A10087   7.496   3.740   8.804 -0.1936  0.0365  0.2252
  631loPI   C2A10088   7.311   3.669   8.345  0.0380  0.0765  0.0127
  631loPI   C3A10089   7.081   3.706   7.907  0.0580 -0.1097 -0.1222
  631loPI   C4A10090   7.012   3.895   7.574 -0.5326 -0.0404 -0.2015
  631loPI   C5A10091   6.980   4.287   7.211 -0.1721 -0.2236 -0.1139
  631loPI   C6A10092   6.656   4.573   6.888  0.1345 -0.2544 -0.0532
  631loPI   C1B10093   7.003   3.640   8.815 -0.1917 -0.0088  0.1616
  631loPI   C2B10094   6.770   3.685   8.394  0.3392 -0.0113  0.0008
  631loPI   C3B10095   6.777   3.297   8.167 -0.0580  0.1261  0.1532
  631loPI   C4B10096   6.686   3.009   7.858  0.1467  0.1101  0.1350
  632loPI    C110097   0.530  13.911  10.059  0.4241  0.0773 -0.0266
  632loPI    C210098   0.768  13.620  10.195  0.0910 -0.1340  0.1173
  632loPI    C310099   0.464  13.750  10.419 -0.0301  0.0178 -0.1313
  632loPI   PO410100   0.666  13.856   9.774 -0.0290 -0.1870  0.0128
  632loPI   GL110101   0.557  14.069   9.349  0.0354  0.1283 -0.3468
  632loPI   GL210102   0.248  13.928   9.385 -0.0760 -0.2265 -0.1383
  632loPI   C1A10103   0.569  14.068   8.924  0.2261  0.0757  0.1474
  632loPI   C2A10104   0.597  14.040   8.409  0.1577 -0.2132 -0.0870
  632loPI   C3A10105   0.458  13.675   8.231  0.1024  0.1269  0.0394
  632loPI   C4A10106   0.346  13.544   7.789  0.2828 -0.1611 -0.1692
  632loPI   C5A10107   0.277  13.359   7.317 -0.1031  0.1373  0.0424
  632loPI   C6A10108   0.225  13.090   6.931 -0.1708  0.0922 -0.0771
  632loPI   C1B10109   0.093  13.851   9.056 -0.1672  0.0060  0.2993
  632loPI   C2B10110  -0.009  13.823   8.723 -0.0990  0.3951  0.3070
  632loPI   C3B10111   0.008  13.869   8.284  0.0606  0.2002  0.0054
  632loPI   C4B10112  -0.131  13.994   7.930  0.0942 -0.3677 -0.0675
  633loPI    C110113   2.360  14.927   9.744 -0.2663 -0.0891  0.0330
  633loPI    C210114   2.059  14.676   9.825 -0.1266 -0.1991  0.2179
  633loPI    C310115   2.425  14.605   9.971 -0.0313 -0.0151  0.0738
  633loPI   PO410116   2.295  15.165   9.626  0.0005  0.2540  0.1392
  633loPI   GL110117   2.291  15.621   9.637  0.2712  0.1028 -0.0131
  633loPI   GL210118   2.056  15.573   9.468 -0.1647  0.1708 -0.0078
  633loPI   C1A10119   2.413  15.674   9.132  0.0503  0.3708 -0.3911
  633loPI   C2A10120   2.353  15.455   8.699 -0.1485  0.0259  0.0748
  633loPI   C3A10121   2.410  15.417   8.359 -0.1322  0.3548 -0.0456
  633loPI   C4A10122   2.637  15.426   7.980  0.0195 -0.1677 -0.2356
  633loPI   C5A10123   2.561  15.463   7.507 -0.1646 -0.0133 -0.1981
  633loPI   C6A10124   2.296  15.628   7.196  0.0266 -0.1024  0.5386
  633loPI   C1B10125   1.975  15.345   9.040 -0.1883 -0.2656  0.1386
  633loPI   C2B10126   1.849  15.318   8.592 -0.0370  0.2820  0.0038
  633loPI   C3B10127   1.908  15.304   8.141 -0.3741  0.0529 -0.0050
  633loPI   C4B10128   2.163  15.477   7.763  0.3984  0.0220  0.0697
  634loPI    C110129  10.413   1.409  10.330 -0.1275 -0.1051 -0.0950
  634loPI    C210130  10.759   1.488  10.147 -0.0517  0.1948  0.1688
  634loPI    C310131  10.750   1.442  10.544 -0.2904  0.0272  0.1457
  634loPI   PO410132  10.286   1.288  10.073 -0.4184 -0.1652  0.0937
  634loPI   GL110133  10.304   1.239   9.677  0.0728  0.0156 -0.2147
  634loPI   GL210134  10.225   1.456   9.452  0.1748  0.1802 -0.3137
  634loPI   C1A10135  10.541   1.033   9.383 -0.2134 -0.1872  0.1985
  634loPI   C2A10136  10.490   1.044   8.942 -0.3595  0.2553  0.2076
  634loPI   C3A10137  10.449   1.021   8.535  0.2776  0.1457 -0.1438
  634loPI   C4A10138  10.631   1.011   8.095 -0.0347 -0.1904  0.3650
  634loPI   C5A10139  10.753   0.918   7.552 -0.0454 -0.0063 -0.0058
  634loPI   C6A10140  10.995   0.755   7.255  0.2483 -0.0794  0.0998
  634loPI   C1B10141  10.180   1.399   9.000 -0.0603 -0.1851  0.0642
  634loPI   C2B10142  10.089   1.420   8.564  0.2254  0.1143 -0.2121
  634loPI   C3B10143  10.096   1.366   8.113 -0.0083 -0.1170 -0.1303
  634loPI   C4B10144  10.367   1.426   7.850 -0.0700  0.0313 -0.0918
  635loPI    C110145  14.129   3.340  10.485  0.0116  0.2348 -0.1503
  635loPI    C210146  14.361   3.615  10.659 -0.0767  0.1371  0.1263
  635loPI    C310147  13.964   3.626  10.710 -0.0833 -0.0214  0.1112
  635loPI   PO410148  14.237   3.298  10.179 -0.3701 -0.0579 -0.0488
  635loPI   GL110149  14.118   3.332   9.693 -0.1841  0.0767 -0.4100
  635loPI   GL210150  14.104   3.668   9.673 -0.1116  0.1755  0.3164
  635loPI   C1A10151  13.960   3.233   9.232  0.0490  0.2974 -0.0560
  635loPI   C2A10152  14.024   3.010   8.808 -0.0375 -0.2708 -0.0406
  635loPI   C3A10153  13.944   2.910   8.368  0.1866  0.0636  0.0681
  635loPI   C4A10154  13.920   3.091   7.888 -0.0511 -0.0471  0.0160
  635loPI   C5A10155  13.619   3.464   7.662 -0.1917  0.2947 -0.1447
  635loPI   C6A10156  13.204   3.465   7.406  0.2023  0.0118 -0.0720
  635loPI   C1B10157  14.137   3.702   9.239 -0.0745  0.1289  0.1197
  635loPI   C2B10158  14.140   3.713   8.797 -0.1683 -0.0889 -0.0374
  635loPI   C3B10159  14.323   3.617   8.441  0.0889 -0.1730  0.0158
  635loPI   C4B10160  14.635   3.620   8.191 -0.2586  0.1327  0.1573
  636loPI    C110161   9.305   6.730   9.460 -0.0196 -0.0203 -0.1000
  636loPI    C210162   9.526   7.004   9.649  0.0839 -0.0883 -0.1216
  636loPI    C310163   9.553   6.619   9.754 -0.0059 -0.1001 -0.1413
  636loPI   PO410164   9.221   6.860   9.236 -0.0152  0.1524 -0.1384
  636loPI   GL110165   9.439   6.875   8.980 -0.1901 -0.3096 -0.2884
  636loPI   GL210166   9.558   6.631   8.852  0.0582  0.1200 -0.0297
  636loPI   C1A10167   9.337   6.986   8.550  0.0316  0.0231 -0.1171
  636loPI   C2A10168   9.283   6.945   8.066  0.4941  0.0559  0.1387
  636loPI   C3A10169   9.220   6.851   7.605 -0.0755  0.2065  0.2376
  636loPI   C4A10170   9.365   6.959   7.245 -0.0600  0.0714  0.0204
  636loPI   C5A10171   9.494   6.841   6.782 -0.4116  0.4866  0.0258
  636loPI   C6A10172   9.478   6.760   6.383 -0.0489 -0.0019 -0.0048
  636loPI   C1B10173   9.688   6.627   8.412  0.0372 -0.1273 -0.1179
  636loPI   C2B10174   9.590   6.588   7.936  0.0991 -0.4247  0.5386
  636loPI   C3B10175   9.611   6.476   7.523  0.1557 -0.1394  0.0549
  636loPI   C4B10176   9.577   6.407   7.140 -0.4067 -0.0460  0.1286
  637loPI    C110177   2.544  17.698   9.935 -0.0766  0.0058  0.2323
  637loPI    C210178   2.374  17.582  10.278  0.1090  0.1824  0.3871
  637loPI    C310179   2.454  17.969  10.215  0.0794  0.1511  0.1443
  637loPI   PO410180   2.366  17.578   9.681  0.0328  0.2523  0.1599
  637loPI   GL110181   2.040  17.666   9.517 -0.0205 -0.0705 -0.1135
  637loPI   GL210182   2.276  17.748   9.225  0.0455 -0.1486 -0.3185
  637loPI   C1A10183   1.961  17.370   9.085  0.0673 -0.3207  0.1400
  637loPI   C2A10184   1.994  17.323   8.602 -0.0632 -0.1001 -0.0423
  637loPI   C3A10185   1.860  17.163   8.215 -0.1129 -0.2189 -0.0787
  637loPI   C4A10186   1.756  17.087   7.899  0.1192 -0.2917  0.3529
  637loPI   C5A10187   1.649  17.075   7.406  0.0033  0.1107 -0.1138
  637loPI   C6A10188   1.403  17.168   7.060 -0.1471 -0.1698  0.1882
  637loPI   C1B10189   2.100  17.804   8.811 -0.0668 -0.1525  0.1626
  637loPI   C2B10190   2.038  17.800   8.388  0.0750 -0.3054  0.1245
  637loPI   C3B10191   2.005  17.594   8.009 -0.1298  0.0700  0.1079
  637loPI   C4B10192   2.069  17.397   7.588  0.0118 -0.0864 -0.1890
  638loPI    C110193   9.430   4.952   9.516 -0.1447 -0.0399 -0.0640
  638loPI    C210194   9.475   4.559   9.457  0.1911 -0.0133 -0.0092
  638loPI    C310195   9.527   4.713   9.822 -0.0220  0.0731 -0.0136
  638loPI   PO410196   9.328   4.998   9.266  0.3860 -0.1871  0.0506
  638loPI   GL110197   9.049   5.196   8.999  0.0305  0.0684 -0.0792
  638loPI   GL210198   9.050   5.537   9.006 -0.0019 -0.0584  0.0297
  638loPI   C1A10199   8.772   5.366   8.625  0.0159  0.1347 -0.2833
  638loPI   C2A10200   8.793   5.393   8.170 -0.2280 -0.0440  0.0290
  638loPI   C3A10201   8.994   5.447   7.843 -0.0541  0.2867  0.0455
  638loPI   C4A10202   9.146   5.279   7.537  0.2952  0.0416 -0.0859
  638loPI   C5A10203   9.281   5.467   7.212 -0.0026 -0.2443  0.0080
  638loPI   C6A10204   9.291   5.620   6.836 -0.1918 -0.0421  0.2465
  638loPI   C1B10205   9.170   5.625   8.638  0.1861  0.0635 -0.0349
  638loPI   C2B10206   9.370   5.585   8.299  0.2824 -0.2547  0.6346
  638loPI   C3B10207   9.483   5.278   7.946 -0.0408 -0.0015  0.0669
  638loPI   C4B10208   9.573   5.492   7.644 -0.5096  0.0446  0.3596
  639loPI    C110209  12.201   6.447   9.608  0.3506 -0.0287 -0.0534
  639loPI    C210210  11.991   6.558   9.930  0.0072 -0.0303 -0.2713
  639loPI    C310211  12.082   6.172   9.873  0.1732 -0.0149 -0.1170
  639loPI   PO410212  12.200   6.691   9.479 -0.2089 -0.1947 -0.0114
  639loPI   GL110213  12.133   6.727   9.144  0.2191  0.0957  0.0514
  639loPI   GL210214  11.973   6.983   9.099  0.0527 -0.1845  0.0586
  639loPI   C1A10215  12.374   6.650   8.757 -0.1899 -0.0330 -0.1408
  639loPI   C2A10216  12.254   6.368   8.451  0.2434 -0.3434 -0.2660
  639loPI   C3A10217  12.038   6.305   8.066 -0.1872 -0.1538  0.4734
  639loPI   C4A10218  11.964   5.960   7.712 -0.0932  0.1783  0.1179
  639loPI   C5A10219  11.861   5.793   7.246  0.2630  0.0713  0.1174
  639loPI   C6A10220  11.721   5.447   7.073  0.1779 -0.2699 -0.0813
  639loPI   C1B10221  11.956   6.982   8.693  0.2475 -0.2213  0.0345
  639loPI   C2B10222  12.001   6.818   8.253 -0.0398  0.1508  0.3858
  639loPI   C3B10223  12.085   6.754   7.840 -0.0099  0.3083  0.1720
  639loPI   C4B10224  12.078   6.400   7.464 -0.0403  0.0314  0.2729
  640loPI    C110225  19.081  10.549   9.938 -0.2274  0.0357  0.0596
  640loPI    C210226  18.950  10.874  10.132 -0.0900  0.1011  0.0432
  640loPI    C310227  18.970  10.522  10.322  0.0401  0.1642  0.1482
  640loPI   PO410228  18.901  10.691   9.649 -0.0787  0.0698 -0.1064
  640loPI   GL110229  19.082  10.751   9.218 -0.3130  0.0900  0.2345
  640loPI   GL210230  18.720  10.591   9.210  0.2246  0.1442 -0.2533
  640loPI   C1A10231  19.101  10.646   8.823 -0.2201  0.1038  0.0750
  640loPI   C2A10232  19.160  10.600   8.302  0.0649 -0.0180 -0.0318
  640loPI   C3A10233  19.204  10.480   7.879  0.0668 -0.1279  0.3240
  640loPI   C4A10234  19.194  10.275   7.470  0.0541  0.1623  0.1703
  640loPI   C5A10235  19.365   9.996   7.290  0.4959 -0.1656  0.0273
  640loPI   C6A10236  19.352   9.621   7.181  0.0311  0.0817 -0.0620
  640loPI   C1B10237  18.577  10.612   8.822  0.0677  0.2907 -0.0933
  640loPI   C2B10238  18.392  10.362   8.419 -0.0394 -0.1946  0.0313
  640loPI   C3B10239  18.482   9.888   8.274  0.0352 -0.0645  0.0003
  640loPI   C4B10240  18.711   9.741   7.948 -0.1642 -0.1689 -0.2419
  641loPI    C110241   8.111   8.795   9.646  0.1265  0.2901 -0.0216
  641loPI    C210242   7.805   8.981   9.823  0.0268  0.0237  0.0920
  641loPI    C310243   8.040   8.735  10.035  0.0293 -0.1416 -0.1001
  641loPI   PO410244   8.197   8.952   9.495 -0.1693 -0.0381 -0.0052
  641loPI   GL110245   8.390   8.924   8.989  0.0913  0.2318  0.0409
  641loPI   GL210246   8.059   9.092   8.979  0.2828  0.0677  0.2105
  641loPI   C1A10247   8.274   8.977   8.565 -0.1758  0.4601  0.0487
  641loPI   C2A10248   8.526   8.830   8.139  0.1655  0.0037 -0.2876
  641loPI   C3A10249   8.431   8.504   7.857  0.0248 -0.0544  0.0168
  641loPI   C4A10250   8.324   8.595   7.473 -0.1206 -0.1144 -0.0873
  641loPI   C5A10251   8.361   8.731   7.076  0.1244 -0.0040  0.1125
  641loPI   C6A10252   8.416   8.862   6.631 -0.0026 -0.0851  0.1360
  641loPI   C1B10253   7.883   9.261   8.583 -0.1725  0.1109  0.0751
  641loPI   C2B10254   7.848   9.155   8.265  0.0574 -0.0328  0.0301
  641loPI   C3B10255   7.541   8.910   8.005 -0.0786  0.1120  0.0943
  641loPI   C4B10256   7.112   8.750   7.851 -0.1642  0.2022 -0.0462
  642loPI    C110257  15.492   0.275  10.615  0.0058 -0.2623 -0.0322
  642loPI    C210258  15.882   0.245  10.699  0.0098 -0.1551 -0.0111
  642loPI    C310259  15.658   0.519  10.885 -0.0886 -0.2563  0.0209
  642loPI   PO410260  15.432   0.276  10.317 -0.1313  0.2224 -0.0263
  642loPI   GL110261  15.422  -0.103   9.991 -0.2455 -0.1381  0.0547
  642loPI   GL210262  15.709   0.044   9.814 -0.0836  0.3005  0.0714
  642loPI   C1A10263  15.066  -0.157   9.613 -0.4348  0.1197  0.0258
  642loPI   C2A10264  15.082   0.213   9.182  0.3454 -0.1480 -0.1733
  642loPI   C3A10265  15.242   0.384   8.840 -0.1167  0.1509 -0.1021
  642loPI   C4A10266  15.084   0.640   8.494 -0.0086 -0.0891 -0.0075
  642loPI   C5A10267  14.975   0.566   8.096 -0.0333  0.0128  0.1077
  642loPI   C6A10268  14.967   0.715   7.695  0.3995 -0.1464  0.0517
  642loPI   C1B10269  15.500   0.005   9.495  0.0908  0.0510  0.4065
  642loPI   C2B10270  15.396  -0.232   9.177 -0.2773 -0.0269 -0.0982
  642loPI   C3B10271  15.259  -0.068   8.789  0.0964 -0.1529  0.0379
  642loPI   C4B10272  15.161   0.183   8.319  0.0971 -0.1904 -0.1850
  643loPI    C110273   4.209   1.812  10.155  0.1709  0.3161  0.0147
  643loPI    C210274   4.350   2.074  10.423 -0.1964  0.4444  0.0892
  643loPI    C310275   3.977   1.933  10.458 -0.0527  0.0174 -0.0318
  643loPI   PO410276   4.193   1.929   9.947 -0.1497  0.0563 -0.0765
  643loPI   GL110277   4.152   2.169   9.560 -0.0497 -0.2735  0.0329
  643loPI   GL210278   4.003   2.344   9.398  0.6088 -0.2589  0.0228
  643loPI   C1A10279   4.213   1.905   9.240 -0.0041 -0.1637 -0.1159
  643loPI   C2A10280   4.233   1.961   8.803  0.0164  0.0427 -0.3750
  643loPI   C3A10281   4.199   1.825   8.375  0.0917  0.2745 -0.1855
  643loPI   C4A10282   4.297   1.800   7.926 -0.0602 -0.2592  0.0665
  643loPI   C5A10283   4.236   1.607   7.585  0.0825 -0.1174 -0.0758
  643loPI   C6A10284   4.403   1.240   7.450 -0.0659 -0.0428  0.0192
  643loPI   C1B10285   4.066   2.472   8.954 -0.1730  0.0910  0.1434
  643loPI   C2B10286   4.097   2.432   8.536  0.1697  0.4000 -0.1290
  643loPI   C3B10287   3.971   2.293   8.140 -0.1630 -0.1415  0.2891
  643loPI   C4B10288   3.977   2.111   7.778 -0.3891  0.1951 -0.2050
  644loPI    C110289  12.522  17.609  10.871  0.0689  0.1960 -0.0824
  644loPI    C210290  12.855  17.676  11.082  0.1364 -0.2793 -0.0257
  644loPI    C310291  12.547  17.484  11.251 -0.1467  0.0987 -0.0984
  644loPI   PO410292  12.639  17.469  10.606  0.2510  0.0391  0.0966
  644loPI   GL110293  12.992  17.350  10.279 -0.1095 -0.1024 -0.5435
  644loPI   GL210294  13.191  17.640  10.194  0.1119 -0.0464  0.0284
  644loPI   C1A10295  13.099  17.334   9.882  0.1800 -0.0406  0.0175
  644loPI   C2A10296  13.093  17.404   9.424  0.0895 -0.1482  0.1696
  644loPI   C3A10297  12.990  17.601   9.000 -0.0062  0.1613  0.3354
  644loPI   C4A10298  12.697  17.439   8.785 -0.2192 -0.2003  0.3600
  644loPI   C5A10299  12.375  17.171   8.612  0.2018  0.2691 -0.1397
  644loPI   C6A10300  12.004  17.157   8.632 -0.2441  0.2453 -0.2743
  644loPI   C1B10301  13.045  18.019   9.918 -0.2066  0.0541  0.1027
  644loPI   C2B10302  13.194  18.246   9.606  0.1538  0.1392 -0.0674
  644loPI   C3B10303  13.381  18.272   9.240 -0.1702 -0.2496  0.1009
  644loPI   C4B10304  13.315  18.441   8.826  0.1330  0.4681  0.1679
  645loPI    C110305   5.725  17.027   9.698 -0.1512  0.2229  0.2356
  645loPI    C210306   5.515  16.778   9.930 -0.0583 -0.0290  0.0532
  645loPI    C310307   5.892  16.689   9.830 -0.0775  0.1057 -0.1455
  645loPI   PO410308   5.571  17.021   9.484  0.1010 -0.2392  0.2106
  645loPI   GL110309   5.729  16.990   9.017  0.0912 -0.1053 -0.2836
  645loPI   GL210310   5.984  16.771   8.854 -0.2114  0.0687  0.0406
  645loPI   C1A10311   5.680  17.061   8.593  0.1086 -0.0741 -0.3006
  645loPI   C2A10312   5.784  16.977   8.174  0.0470 -0.1690 -0.2067
  645loPI   C3A10313   5.970  17.040   7.793 -0.0761 -0.1756  0.2691
  645loPI   C4A10314   5.916  17.052   7.445 -0.2635  0.0419 -0.2329
  645loPI   C5A10315   5.795  16.712   7.162 -0.1462 -0.0748  0.3358
  645loPI   C6A10316   5.732  16.267   7.064  0.0141  0.2566  0.1384
  645loPI   C1B10317   6.120  16.726   8.400 -0.0372  0.1414  0.0319
  645loPI   C2B10318   6.115  16.624   7.932 -0.2035  0.0395 -0.1077
  645loPI   C3B10319   6.324  16.628   7.476 -0.1370 -0.1145  0.1669
  645loPI   C4B10320   6.188  16.341   7.221  0.1084 -0.0198 -0.1710
  646loPI    C110321   0.142  15.611   9.796 -0.0407 -0.1602 -0.0659
  646loPI    C210322   0.393  15.725  10.085 -0.0848 -0.0388 -0.0751
  646loPI    C310323   0.167  15.399  10.134 -0.1387  0.0171  0.0540
  646loPI   PO410324   0.222  15.566   9.523  0.2542  0.1938 -0.1711
  646loPI   GL110325   0.280  15.824   9.113  0.3493 -0.0413  0.2448
  646loPI   GL210326  -0.026  15.735   9.100 -0.0666 -0.2695  0.0662
  646loPI   C1A10327   0.178  15.699   8.684 -0.3819 -0.1271  0.0846
  646loPI   C2A10328   0.111  15.578   8.271  0.1971  0.0433  0.3971
  646loPI   C3A10329   0.110  15.626   7.866 -0.0875  0.2508 -0.2954
  646loPI   C4A10330  -0.166  15.975   7.606 -0.0378  0.0101  0.1300
  646loPI   C5A10331   0.020  16.242   7.338  0.0529 -0.1285  0.0193
  646loPI   C6A10332   0.139  16.388   7.038 -0.0083 -0.1934 -0.1875
  646loPI   C1B10333  -0.090  16.111   8.844  0.0352 -0.3122  0.3063
  646loPI   C2B10334  -0.165  16.085   8.457 -0.0280  0.1734  0.1805
  646loPI   C3B10335  -0.449  16.032   8.014  0.0061 -0.1712  0.2582
  646loPI   C4B10336  -0.784  16.180   7.704 -0.2456 -0.0994 -0.0154
  647loPI    C110337   5.750  10.637   9.902 -0.1589  0.2803  0.0765
  647loPI    C210338   5.642  10.953  10.121  0.0540  0.2382  0.2466
  647loPI    C310339   6.028  10.852  10.094 -0.0210 -0.0638  0.2725
  647loPI   PO410340   5.686  10.647   9.697 -0.1174 -0.1876 -0.0393
  647loPI   GL110341   5.378  10.586   9.388  0.0134  0.0637  0.2216
  647loPI   GL210342   5.128  10.632   9.181 -0.1895  0.1808  0.1252
  647loPI   C1A10343   5.584  10.654   8.983 -0.0566 -0.0934  0.1053
  647loPI   C2A10344   5.735  10.721   8.537  0.3663 -0.0130 -0.0849
  647loPI   C3A10345   5.805  10.851   8.130  0.3539  0.0537 -0.2605
  647loPI   C4A10346   5.840  10.738   7.689  0.1260  0.2245 -0.1507
  647loPI   C5A10347   5.910  10.938   7.466 -0.0233  0.2626 -0.1642
  647loPI   C6A10348   5.759  10.981   7.120 -0.2821  0.4882  0.1738
  647loPI   C1B10349   5.169  10.830   8.720 -0.2238 -0.0743  0.2263
  647loPI   C2B10350   5.074  10.794   8.317  0.0657 -0.0702 -0.1515
  647loPI   C3B10351   4.895  10.979   7.931 -0.1150  0.2125 -0.1406
  647loPI   C4B10352   4.685  11.000   7.576  0.0427  0.0471 -0.0506
  648loPI    C110353  16.992   4.605   9.819  0.1174  0.0763  0.0394
  648loPI    C210354  17.018   4.911  10.075 -0.3007 -0.0314  0.2188
  648loPI    C310355  16.831   4.574  10.183  0.0261 -0.2997 -0.0282
  648loPI   PO410356  16.920   4.618   9.683 -0.0716  0.0375  0.1089
  648loPI   GL110357  17.029   4.692   9.138 -0.1479 -0.0743  0.1707
  648loPI   GL210358  17.124   4.477   9.262  0.1472 -0.1392 -0.0397
  648loPI   C1A10359  16.725   4.604   8.932 -0.1315  0.0859 -0.2377
  648loPI   C2A10360  16.510   4.492   8.683  0.4435 -0.4250 -0.1116
  648loPI   C3A10361  16.383   4.484   8.305  0.3315 -0.1491 -0.0649
  648loPI   C4A10362  16.251   4.541   7.908  0.0954 -0.0108  0.3255
  648loPI   C5A10363  16.039   4.457   7.495 -0.1872  0.1730  0.0958
  648loPI   C6A10364  15.753   4.010   7.506  0.2824 -0.3288  0.1550
  648loPI   C1B10365  16.908   4.161   8.950 -0.2270  0.0370 -0.3842
  648loPI   C2B10366  16.905   3.790   8.658  0.1722  0.0392 -0.0889
  648loPI   C3B10367  16.592   3.548   8.446  0.2439 -0.1754  0.0143
  648loPI   C4B10368  16.192   3.521   8.358 -0.3525 -0.2610  0.4346
  649loPI    C110369   4.043   9.488   9.823 -0.1212  0.0419 -0.2052
  649loPI    C210370   3.838   9.783  10.000 -0.0117  0.0518 -0.0937
  649loPI    C310371   4.068   9.539  10.219  0.0467  0.0018 -0.2096
  649loPI   PO410372   4.164   9.646   9.618 -0.1221  0.0631  0.0413
  649loPI   GL110373   4.184   9.744   9.181 -0.1553  0.0114 -0.2749
  649loPI   GL210374   4.419   9.887   9.039 -0.3681 -0.0072  0.2794
  649loPI   C1A10375   4.465   9.405   9.010 -0.0027  0.3988 -0.2068
  649loPI   C2A10376   4.494   9.278   8.577 -0.0447 -0.0041  0.0294
  649loPI   C3A10377   4.407   9.128   8.264 -0.1944  0.4362  0.0580
  649loPI   C4A10378   4.057   9.160   7.963  0.2736 -0.0680  0.1700
  649loPI   C5A10379   4.033   9.034   7.576  0.0948  0.7169  0.0643
  649loPI   C6A10380   3.720   9.193   7.355  0.3644 -0.4738 -0.0954
  649loPI   C1B10381   4.186   9.759   8.658 -0.0414 -0.1382 -0.0346
  649loPI   C2B10382   4.172   9.587   8.318 -0.0232  0.1216 -0.2012
  649loPI   C3B10383   4.080   9.619   7.899  0.1466 -0.1453  0.0413
  649loPI   C4B10384   4.180   9.469   7.525 -0.1803  0.0163 -0.0912
  650loPI    C110385   6.370  14.362   9.615 -0.0387  0.0355  0.1156
  650loPI    C210386   6.253  14.532   9.957  0.1411  0.3344  0.0324
  650loPI    C310387   6.542  14.255   9.960  0.1091  0.3015  0.1275
  650loPI   PO410388   6.136  14.411   9.476  0.0304 -0.6199 -0.1658
  650loPI   GL110389   6.027  14.593   9.135  0.0395 -0.1802  0.4185
  650loPI   GL210390   5.726  14.557   8.963 -0.0440  0.3306  0.3454
  650loPI   C1A10391   6.177  14.717   8.693  0.0872  0.0561 -0.1122
  650loPI   C2A10392   6.118  14.636   8.283 -0.0129 -0.1253  0.2684
  650loPI   C3A10393   6.337  14.663   7.857  0.0457 -0.0551 -0.1847
  650loPI   C4A10394   6.511  14.679   7.397 -0.1003  0.3335 -0.0728
  650loPI   C5A10395   6.722  14.749   6.995  0.2188 -0.2919  0.2507
  650loPI   C6A10396   7.011  14.789   6.650  0.1601 -0.2308 -0.2663
  650loPI   C1B10397   5.734  14.490   8.467 -0.0061 -0.1504 -0.1685
  650loPI   C2B10398   5.581  14.431   8.157 -0.1284 -0.0297 -0.2362
  650loPI   C3B10399   5.285  14.492   7.881 -0.0172 -0.1767  0.1099
  650loPI   C4B10400   4.992  14.714   8.015 -0.2077 -0.1010  0.1592
  651loPI    C110401  14.999  10.812   9.949  0.0084  0.0048  0.0576
  651loPI    C210402  14.826  11.169  10.001  0.2478  0.0986  0.2319
  651loPI    C310403  14.689  10.849  10.199  0.1936  0.1455  0.2703
  651loPI   PO410404  15.305  10.823   9.803  0.1465 -0.1739 -0.1130
  651loPI   GL110405  15.246  10.842   9.315  0.1759  0.0010 -0.1148
  651loPI   GL210406  15.451  10.519   9.237  0.2426  0.1462  0.0035
  651loPI   C1A10407  15.405  11.116   9.060 -0.2523  0.1948 -0.1911
  651loPI   C2A10408  15.577  11.236   8.741  0.0612  0.2471  0.1080
  651loPI   C3A10409  15.458  11.386   8.341  0.2344 -0.1629  0.0579
  651loPI   C4A10410  15.502  11.504   8.010  0.1661  0.0015  0.2431
  651loPI   C5A10411  15.436  11.645   7.686 -0.0587 -0.1722  0.0763
  651loPI   C6A10412  15.334  12.107   7.625 -0.1131  0.0909  0.2091
  651loPI   C1B10413  15.341  10.734   8.776  0.0700  0.1038 -0.0896
  651loPI   C2B10414  15.206  10.949   8.305  0.2672 -0.0254  0.0375
  651loPI   C3B10415  15.135  11.025   7.801  0.1005  0.1994  0.4294
  651loPI   C4B10416  15.270  10.857   7.392 -0.1735 -0.1051 -0.2153
  652loPI    C110417   4.937  17.621  10.007 -0.3586  0.1945  0.2119
  652loPI    C210418   5.083  17.275  10.145  0.1023  0.2576 -0.0973
  652loPI    C310419   4.874  17.515  10.388 -0.0915 -0.1616  0.1614
  652loPI   PO410420   4.875  17.572   9.726 -0.1397  0.2536  0.0390
  652loPI   GL110421   4.642  17.576   9.399 -0.0158 -0.0748  0.2042
  652loPI   GL210422   4.691  17.202   9.294 -0.3974  0.1198  0.1102
  652loPI   C1A10423   4.710  17.501   8.889  0.2391 -0.1865  0.1348
  652loPI   C2A10424   4.642  17.437   8.451 -0.0838  0.0593 -0.0767
  652loPI   C3A10425   4.853  17.509   8.106 -0.0841  0.3433 -0.1032
  652loPI   C4A10426   5.108  17.758   7.744  0.1143 -0.0026  0.2506
  652loPI   C5A10427   5.419  17.964   7.483 -0.0432  0.2599 -0.1609
  652loPI   C6A10428   5.449  18.264   7.231  0.2334  0.0378  0.1283
  652loPI   C1B10429   4.400  17.059   8.888 -0.4008 -0.1370  0.3333
  652loPI   C2B10430   4.202  16.994   8.455  0.2155  0.1018  0.0042
  652loPI   C3B10431   4.012  17.005   8.015  0.1213  0.2555  0.0145
  652loPI   C4B10432   4.083  17.191   7.555 -0.0232  0.1325  0.2624
  653loPI    C110433   8.327   2.208   9.349 -0.0339  0.0625 -0.0440
  653loPI    C210434   8.322   2.204   9.749 -0.1967  0.0102 -0.0461
  653loPI    C310435   8.558   2.461   9.555  0.1247 -0.1812  0.0832
  653loPI   PO410436   8.005   2.172   9.298 -0.1116  0.0785  0.0263
  653loPI   GL110437   7.672   2.400   8.917  0.0392  0.2164  0.0495
  653loPI   GL210438   7.872   2.357   8.907 -0.4136  0.0068 -0.0096
  653loPI   C1A10439   7.512   2.382   8.463 -0.0141  0.1409 -0.0857
  653loPI   C2A10440   7.408   2.339   7.972  0.2171  0.0689 -0.1233
  653loPI   C3A10441   7.212   2.263   7.560 -0.1370 -0.4184 -0.2980
  653loPI   C4A10442   7.088   1.955   7.256 -0.2693 -0.3648 -0.0322
  653loPI   C5A10443   7.323   1.716   7.065 -0.2149  0.0001 -0.1002
  653loPI   C6A10444   7.125   1.357   6.871  0.1621  0.1545  0.0894
  653loPI   C1B10445   8.079   2.148   8.501  0.2744  0.1597 -0.3345
  653loPI   C2B10446   8.231   1.927   8.120 -0.0847 -0.2213  0.2035
  653loPI   C3B10447   8.051   1.694   7.750  0.0202  0.1336 -0.3525
  653loPI   C4B10448   7.797   1.656   7.315 -0.1516  0.2666  0.0150
  654loPI    C110449  10.632  12.642   9.882 -0.1560  0.2995 -0.1511
  654loPI    C210450  10.651  12.773  10.260 -0.1016  0.0801 -0.0760
  654loPI    C310451  10.539  12.397  10.184 -0.1573  0.1367 -0.2824
  654loPI   PO410452  10.845  12.820   9.761 -0.0976  0.1359  0.0811
  654loPI   GL110453  11.085  12.886   9.350  0.0894  0.0620 -0.1225
  654loPI   GL210454  10.921  13.065   9.209 -0.1755  0.0375  0.3034
  654loPI   C1A10455  11.142  12.679   8.911  0.1605  0.1805 -0.1827
  654loPI   C2A10456  11.131  12.747   8.469  0.2166 -0.2944  0.0830
  654loPI   C3A10457  11.194  12.676   8.103 -0.1312  0.1291 -0.1663
  654loPI   C4A10458  11.019  12.889   7.740 -0.0492 -0.1502  0.1821
  654loPI   C5A10459  11.183  13.285   7.440 -0.3307  0.1980 -0.0152
  654loPI   C6A10460  11.336  13.377   7.767  0.3318 -0.2413 -0.0107
  654loPI   C1B10461  10.917  13.248   8.889 -0.0491 -0.1983  0.0740
  654loPI   C2B10462  10.990  13.316   8.439 -0.1893  0.0282 -0.0539
  654loPI   C3B10463  10.789  13.149   8.058  0.1296  0.0031  0.0163
  654loPI   C4B10464  10.532  12.834   7.993 -0.1942 -0.1109  0.1119
  655loPI    C110465   1.153   8.742   9.946  0.0781 -0.2049 -0.0147
  655loPI    C210466   0.852   8.629  10.184  0.1174 -0.1046  0.0833
  655loPI    C310467   1.151   8.849  10.332  0.2281 -0.1856 -0.0189
  655loPI   PO410468   1.153   8.836   9.695 -0.0070  0.1334  0.0347
  655loPI   GL110469   1.050   9.182   9.317 -0.2734  0.2581 -0.1374
  655loPI   GL210470   1.093   9.424   9.173  0.1939  0.0948 -0.3236
  655loPI   C1A10471   1.005   8.902   8.973 -0.1241 -0.3710  0.0741
  655loPI   C2A10472   1.141   8.723   8.706 -0.0939  0.1463  0.1264
  655loPI   C3A10473   1.153   8.486   8.356  0.0875  0.3816 -0.1531
  655loPI   C4A10474   1.293   8.346   8.033 -0.1802 -0.0009  0.2529
  655loPI   C5A10475   1.483   8.049   7.759  0.1820 -0.0105 -0.0486
  655loPI   C6A10476   1.585   8.028   7.265  0.0397  0.1362 -0.1982
  655loPI   C1B10477   1.271   9.420   8.848  0.0287 -0.0498  0.0371
  655loPI   C2B10478   1.527   9.423   8.448 -0.3115 -0.0559  0.0305
  655loPI   C3B10479   1.695   9.728   8.203 -0.0158 -0.2796 -0.2689
  655loPI   C4B10480   1.944   9.732   7.877 -0.0163 -0.0398  0.0035
  656loPI    C110481   2.839  10.679   9.525  0.1040  0.0208  0.2313
  656loPI    C210482   2.817  11.073   9.588 -0.0384  0.0236  0.1685
  656loPI    C310483   3.163  10.880   9.645  0.0370  0.1605  0.1802
  656loPI   PO410484   2.646  10.507   9.640  0.1719  0.1100  0.1831
  656loPI   GL110485   2.287  10.595   9.361 -0.1995 -0.1943 -0.1023
  656loPI   GL210486   2.443  10.874   9.239 -0.0735 -0.2846 -0.0554
  656loPI   C1A10487   2.215  10.504   8.882  0.3047 -0.0177  0.0247
  656loPI   C2A10488   2.180  10.590   8.448 -0.0744 -0.3137  0.2481
  656loPI   C3A10489   1.980  10.676   8.091 -0.0572  0.1924  0.0827
  656loPI   C4A10490   1.887  10.727   7.642  0.1678 -0.0101 -0.0107
  656loPI   C5A10491   2.158  10.365   7.383  0.0627  0.2534 -0.1701
  656loPI   C6A10492   2.288   9.979   7.462 -0.0546  0.3479 -0.3149
  656loPI   C1B10493   2.691  10.721   8.958 -0.0009  0.0876 -0.2334
  656loPI   C2B10494   2.709  10.714   8.641  0.1781  0.0549  0.1185
  656loPI   C3B10495   3.083  10.874   8.400 -0.1443  0.2135  0.0212
  656loPI   C4B10496   3.135  10.797   7.965  0.0411 -0.1060  0.2558
  657loPI    C110497  18.058  17.082  10.492 -0.0454 -0.2080 -0.1621
  657loPI    C210498  17.685  17.184  10.591  0.0545 -0.2321  0.2587
  657loPI    C310499  17.780  16.799  10.540 -0.0046 -0.2175  0.0259
  657loPI   PO410500  18.035  17.281  10.237 -0.2595  0.0484 -0.2831
  657loPI   GL110501  17.804  17.130   9.918  0.1422  0.1754  0.1496
  657loPI   GL210502  17.509  16.985   9.757 -0.0030 -0.2161  0.1126
  657loPI   C1A10503  18.052  17.178   9.533  0.1775 -0.3558  0.1792
  657loPI   C2A10504  17.995  17.099   9.069 -0.1073  0.2654  0.0978
  657loPI   C3A10505  17.980  16.969   8.673 -0.2598 -0.1056 -0.1790
  657loPI   C4A10506  17.885  16.899   8.129  0.1823  0.0500 -0.0982
  657loPI   C5A10507  17.891  16.935   7.789  0.0013  0.0394  0.0702
  657loPI   C6A10508  17.777  16.703   7.451  0.1591 -0.2070 -0.4042
  657loPI   C1B10509  17.815  16.750   9.547  0.0551  0.0271  0.0107
  657loPI   C2B10510  17.878  16.612   9.215 -0.1924  0.1373  0.3713
  657loPI   C3B10511  17.841  16.529   8.840  0.0218  0.0072 -0.1278
  657loPI   C4B10512  17.763  16.500   8.416  0.0075 -0.0763  0.0320
  658loPI    C110513   0.272  18.297  10.505  0.0107 -0.0583  0.1903
  658loPI    C210514   0.225  18.520  10.834 -0.2725 -0.0732  0.1630
  658loPI    C310515   0.367  18.147  10.863 -0.1143 -0.0074  0.2455
  658loPI   PO410516   0.055  18.466  10.307  0.2679  0.1697 -0.2745
  658loPI   GL110517  -0.040  18.357   9.856 -0.1903 -0.2133 -0.0191
  658loPI   GL210518  -0.194  17.968   9.743 -0.2160  0.0030  0.2467
  658loPI   C1A10519  -0.072  18.469   9.450  0.0917  0.3583  0.0095
  658loPI   C2A10520  -0.089  18.477   8.930 -0.3045 -0.0966 -0.0823
  658loPI   C3A10521  -0.295  18.484   8.475 -0.0541 -0.0900  0.3509
  658loPI   C4A10522  -0.241  18.492   7.994  0.0458 -0.0487 -0.1060
  658loPI   C5A10523  -0.322  18.671   7.700 -0.0194 -0.0279  0.1130
  658loPI   C6A10524  -0.251  18.720   7.296  0.2289  0.1631 -0.3635
  658loPI   C1B10525  -0.220  17.944   9.318  0.0873 -0.0994  0.2780
  658loPI   C2B10526  -0.235  17.953   8.803  0.0122 -0.1600 -0.1005
  658loPI   C3B10527  -0.377  17.942   8.352 -0.3073  0.2271 -0.1266
  658loPI   C4B10528  -0.516  17.997   7.930  0.0364  0.2667 -0.2953
  659loPI    C110529   2.522  12.135   9.741 -0.3444  0.2436 -0.0218
  659loPI    C210530   2.408  11.767   9.847  0.1881  0.0730 -0.0139
  659loPI    C310531   2.196  11.972   9.577 -0.1683 -0.1967  0.0539
  659loPI   PO410532   2.754  12.143   9.602  0.1103  0.0458  0.0864
  659loPI   GL110533   2.839  12.226   9.196  0.2124 -0.0600 -0.2816
  659loPI   GL210534   2.939  12.537   9.121  0.0315 -0.2950  0.1300
  659loPI   C1A10535   2.717  12.103   8.889  0.0295 -0.1436 -0.1411
  659loPI   C2A10536   2.718  12.032   8.396 -0.2050  0.2954  0.1798
  659loPI   C3A10537   2.448  12.258   8.056 -0.3278  0.0761 -0.2496
  659loPI   C4A10538   2.250  12.529   7.710  0.2558  0.2435 -0.1344
  659loPI   C5A10539   2.028  12.899   7.528 -0.4433  0.0803  0.1991
  659loPI   C6A10540   1.746  13.255   7.521  0.1174 -0.2317  0.0386
  659loPI   C1B10541   2.487  12.739   8.965  0.0741 -0.0101 -0.2450
  659loPI   C2B10542   2.263  13.039   8.601  0.1114  0.2255 -0.0314
  659loPI   C3B10543   2.205  13.266   8.248  0.1893 -0.0448  0.0168
  659loPI   C4B10544   1.946  13.106   7.932 -0.0508  0.1486 -0.4323
  660loPI    C110545  11.518   8.574   9.745 -0.0434  0.1076  0.2485
  660loPI    C210546  11.390   8.255   9.542  0.2515  0.1474 -0.0072
  660loPI    C310547  11.545   8.210   9.907 -0.2019  0.0655  0.1818
  660loPI   PO410548  11.671   8.679   9.721 -0.0710 -0.0692  0.0290
  660loPI   GL110549  11.730   8.829   9.381  0.1686  0.3609  0.0174
  660loPI   GL210550  12.061   8.886   9.319 -0.1702 -0.0369 -0.1173
  660loPI   C1A10551  11.490   8.694   9.049 -0.2235 -0.2710 -0.0320
  660loPI   C2A10552  11.460   8.658   8.599  0.0260  0.1604  0.1223
  660loPI   C3A10553  11.655   8.674   8.118  0.1211  0.0465 -0.1895
  660loPI   C4A10554  11.884   8.714   7.773 -0.0993  0.1249 -0.0553
  660loPI   C5A10555  11.878   8.684   7.406 -0.2317 -0.1505  0.3832
  660loPI   C6A10556  11.857   8.293   7.499 -0.0280 -0.0380  0.0818
  660loPI   C1B10557  12.115   9.077   8.940 -0.0398 -0.1475 -0.0634
  660loPI   C2B10558  11.845   9.013   8.707  0.3210 -0.1124 -0.0653
  660loPI   C3B10559  11.534   9.117   8.427  0.1723 -0.1814  0.1249
  660loPI   C4B10560  11.198   9.024   8.214 -0.1148 -0.1833 -0.0755
  661loPI    C110561   4.476  15.037   9.905 -0.2284  0.1393  0.2759
  661loPI    C210562   4.655  15.338  10.098  0.2664 -0.0348  0.1048
  661loPI    C310563   4.687  14.964  10.236 -0.1766 -0.0419  0.2042
  661loPI   PO410564   4.565  15.057   9.685 -0.0400 -0.0932  0.1747
  661loPI   GL110565   4.723  15.329   9.366  0.0199  0.2298 -0.0031
  661loPI   GL210566   4.406  15.246   9.119 -0.1713  0.1117  0.0473
  661loPI   C1A10567   4.834  15.475   8.915  0.2498 -0.1399  0.1193
  661loPI   C2A10568   4.904  15.560   8.452  0.2774  0.1666  0.2106
  661loPI   C3A10569   4.733  15.635   8.025 -0.3586 -0.1293  0.0625
  661loPI   C4A10570   4.424  15.832   7.882 -0.2173 -0.0927 -0.0402
  661loPI   C5A10571   4.311  16.151   7.679 -0.0595 -0.2297  0.1652
  661loPI   C6A10572   4.235  16.416   7.345 -0.0592 -0.0229 -0.4225
  661loPI   C1B10573   4.379  15.435   8.740  0.0995 -0.0990 -0.0380
  661loPI   C2B10574   4.378  15.663   8.392 -0.1029  0.1261 -0.0238
  661loPI   C3B10575   4.397  16.057   8.302 -0.3230  0.0295  0.0428
  661loPI   C4B10576   4.279  16.479   8.207  0.0237  0.2414  0.1227
  662loPI    C110577  18.027   2.986  10.208  0.0721 -0.0432 -0.0224
  662loPI    C210578  17.860   3.260  10.446  0.0045  0.0946 -0.2260
  662loPI    C310579  18.001   2.920  10.601  0.1133  0.2552  0.0326
  662loPI   PO410580  17.861   2.931   9.950 -0.2049 -0.3705  0.0593
  662loPI   GL110581  18.023   2.891   9.441  0.0286  0.0858 -0.3782
  662loPI   GL210582  17.949   2.627   9.579  0.0126  0.0128 -0.1143
  662loPI   C1A10583  17.815   2.759   9.041  0.1585  0.2179 -0.0930
  662loPI   C2A10584  17.772   2.512   8.669 -0.0657  0.0516  0.1276
  662loPI   C3A10585  17.508   2.484   8.301 -0.1617  0.3805 -0.1991
  662loPI   C4A10586  17.314   2.615   8.022 -0.0206  0.3175  0.1331
  662loPI   C5A10587  17.267   2.707   7.646 -0.2684 -0.0081  0.0213
  662loPI   C6A10588  17.051   2.556   7.297  0.1435 -0.2342 -0.3636
  662loPI   C1B10589  18.163   2.396   9.350 -0.3123  0.1338  0.2515
  662loPI   C2B10590  18.228   2.341   8.836 -0.0542 -0.5307  0.1254
  662loPI   C3B10591  18.526   2.271   8.498 -0.0647 -0.0787 -0.0279
  662loPI   C4B10592  18.491   2.291   8.047 -0.1131 -0.1104 -0.1010
  663loPI    C110593  14.022  14.306  10.297  0.0032  0.0756 -0.2788
  663loPI    C210594  14.123  13.985  10.513 -0.2092  0.1133 -0.1190
  663loPI    C310595  13.744  14.111  10.508 -0.1044  0.4409 -0.0738
  663loPI   PO410596  14.288  14.465  10.245  0.2083  0.2367  0.1679
  663loPI   GL110597  14.423  14.746   9.874 -0.1471 -0.0788  0.1111
  663loPI   GL210598  14.130  14.842   9.778  0.1957 -0.1135  0.1020
  663loPI   C1A10599  14.366  14.579   9.333  0.0147 -0.3292 -0.1637
  663loPI   C2A10600  14.407  14.578   8.857 -0.1967 -0.0607 -0.0733
  663loPI   C3A10601  14.509  14.412   8.514  0.1877  0.0932  0.3097
  663loPI   C4A10602  14.511  14.475   8.102 -0.0013  0.3005 -0.1723
  663loPI   C5A10603  14.845  14.388   7.756 -0.2713  0.0678 -0.0114
  663loPI   C6A10604  15.012  14.292   7.316  0.0453  0.1288  0.2063
  663loPI   C1B10605  13.959  14.892   9.386 -0.0823 -0.1229 -0.2049
  663loPI   C2B10606  13.763  15.009   8.917  0.3616 -0.1983 -0.2257
  663loPI   C3B10607  13.717  15.128   8.556 -0.0014 -0.0462 -0.3276
  663loPI   C4B10608  13.609  15.288   8.128  0.2697 -0.2013  0.0949
  664loPI    C110609   6.814  12.458   9.984 -0.0281 -0.1256 -0.0584
  664loPI    C210610   7.127  12.340  10.203 -0.1099 -0.0168  0.1204
  664loPI    C310611   6.884  12.626  10.340 -0.1701  0.0447 -0.1092
  664loPI   PO410612   6.859  12.504   9.762 -0.2923 -0.0699 -0.0008
  664loPI   GL110613   6.718  12.453   9.299  0.2197 -0.0879 -0.0118
  664loPI   GL210614   6.982  12.239   9.293  0.1314 -0.0592 -0.2143
  664loPI   C1A10615   6.509  12.323   8.895  0.0136 -0.3224 -0.2462
  664loPI   C2A10616   6.455  12.492   8.456 -0.1270  0.1415  0.0274
  664loPI   C3A10617   6.484  12.463   7.989  0.4546  0.1858  0.0623
  664loPI   C4A10618   6.648  12.468   7.607 -0.0966 -0.2974  0.1015
  664loPI   C5A10619   6.642  12.336   7.224  0.0463 -0.0780 -0.1240
  664loPI   C6A10620   6.653  12.039   6.878 -0.0782  0.2071 -0.2786
  664loPI   C1B10621   6.995  11.927   9.009 -0.3270 -0.1904  0.0939
  664loPI   C2B10622   6.971  11.734   8.607 -0.1204  0.0193  0.0731
  664loPI   C3B10623   7.339  11.661   8.163  0.0817  0.1022  0.1457
  664loPI   C4B10624   7.530  11.438   7.946  0.1451  0.0382  0.0461
  665loPI    C110625  11.287  16.076  10.511 -0.0072 -0.0766  0.0100
  665loPI    C210626  11.522  15.753  10.493 -0.0336 -0.1035  0.1354
  665loPI    C310627  11.142  15.718  10.614 -0.1514 -0.0856 -0.2179
  665loPI   PO410628  11.382  16.172  10.242  0.0313  0.0657 -0.0350
  665loPI   GL110629  11.361  16.105   9.859  0.3588  0.0755 -0.0095
  665loPI   GL210630  11.444  16.353   9.647  0.0003  0.1077  0.1398
  665loPI   C1A10631  11.301  15.937   9.387 -0.2088  0.3801 -0.1401
  665loPI   C2A10632  11.533  15.993   8.910  0.1816  0.1988  0.0615
  665loPI   C3A10633  11.654  16.203   8.551  0.1205 -0.0585 -0.0074
  665loPI   C4A10634  11.699  16.334   8.096  0.0856  0.0923  0.1018
  665loPI   C5A10635  11.801  16.639   7.768  0.0116 -0.0929 -0.0769
  665loPI   C6A10636  11.669  16.734   7.379 -0.0154  0.1187  0.0086
  665loPI   C1B10637  11.602  16.501   9.305 -0.2483  0.1367 -0.1977
  665loPI   C2B10638  11.621  16.570   8.882 -0.1500  0.2215 -0.4002
  665loPI   C3B10639  11.782  16.718   8.515  0.0245 -0.1016 -0.1949
  665loPI   C4B10640  12.163  16.920   8.251 -0.1286  0.3828  0.1605
  666loPI    C110641   6.091   0.895   9.929  0.0445 -0.0630 -0.0781
  666loPI    C210642   6.341   0.707   9.679  0.0544  0.1782 -0.2523
  666loPI    C310643   6.482   0.982   9.934  0.0564 -0.1221  0.0770
  666loPI   PO410644   5.918   0.959   9.846 -0.2420 -0.0657  0.1863
  666loPI   GL110645   5.833   1.052   9.375  0.1261 -0.1514 -0.1696
  666loPI   GL210646   6.135   1.111   9.327  0.0609 -0.3626 -0.0704
  666loPI   C1A10647   5.762   0.927   8.899  0.2437 -0.0253 -0.2210
  666loPI   C2A10648   5.790   0.910   8.550  0.0611 -0.0160  0.0306
  666loPI   C3A10649   5.764   0.812   8.138  0.1759  0.0556  0.1731
  666loPI   C4A10650   6.121   0.843   7.799 -0.0186  0.0092 -0.1146
  666loPI   C5A10651   6.472   0.569   7.713 -0.0286  0.2550 -0.1597
  666loPI   C6A10652   6.897   0.653   7.519  0.1185  0.0831  0.2212
  666loPI   C1B10653   6.314   1.065   8.930 -0.0589 -0.0942  0.0017
  666loPI   C2B10654   6.767   0.828   8.826  0.2023  0.0643  0.3119
  666loPI   C3B10655   6.962   0.887   8.339  0.0024  0.2551  0.1099
  666loPI   C4B10656   7.116   0.969   7.880  0.4142  0.2834 -0.1171
  667loPI    C110657  11.709   7.350   9.827 -0.0020  0.0475  0.4280
  667loPI    C210658  11.943   7.086   9.640 -0.1556  0.1717  0.0492
  667loPI    C310659  12.104   7.358   9.884  0.0496  0.0107  0.0965
  667loPI   PO410660  11.489   7.278   9.720 -0.0047  0.0026  0.3550
  667loPI   GL110661  11.381   7.324   9.246  0.2706 -0.0427 -0.0684
  667loPI   GL210662  11.182   7.188   9.002  0.2463  0.1306 -0.0745
  667loPI   C1A10663  11.648   7.328   8.841 -0.0661  0.0871 -0.2429
  667loPI   C2A10664  11.732   7.329   8.406 -0.2317 -0.0772 -0.1573
  667loPI   C3A10665  11.722   7.265   7.952 -0.3203  0.2062  0.3371
  667loPI   C4A10666  11.831   7.090   7.574  0.0143 -0.0581  0.0321
  667loPI   C5A10667  12.100   6.986   7.324 -0.0373 -0.1418 -0.0378
  667loPI   C6A10668  12.375   6.650   7.145  0.1823 -0.3507  0.1042
  667loPI   C1B10669  10.928   7.390   8.656 -0.1264 -0.1722 -0.0492
  667loPI   C2B10670  10.871   7.504   8.231  0.0154  0.0322  0.0428
  667loPI   C3B10671  10.625   7.408   7.917  0.1188  0.2282  0.0726
  667loPI   C4B10672  10.562   7.449   7.466  0.0177 -0.1538 -0.1081
  668loPI    C110673   4.686   7.522   9.924 -0.1026  0.1166 -0.0108
  668loPI    C210674   4.294   7.573   9.983 -0.1012  0.1214 -0.0056
  668loPI    C310675   4.545   7.580  10.294 -0.0594  0.4486 -0.0431
  668loPI   PO410676   4.765   7.718   9.760  0.1816 -0.2072  0.1891
  668loPI   GL110677   4.604   7.720   9.399  0.1163 -0.2119 -0.2141
  668loPI   GL210678   4.362   7.693   9.179  0.1556  0.2695 -0.0934
  668loPI   C1A10679   4.821   7.523   8.985 -0.3935 -0.1965 -0.3581
  668loPI   C2A10680   4.861   7.415   8.602  0.0223  0.0898  0.0362
  668loPI   C3A10681   4.895   7.341   8.191  0.2975  0.1294  0.0833
  668loPI   C4A10682   4.798   7.366   7.817  0.2893 -0.0318  0.1736
  668loPI   C5A10683   4.572   7.525   7.461 -0.3060 -0.0463 -0.0465
  668loPI   C6A10684   4.492   7.812   7.103 -0.0749  0.1116 -0.1392
  668loPI   C1B10685   4.479   7.877   8.697  0.1374  0.1107 -0.2609
  668loPI   C2B10686   4.296   8.010   8.295 -0.3572 -0.0385  0.0306
  668loPI   C3B10687   4.339   8.158   7.882  0.0198 -0.4028  0.3247
  668loPI   C4B10688   4.286   8.016   7.460  0.1103 -0.1976 -0.1418
  669loPI    C110689  15.286   0.904  10.205  0.0097  0.1541 -0.0309
  669loPI    C210690  15.162   0.643  10.482 -0.1745  0.3813  0.1051
  669loPI    C310691  15.544   0.764  10.477 -0.0316 -0.0557 -0.0981
  669loPI   PO410692  15.086   0.843   9.934  0.1923  0.0064 -0.2627
  669loPI   GL110693  15.183   0.825   9.558  0.2476 -0.1816 -0.1535
  669loPI   GL210694  15.225   1.118   9.408  0.0545 -0.2214 -0.3456
  669loPI   C1A10695  14.873   0.748   9.276 -0.0695 -0.1236 -0.0126
  669loPI   C2A10696  14.762   0.727   8.878 -0.2342  0.0174 -0.0519
  669loPI   C3A10697  14.611   0.408   8.513 -0.0961 -0.0219  0.0845
  669loPI   C4A10698  14.227   0.361   8.127 -0.5550  0.2746 -0.1341
  669loPI   C5A10699  13.754   0.368   7.987  0.0363 -0.1986 -0.2439
  669loPI   C6A10700  13.360   0.480   7.905 -0.1924 -0.1044  0.5863
  669loPI   C1B10701  15.171   0.987   8.944 -0.3769  0.1031  0.3004
  669loPI   C2B10702  15.152   1.168   8.455  0.2163 -0.0102 -0.1021
  669loPI   C3B10703  14.997   1.067   8.034 -0.2141  0.2609 -0.2734
  669loPI   C4B10704  15.231   1.155   7.640 -0.0111  0.0646  0.0579
  670loPI    C110705   5.980   0.391   9.814 -0.0720  0.0458 -0.0497
  670loPI    C210706   5.689   0.257  10.054  0.0585 -0.3310 -0.0949
  670loPI    C310707   5.956   0.520  10.192 -0.0985 -0.2457  0.0504
  670loPI   PO410708   5.885   0.230   9.620  0.0162  0.1524 -0.1363
  670loPI   GL110709   6.180   0.241   9.300 -0.2310 -0.2283  0.2214
  670loPI   GL210710   6.061   0.631   9.219 -0.1660 -0.3383 -0.1020
  670loPI   C1A10711   6.124   0.078   8.927 -0.0106  0.0006  0.0811
  670loPI   C2A10712   6.036  -0.002   8.488 -0.1204 -0.1666 -0.3730
  670loPI   C3A10713   5.602   0.037   8.279 -0.1527 -0.0140 -0.2345
  670loPI   C4A10714   5.369  -0.076   7.836  0.2083 -0.4166  0.0467
  670loPI   C5A10715   5.325   0.072   7.382  0.2586 -0.1915 -0.2276
  670loPI   C6A10716   5.591   0.409   7.093 -0.0112  0.2323 -0.1341
  670loPI   C1B10717   6.132   0.627   8.805 -0.2685 -0.1035 -0.0275
  670loPI   C2B10718   6.002   0.478   8.414 -0.1861 -0.2370 -0.3053
  670loPI   C3B10719   6.201   0.242   8.051  0.0466 -0.0435 -0.0928
  670loPI   C4B10720   6.272   0.070   7.647 -0.0536  0.0021 -0.0425
  671loPI    C110721  16.592  12.030   9.594  0.2026 -0.0502 -0.1004
  671loPI    C210722  16.289  12.036   9.856  0.2998 -0.1168  0.0148
  671loPI    C310723  16.332  12.333   9.591  0.1734 -0.0729  0.0431
  671loPI   PO410724  16.672  11.827   9.647 -0.1849 -0.4047 -0.1351
  671loPI   GL110725  16.684  11.620   9.284  0.1398 -0.0247 -0.1804
  671loPI   GL210726  16.321  11.629   9.260 -0.2509 -0.0553 -0.2178
  671loPI   C1A10727  17.007  11.304   9.102 -0.2020  0.2043  0.3307
  671loPI   C2A10728  17.299  11.370   8.750  0.1450  0.0664 -0.0524
  671loPI   C3A10729  17.505  11.264   8.340  0.2539 -0.3894 -0.1210
  671loPI   C4A10730  17.543  11.173   7.834 -0.0339  0.1726 -0.0143
  671loPI   C5A10731  17.433  11.285   7.367  0.5117  0.0777  0.3461
  671loPI   C6A10732  17.383  10.893   7.201  0.0319  0.0820 -0.0070
  671loPI   C1B10733  16.544  11.759   8.841  0.1879  0.3924 -0.2487
  671loPI   C2B10734  16.787  11.618   8.451 -0.1178 -0.0606  0.1524
  671loPI   C3B10735  17.159  11.560   8.322  0.1156 -0.2095  0.0935
  671loPI   C4B10736  17.521  11.636   8.040  0.0153  0.0939 -0.1553
  672loPI    C110737  13.933  16.115  10.598  0.2501 -0.1230 -0.2207
  672loPI    C210738  13.974  16.433  10.836 -0.1413 -0.1338 -0.1323
  672loPI    C310739  13.818  16.095  10.981  0.0305 -0.2840 -0.2935
  672loPI   PO410740  13.793  16.175  10.421 -0.0417 -0.0648 -0.0757
  672loPI   GL110741  13.773  16.115  10.052 -0.1238 -0.3012 -0.4362
  672loPI   GL210742  13.790  16.492  10.011 -0.2833 -0.4771  0.1037
  672loPI   C1A10743  13.552  16.103   9.624 -0.0254  0.3078  0.2228
  672loPI   C2A10744  13.547  16.367   9.301 -0.4720  0.3193 -0.0158
  672loPI   C3A10745  13.330  16.654   9.087  0.3349  0.2800  0.0546
  672loPI   C4A10746  13.370  16.889   8.654 -0.2100  0.1240 -0.1703
  672loPI   C5A10747  13.336  17.032   8.221 -0.0056 -0.0262 -0.1605
  672loPI   C6A10748  13.632  16.755   7.873 -0.0007 -0.1694 -0.1957
  672loPI   C1B10749  13.751  16.803   9.669  0.0934  0.1029  0.2855
  672loPI   C2B10750  13.808  16.932   9.176  0.1695 -0.1306 -0.1317
  672loPI   C3B10751  13.875  17.018   8.682  0.0753 -0.0324  0.3430
  672loPI   C4B10752  13.823  17.231   8.285  0.3231  0.1046 -0.1477
  673loPI    C110753   0.283   4.166  10.171 -0.3862 -0.1273 -0.1277
  673loPI    C210754   0.108   4.071  10.518 -0.0997 -0.0109  0.0521
  673loPI    C310755   0.453   4.274  10.516 -0.0643 -0.0673 -0.3009
  673loPI   PO410756   0.153   4.027  10.045  0.0937 -0.0589 -0.1608
  673loPI   GL110757   0.040   4.092   9.598 -0.1826 -0.0255  0.2188
  673loPI   GL210758   0.202   3.877   9.561 -0.0732  0.1538  0.1023
  673loPI   C1A10759   0.135   4.188   9.143 -0.1759  0.4007 -0.1870
  673loPI   C2A10760   0.149   4.331   8.804 -0.1883 -0.1018 -0.1145
  673loPI   C3A10761   0.112   4.327   8.396  0.0167 -0.2077  0.0671
  673loPI   C4A10762   0.161   3.980   8.020  0.0413  0.1567  0.1302
  673loPI   C5A10763   0.516   3.886   7.648 -0.0297  0.1711 -0.0366
  673loPI   C6A10764   0.503   4.006   7.193  0.0637 -0.1326 -0.1381
  673loPI   C1B10765   0.032   3.593   9.130 -0.3325 -0.1045  0.0140
  673loPI   C2B10766  -0.063   3.485   8.637 -0.0124  0.1203 -0.0289
  673loPI   C3B10767  -0.107   3.468   8.242 -0.4669  0.0529  0.2252
  673loPI   C4B10768  -0.253   3.552   7.812 -0.1508 -0.2527 -0.1017
  674loPI    C110769  12.265  12.549   9.472 -0.2032  0.0423 -0.0394
  674loPI    C210770  12.352  12.605   9.859 -0.1331 -0.0859 -0.0362
  674loPI    C310771  12.634  12.473   9.607 -0.1924 -0.0513 -0.1212
  674loPI   PO410772  12.085  12.314   9.355 -0.0980 -0.0371 -0.1400
  674loPI   GL110773  11.900  12.342   9.019  0.2136 -0.0473 -0.0298
  674loPI   GL210774  12.161  12.420   8.897 -0.1066 -0.1301  0.1993
  674loPI   C1A10775  11.879  12.003   8.694  0.1057 -0.0775  0.3112
  674loPI   C2A10776  11.485  11.966   8.416 -0.2708 -0.1176 -0.0093
  674loPI   C3A10777  11.314  12.211   8.176 -0.1701 -0.3081 -0.3129
  674loPI   C4A10778  11.266  12.259   7.778  0.2060 -0.1018  0.4325
  674loPI   C5A10779  11.282  12.566   7.442 -0.1925 -0.3698  0.3029
  674loPI   C6A10780  11.396  12.494   7.033  0.0533  0.1395 -0.1313
  674loPI   C1B10781  12.153  12.490   8.460 -0.0983 -0.0899 -0.0948
  674loPI   C2B10782  11.776  12.399   8.183  0.1051 -0.1055 -0.0065
  674loPI   C3B10783  11.719  11.983   7.998 -0.2549 -0.2763  0.1471
  674loPI   C4B10784  11.599  11.675   7.739  0.2101  0.2685  0.0613
  675loPI    C110785   5.758   1.775  10.180 -0.2692 -0.0630  0.0112
  675loPI    C210786   5.718   1.986  10.517 -0.0250  0.0404 -0.0224
  675loPI    C310787   5.903   1.631  10.524 -0.0184  0.0434 -0.0478
  675loPI   PO410788   5.828   1.889   9.970 -0.0540 -0.0912  0.1219
  675loPI   GL110789   5.752   1.939   9.494 -0.0823  0.2048 -0.0087
  675loPI   GL210790   6.082   1.982   9.403 -0.0438 -0.0742 -0.0895
  675loPI   C1A10791   5.678   1.967   9.049 -0.0992 -0.0676 -0.3399
  675loPI   C2A10792   5.554   1.821   8.581  0.1149  0.1174 -0.0797
  675loPI   C3A10793   5.840   1.711   8.188  0.1503  0.3918 -0.1197
  675loPI   C4A10794   5.802   1.697   7.783  0.1190  0.1864  0.1233
  675loPI   C5A10795   5.999   1.779   7.403  0.0055  0.3890 -0.2220
  675loPI   C6A10796   6.105   1.698   7.076 -0.1882 -0.0991  0.1111
  675loPI   C1B10797   6.174   1.850   8.964  0.1545  0.2415 -0.1888
  675loPI   C2B10798   6.198   1.822   8.578 -0.1345  0.2260  0.2702
  675loPI   C3B10799   6.535   1.675   8.268  0.0627 -0.3377 -0.0157
  675loPI   C4B10800   6.858   1.457   8.063  0.1394  0.1983  0.1631
  676loPI    C110801  16.918  17.022  10.384 -0.0344  0.2154 -0.1921
  676loPI    C210802  16.525  16.967  10.433  0.0004  0.0153 -0.1280
  676loPI    C310803  16.743  17.132  10.726  0.0636 -0.4127  0.0744
  676loPI   PO410804  16.921  17.256  10.099  0.3104  0.0235  0.0333
  676loPI   GL110805  17.171  17.415   9.872 -0.2047  0.2110 -0.0814
  676loPI   GL210806  17.224  17.759   9.912  0.0327  0.0198  0.1523
  676loPI   C1A10807  17.042  17.195   9.441 -0.0937 -0.0910  0.1746
  676loPI   C2A10808  17.109  17.145   8.981 -0.1124  0.0049  0.1608
  676loPI   C3A10809  17.017  17.029   8.554 -0.2304  0.0482 -0.3097
  676loPI   C4A10810  17.040  17.301   8.200 -0.0280  0.0824  0.2737
  676loPI   C5A10811  16.691  17.263   7.978  0.0495 -0.2790  0.0011
  676loPI   C6A10812  16.283  17.490   7.967  0.1166  0.2833  0.2239
  676loPI   C1B10813  17.286  17.723   9.496  0.0567  0.0154 -0.0556
  676loPI   C2B10814  17.218  17.631   9.129 -0.1357  0.0113  0.2157
  676loPI   C3B10815  17.123  17.574   8.666 -0.0801  0.1415 -0.2374
  676loPI   C4B10816  16.659  17.382   8.557 -0.0684 -0.4001  0.0414
  677PSPI    C110817  11.854   3.285   5.558 -0.0429 -0.0369 -0.1008
  677PSPI    C210818  12.214   3.427   5.457 -0.1105  0.0780 -0.1822
  677PSPI    C310819  11.891   3.661   5.426 -0.2267 -0.1003 -0.3406
  677PSPI   PO410820  11.825   3.025   5.465 -0.2967 -0.0865  0.0109
  677PSPI   GL110821  11.905   2.668   5.781 -0.1961  0.2655  0.1275
  677PSPI   GL210822  11.633   2.779   5.967  0.2184 -0.2670 -0.0739
  677PSPI   C1A10823  12.058   2.808   6.161 -0.2889  0.1827  0.0287
  677PSPI   C2A10824  12.395   2.935   6.596 -0.0577 -0.1809 -0.0950
  677PSPI   C3A10825  12.746   3.031   6.831 -0.1141  0.0531 -0.0822
  677PSPI   C4A10826  12.720   3.212   7.302  0.1143 -0.3865 -0.3562
  677PSPI   C1B10827  11.556   3.100   6.359 -0.0224  0.3296  0.0554
  677PSPI   C2B10828  11.406   3.378   6.677 -0.0791 -0.1510 -0.1247
  677PSPI   C3B10829  11.623   3.363   7.065  0.0893  0.0045 -0.2303
  677PSPI   C4B10830  11.793   3.520   7.418 -0.1854  0.0567 -0.0335
  678PSPI    C110831  15.156  19.235   5.889 -0.0229  0.1515  0.0074
  678PSPI    C210832  15.173  19.201   6.288 -0.0119 -0.0547 -0.0095
  678PSPI    C310833  15.429  18.996   6.058 -0.2568 -0.2246 -0.1349
  678PSPI   PO410834  15.191  19.551   5.899  0.4035  0.0637 -0.0576
  678PSPI   GL110835  15.069  20.015   5.999 -0.3874  0.2068 -0.1676
  678PSPI   GL210836  15.261  20.351   6.071  0.1869 -0.0145 -0.0018
  678PSPI   C1A10837  14.990  20.023   6.380  0.0296  0.3035 -0.1313
  678PSPI   C2A10838  15.123  19.962   6.807  0.0785  0.2765 -0.0660
  678PSPI   C3A10839  15.112  19.702   7.231  0.2275  0.0911  0.1317
  678PSPI   C4A10840  15.378  19.396   7.312 -0.1643 -0.0404 -0.2619
  678PSPI   C1B10841  15.317  20.534   6.404  0.1283 -0.0993  0.2371
  678PSPI   C2B10842  15.155  20.465   6.695 -0.1461  0.2770  0.1100
  678PSPI   C3B10843  15.017  20.626   7.061 -0.3318  0.3066  0.0715
  678PSPI   C4B10844  14.926  20.793   7.413 -0.0479  0.1409 -0.0083
  679PSPI    C110845  17.513   0.514   5.413  0.0114 -0.1742  0.0900
  679PSPI    C210846  17.442   0.666   5.049 -0.0889  0.1604  0.2456
  679PSPI    C310847  17.142   0.508   5.262  0.0167 -0.2773  0.0802
  679PSPI   PO410848  17.601   0.714   5.579 -0.1559  0.0973  0.1459
  679PSPI   GL110849  17.513   1.010   5.954  0.0806 -0.2436  0.1942
  679PSPI   GL210850  17.273   1.246   6.026 -0.2919 -0.1551 -0.0355
  679PSPI   C1A10851  17.657   0.958   6.356 -0.0143  0.2360  0.0289
  679PSPI   C2A10852  17.684   1.015   6.850 -0.0743 -0.1318 -0.0700
  679PSPI   C3A10853  17.723   0.908   7.156 -0.1711  0.2183 -0.0958
  679PSPI   C4A10854  17.710   0.756   7.606  0.1865 -0.0108  0.1133
  679PSPI   C1B10855  17.205   1.289   6.481 -0.3535 -0.0159  0.0637
  679PSPI   C2B10856  17.406   1.404   6.869  0.1057  0.1358 -0.1645
  679PSPI   C3B10857  17.338   1.194   7.307 -0.4352  0.1026  0.1438
  679PSPI   C4B10858  17.366   1.099   7.792  0.0957  0.1021  0.0253
  680PSPI    C110859   4.342  15.077   5.323  0.0156 -0.1116  0.0314
  680PSPI    C210860   4.575  14.894   5.054  0.0639 -0.0303  0.0176
  680PSPI    C310861   4.314  15.174   4.936 -0.0602 -0.1396  0.0295
  680PSPI   PO410862   4.570  15.035   5.508  0.2540  0.3554 -0.3376
  680PSPI   GL110863   4.425  14.952   5.937  0.0921  0.2813  0.0345
  680PSPI   GL210864   4.581  14.647   5.812 -0.3140 -0.0629  0.0386
  680PSPI   C1A10865   4.513  15.036   6.315 -0.2317  0.0474  0.0978
  680PSPI   C2A10866   4.553  15.248   6.694 -0.1499  0.2638  0.2533
  680PSPI   C3A10867   4.350  15.250   7.104 -0.1685  0.0827  0.2919
  680PSPI   C4A10868   4.414  15.412   7.544 -0.2851  0.2800 -0.0281
  680PSPI   C1B10869   4.389  14.478   6.200  0.0942 -0.2088  0.0750
  680PSPI   C2B10870   4.118  14.219   6.451 -0.2961 -0.2511 -0.2596
  680PSPI   C3B10871   3.879  14.290   6.727  0.2360  0.1271 -0.0950
  680PSPI   C4B10872   3.795  14.491   7.206  0.0501 -0.2281  0.0929
  681PSPI    C110873   2.789   6.534   5.038 -0.2096  0.1025 -0.0743
  681PSPI    C210874   3.115   6.505   4.808 -0.1906  0.0488 -0.0407
  681PSPI    C310875   3.051   6.835   5.024 -0.1114  0.0224  0.0238
  681PSPI   PO410876   2.803   6.300   5.234 -0.0918 -0.0909 -0.0339
  681PSPI   GL110877   2.768   6.255   5.631  0.2564  0.0192  0.3661
  681PSPI   GL210878   2.915   5.994   5.759  0.0486  0.0818 -0.2646
  681PSPI   C1A10879   2.616   6.334   6.020 -0.0903  0.0928  0.1048
  681PSPI   C2A10880   2.658   6.540   6.454  0.3866 -0.0760  0.0018
  681PSPI   C3A10881   2.735   6.652   6.885 -0.0950 -0.0267  0.3895
  681PSPI   C4A10882   2.651   6.846   7.219  0.0022 -0.0174 -0.0496
  681PSPI   C1B10883   2.967   6.035   6.215  0.0498 -0.0440  0.3116
  681PSPI   C2B10884   2.748   5.925   6.520  0.1179 -0.0526 -0.1161
  681PSPI   C3B10885   2.967   5.862   7.013  0.0123  0.0224 -0.0206
  681PSPI   C4B10886   3.041   5.599   7.389 -0.1616  0.1769 -0.3385
  682PSPI    C110887  14.906  10.273   4.984 -0.0508  0.1925 -0.1087
  682PSPI    C210888  15.175  10.282   4.688  0.0716  0.1048 -0.0014
  682PSPI    C310889  14.998   9.937   4.787  0.1215  0.1099  0.1074
  682PSPI   PO410890  14.993  10.475   5.185  0.1395  0.1577  0.0091
  682PSPI   GL110891  14.831  10.373   5.613  0.0330  0.1946 -0.3324
  682PSPI   GL210892  15.017  10.046   5.416  0.1847 -0.0168  0.0699
  682PSPI   C1A10893  14.930  10.403   5.990  0.2222  0.0202 -0.4214
  682PSPI   C2A10894  14.758  10.549   6.378 -0.1102  0.1384 -0.1343
  682PSPI   C3A10895  14.827  10.425   6.825  0.0483 -0.1449  0.0210
  682PSPI   C4A10896  15.132  10.366   7.152  0.1757  0.2465 -0.2792
  682PSPI   C1B10897  15.150   9.601   5.546  0.5816  0.0057  0.0657
  682PSPI   C2B10898  15.332   9.281   5.535 -0.3967  0.1991  0.1698
  682PSPI   C3B10899  15.242   8.970   5.815 -0.1295 -0.2752 -0.3507
  682PSPI   C4B10900  14.928   8.703   5.818 -0.1252  0.2909 -0.1160
  683PSPI    C110901  17.497   7.838   5.170 -0.0542  0.0642  0.1011
  683PSPI    C210902  17.495   8.134   4.901 -0.1881  0.0127  0.0442
  683PSPI    C310903  17.491   7.753   4.779  0.3583 -0.0226  0.1084
  683PSPI   PO410904  17.471   7.911   5.430 -0.0100 -0.3542 -0.0086
  683PSPI   GL110905  17.397   7.866   5.971 -0.0228 -0.1123  0.1030
  683PSPI   GL210906  17.241   7.556   6.093 -0.1919 -0.2061 -0.3291
  683PSPI   C1A10907  17.228   8.124   6.238  0.0047 -0.1642 -0.1702
  683PSPI   C2A10908  17.247   8.388   6.626  0.0912  0.3890  0.3577
  683PSPI   C3A10909  17.209   8.133   7.066 -0.1881 -0.1978  0.2809
  683PSPI   C4A10910  17.129   7.699   7.262 -0.1700 -0.0821  0.0750
  683PSPI   C1B10911  17.159   7.268   6.498  0.0198 -0.1583  0.0419
  683PSPI   C2B10912  17.189   6.960   6.886  0.0229  0.2677 -0.1832
  683PSPI   C3B10913  17.086   7.159   7.273 -0.2747 -0.2459 -0.1112
  683PSPI   C4B10914  16.764   7.437   7.407  0.0787  0.2510  0.0492
  684PSPI    C110915  10.240   2.007   5.263 -0.0601 -0.0348  0.0145
  684PSPI    C210916  10.064   2.120   4.921 -0.1083 -0.2137 -0.0209
  684PSPI    C310917   9.970   1.769   5.088 -0.0998 -0.1182  0.1879
  684PSPI   PO410918  10.134   2.104   5.486 -0.0628 -0.2426  0.1109
  684PSPI   GL110919  10.065   1.980   5.889  0.0088 -0.0504  0.2568
  684PSPI   GL210920  10.108   1.685   6.030 -0.0260  0.0650 -0.1535
  684PSPI   C1A10921  10.195   2.053   6.312  0.2694  0.1581  0.0827
  684PSPI   C2A10922  10.270   2.341   6.650 -0.3481  0.0281  0.0225
  684PSPI   C3A10923  10.310   2.630   7.000 -0.1291  0.1294 -0.0998
  684PSPI   C4A10924  10.284   2.934   7.412  0.2387  0.0370  0.2581
  684PSPI   C1B10925  10.127   1.600   6.430  0.3717 -0.1258 -0.4966
  684PSPI   C2B10926  10.066   1.885   6.838 -0.1121 -0.1830 -0.0104
  684PSPI   C3B10927  10.205   2.156   7.176 -0.0464 -0.0459  0.0892
  684PSPI   C4B10928  10.382   2.351   7.472 -0.1688  0.3811 -0.2713
  685PSPI    C110929   9.259  11.145   5.068  0.0939 -0.0929  0.1307
  685PSPI    C210930   9.582  11.239   4.852  0.0658 -0.2139  0.0348
  685PSPI    C310931   9.405  10.885   4.802 -0.1333 -0.1144  0.0249
  685PSPI   PO410932   9.327  11.177   5.305 -0.0224 -0.2595  0.3184
  685PSPI   GL110933   9.042  11.123   5.643  0.2438  0.0590  0.2043
  685PSPI   GL210934   8.989  11.372   5.621 -0.1631  0.1563  0.1260
  685PSPI   C1A10935   8.923  11.029   6.109  0.1609  0.1021 -0.1934
  685PSPI   C2A10936   8.772  10.979   6.445 -0.2095  0.0089 -0.0013
  685PSPI   C3A10937   8.384  11.064   6.769 -0.4043  0.1825  0.0531
  685PSPI   C4A10938   8.197  11.357   7.022 -0.0668  0.0473  0.0262
  685PSPI   C1B10939   9.004  11.747   5.817 -0.1926 -0.0213 -0.0719
  685PSPI   C2B10940   8.839  11.969   6.220  0.1238  0.0287  0.0763
  685PSPI   C3B10941   8.769  12.111   6.658 -0.2291  0.2583 -0.0421
  685PSPI   C4B10942   8.464  12.338   6.961  0.1064 -0.0717 -0.3127
  686PSPI    C110943   4.707   5.448   4.835 -0.0292 -0.1703  0.1186
  686PSPI    C210944   4.914   5.248   4.556  0.1631 -0.2198  0.2942
  686PSPI    C310945   4.526   5.167   4.616  0.1312 -0.2370  0.0703
  686PSPI   PO410946   4.996   5.476   4.985  0.0338 -0.0317  0.2112
  686PSPI   GL110947   5.194   5.304   5.380  0.3079 -0.3125 -0.4170
  686PSPI   GL210948   5.227   5.587   5.411  0.1225 -0.1602 -0.3601
  686PSPI   C1A10949   5.300   5.226   5.821 -0.0539 -0.3541 -0.3417
  686PSPI   C2A10950   5.424   5.570   6.042  0.1003 -0.0397  0.1547
  686PSPI   C3A10951   5.895   5.828   6.018 -0.0516  0.4767  0.0011
  686PSPI   C4A10952   6.244   5.724   6.379  0.4578 -0.2583 -0.0729
  686PSPI   C1B10953   5.673   5.585   5.513 -0.1617  0.0405 -0.1288
  686PSPI   C2B10954   6.121   5.736   5.624 -0.0928  0.0118  0.1274
  686PSPI   C3B10955   6.425   5.792   5.908 -0.1857 -0.0928 -0.2299
  686PSPI   C4B10956   6.682   5.836   6.284 -0.1690  0.0682  0.1385
  687PSPI    C110957  13.939  13.018   5.180 -0.1102  0.3023  0.0630
  687PSPI    C210958  13.777  13.301   4.947  0.0419  0.1509 -0.2319
  687PSPI    C310959  14.172  13.298   5.014  0.0051  0.1674 -0.0044
  687PSPI   PO410960  13.778  13.053   5.458  0.1140 -0.0144  0.0810
  687PSPI   GL110961  13.884  13.111   5.919  0.1554 -0.0194 -0.2013
  687PSPI   GL210962  13.519  13.171   5.987  0.3012  0.4412 -0.1631
  687PSPI   C1A10963  13.917  13.352   6.275  0.0493 -0.1008 -0.3774
  687PSPI   C2A10964  14.147  13.475   6.569 -0.1453  0.0288 -0.2043
  687PSPI   C3A10965  14.369  13.422   6.905 -0.2090  0.1233  0.2230
  687PSPI   C4A10966  14.520  13.255   7.261  0.1459  0.3393 -0.0178
  687PSPI   C1B10967  13.533  13.084   6.363  0.2560  0.2670  0.0214
  687PSPI   C2B10968  13.786  13.009   6.687 -0.0771  0.0875 -0.1356
  687PSPI   C3B10969  13.780  13.251   6.951 -0.3186 -0.4269  0.4924
  687PSPI   C4B10970  13.901  13.593   7.081 -0.2835 -0.3703 -0.0919
  688PSPI    C110971   9.836  17.774   5.253  0.1140  0.0451 -0.0774
  688PSPI    C210972   9.553  17.697   4.980 -0.0120 -0.1203  0.0974
  688PSPI    C310973   9.786  18.019   4.940  0.1037 -0.2485 -0.3107
  688PSPI   PO410974   9.683  17.631   5.491  0.1070  0.3167 -0.0671
  688PSPI   GL110975   9.627  17.538   5.914 -0.0756  0.0861 -0.0354
  688PSPI   GL210976   9.240  17.565   5.978  0.1502 -0.3151 -0.2247
  688PSPI   C1A10977   9.594  17.502   6.303  0.2511  0.0571 -0.0123
  688PSPI   C2A10978   9.502  17.439   6.744 -0.1440 -0.1790  0.3986
  688PSPI   C3A10979   9.208  17.442   7.119  0.0247  0.2510  0.0541
  688PSPI   C4A10980   9.164  17.330   7.487  0.0990  0.3170  0.0884
  688PSPI   C1B10981   9.097  17.690   6.392  0.0839  0.1648  0.1372
  688PSPI   C2B10982   8.908  17.756   6.749 -0.3404  0.1376 -0.0674
  688PSPI   C3B10983   8.515  17.765   6.983  0.1541  0.2522 -0.1444
  688PSPI   C4B10984   8.244  17.678   7.345 -0.1021  0.2464  0.1245
  689PSPI    C110985  13.851   6.773   5.382 -0.0519  0.1504 -0.1797
  689PSPI    C210986  13.875   6.598   5.023 -0.1079 -0.0127 -0.1048
  689PSPI    C310987  13.663   6.426   5.316 -0.2465  0.2312 -0.0596
  689PSPI   PO410988  13.863   7.086   5.347 -0.0670 -0.4779  0.0108
  689PSPI   GL110989  13.805   7.220   5.734 -0.2072  0.1695 -0.1695
  689PSPI   GL210990  13.595   7.450   5.842 -0.5472  0.0961  0.1750
  689PSPI   C1A10991  13.965   7.059   6.202  0.0559  0.1936  0.0983
  689PSPI   C2A10992  13.881   7.198   6.611 -0.0195  0.0285  0.1616
  689PSPI   C3A10993  13.607   6.906   6.914 -0.2140  0.1486 -0.0787
  689PSPI   C4A10994  13.331   6.753   7.169  0.3862 -0.0643  0.1182
  689PSPI   C1B10995  13.606   7.460   6.336 -0.0755 -0.2698 -0.0970
  689PSPI   C2B10996  13.306   7.217   6.547  0.1476 -0.0058 -0.2737
  689PSPI   C3B10997  13.029   7.066   6.745  0.0816  0.0283 -0.1732
  689PSPI   C4B10998  12.877   6.635   6.799  0.1570  0.3094  0.1537
  690PSPI    C110999   5.131   8.879   4.864 -0.0189  0.1210 -0.0738
  690PSPI    C211000   5.178   9.174   5.130  0.2389  0.0405 -0.0276
  690PSPI    C311001   5.460   9.107   4.854 -0.0354  0.1365 -0.3371
  690PSPI   PO411002   5.090   8.721   4.998 -0.0141  0.0922  0.0723
  690PSPI   GL111003   5.098   8.610   5.408  0.2890 -0.3568 -0.0600
  690PSPI   GL211004   5.182   8.897   5.590  0.2557 -0.2720  0.2790
  690PSPI   C1A11005   4.996   8.411   5.809 -0.0585  0.0236 -0.0158
  690PSPI   C2A11006   5.091   8.328   6.175 -0.0010  0.1548 -0.1005
  690PSPI   C3A11007   4.854   8.082   6.398  0.1423 -0.1741  0.0070
  690PSPI   C4A11008   4.928   7.712   6.774  0.0468  0.0303 -0.1522
  690PSPI   C1B11009   5.203   8.848   6.073  0.3486 -0.0969 -0.2941
  690PSPI   C2B11010   4.964   8.703   6.478  0.1731  0.0120  0.2754
  690PSPI   C3B11011   4.782   8.510   6.813  0.2608 -0.0451  0.0798
  690PSPI   C4B11012   4.794   8.178   6.962  0.1593  0.1977 -0.1834
  691PSPI    C111013  17.524   8.819   5.420 -0.0210 -0.1799  0.2505
  691PSPI    C211014  17.304   8.518   5.276 -0.2471  0.1543 -0.1274
  691PSPI    C311015  17.621   8.651   5.070 -0.0074  0.0283  0.1521
  691PSPI   PO411016  17.557   8.722   5.667 -0.0451 -0.0983 -0.1934
  691PSPI   GL111017  17.469   8.907   6.023 -0.1589  0.1863  0.1629
  691PSPI   GL211018  17.225   8.852   6.116 -0.0607  0.2087  0.0509
  691PSPI   C1A11019  17.680   8.747   6.405 -0.1464 -0.1715  0.0650
  691PSPI   C2A11020  17.772   8.500   6.686 -0.0430  0.2823  0.1625
  691PSPI   C3A11021  18.097   8.165   6.691 -0.1194  0.1899  0.2374
  691PSPI   C4A11022  18.159   7.790   6.486 -0.0206  0.2569  0.0315
  691PSPI   C1B11023  16.853   9.016   6.300 -0.1037  0.0003  0.1818
  691PSPI   C2B11024  16.550   9.184   6.589  0.3255 -0.0010 -0.0078
  691PSPI   C3B11025  16.626   9.343   7.014 -0.1400 -0.1087  0.1237
  691PSPI   C4B11026  16.881   9.641   7.220 -0.1068  0.0946 -0.1343
  692PSPI    C111027  16.063  13.437   5.279  0.0156  0.1468 -0.0338
  692PSPI    C211028  15.803  13.278   5.020 -0.0654  0.1280  0.0589
  692PSPI    C311029  15.960  13.638   4.949  0.0348  0.0544 -0.0966
  692PSPI   PO411030  16.083  13.148   5.465 -0.1128 -0.1657 -0.1193
  692PSPI   GL111031  15.999  13.322   5.858  0.1317 -0.0276 -0.2457
  692PSPI   GL211032  15.812  13.570   5.755  0.1383  0.0022 -0.0438
  692PSPI   C1A11033  16.138  12.917   6.113 -0.1130  0.2554  0.1940
  692PSPI   C2A11034  16.216  12.677   6.564  0.2189  0.2627 -0.2415
  692PSPI   C3A11035  16.486  12.774   6.910 -0.2812 -0.1155  0.2413
  692PSPI   C4A11036  16.679  12.604   7.218  0.2966 -0.0629  0.0116
  692PSPI   C1B11037  15.766  13.743   6.212  0.0257 -0.1597  0.1234
  692PSPI   C2B11038  15.503  13.944   6.574  0.1039  0.2996 -0.1001
  692PSPI   C3B11039  15.040  13.929   6.655 -0.0759 -0.1571  0.3011
  692PSPI   C4B11040  14.673  13.670   6.536  0.1133 -0.1204 -0.1882
  693PSPI    C111041   9.994   4.533   5.263  0.0183  0.0098  0.0122
  693PSPI    C211042  10.393   4.540   5.277  0.0119  0.1173  0.1638
  693PSPI    C311043  10.206   4.257   5.066  0.1734  0.2812 -0.2104
  693PSPI   PO411044   9.855   4.549   5.464  0.0053  0.2141  0.0906
  693PSPI   GL111045   9.697   4.842   5.781 -0.0060 -0.0515 -0.2767
  693PSPI   GL211046   9.655   5.084   5.563  0.4153  0.1126  0.0998
  693PSPI   C1A11047   9.566   5.059   6.021 -0.0486 -0.1193  0.1953
  693PSPI   C2A11048   9.499   4.947   6.434 -0.0789  0.3609 -0.3062
  693PSPI   C3A11049   9.411   4.576   6.616  0.1925 -0.1799 -0.0406
  693PSPI   C4A11050   9.082   4.441   6.816 -0.2402 -0.0847  0.1947
  693PSPI   C1B11051   9.605   5.536   5.839 -0.2015  0.1299  0.1564
  693PSPI   C2B11052   9.594   5.878   6.104 -0.1039 -0.1110 -0.3932
  693PSPI   C3B11053   9.677   6.298   6.326 -0.2120 -0.5054  0.2219
  693PSPI   C4B11054   9.837   6.358   6.712  0.1944 -0.1198  0.1959
  694PSPI    C111055   6.634  10.817   4.991 -0.0861 -0.0544  0.1173
  694PSPI    C211056   6.839  11.123   4.834 -0.0041 -0.0912  0.1522
  694PSPI    C311057   7.010  10.763   4.866 -0.1112 -0.1488  0.0818
  694PSPI   PO411058   6.540  10.863   5.200 -0.0554  0.2020  0.0789
  694PSPI   GL111059   6.619  11.041   5.575 -0.0431  0.5042  0.1724
  694PSPI   GL211060   6.297  11.087   5.837 -0.0622  0.2513  0.1823
  694PSPI   C1A11061   6.641  10.813   5.961 -0.0998 -0.0333  0.2761
  694PSPI   C2A11062   6.617  10.779   6.340  0.0081 -0.1590  0.0613
  694PSPI   C3A11063   6.589  10.822   6.723  0.0682 -0.1592  0.0722
  694PSPI   C4A11064   6.833  11.009   7.043  0.0277  0.2500  0.1854
  694PSPI   C1B11065   6.633  11.312   6.053  0.1157  0.0622  0.2020
  694PSPI   C2B11066   6.878  11.233   6.398  0.0487  0.1342  0.0034
  694PSPI   C3B11067   7.103  10.783   6.548 -0.1198  0.1483  0.1667
  694PSPI   C4B11068   7.108  10.641   6.881  0.0450  0.2474  0.1890
  695PSPI    C111069   3.291   0.460   5.090  0.1349 -0.1597 -0.1605
  695PSPI    C211070   3.096   0.420   4.744 -0.0111  0.3137 -0.1393
  695PSPI    C311071   3.488   0.498   4.744  0.0394  0.0660 -0.1921
  695PSPI   PO411072   3.180   0.247   5.191 -0.1096 -0.1374 -0.0695
  695PSPI   GL111073   3.376   0.199   5.588 -0.1433 -0.1905 -0.0982
  695PSPI   GL211074   3.420   0.472   5.597  0.1627 -0.2138 -0.0495
  695PSPI   C1A11075   3.157   0.099   5.963  0.2502  0.0198 -0.0014
  695PSPI   C2A11076   3.239  -0.154   6.410 -0.1051 -0.2123  0.0352
  695PSPI   C3A11077   3.233  -0.195   6.764  0.0432 -0.0572  0.0199
  695PSPI   C4A11078   2.962  -0.009   7.118  0.0689 -0.3051 -0.0338
  695PSPI   C1B11079   3.581   0.320   6.051 -0.1820 -0.0384 -0.0749
  695PSPI   C2B11080   3.594   0.295   6.540 -0.3930 -0.2485  0.0448
  695PSPI   C3B11081   3.593   0.125   6.839 -0.0298  0.0298 -0.4020
  695PSPI   C4B11082   3.470  -0.048   7.299  0.3503 -0.0495 -0.3948
  696PSPI    C111083  14.624   1.831   5.773 -0.1114  0.2554 -0.1024
  696PSPI    C211084  14.702   2.002   5.420  0.3086  0.0728 -0.1041
  696PSPI    C311085  14.957   1.734   5.573 -0.0015 -0.0470  0.2163
  696PSPI   PO411086  14.474   1.997   5.861  0.4360  0.1500 -0.1726
  696PSPI   GL111087  14.418   2.014   6.257 -0.1066  0.0904 -0.2213
  696PSPI   GL211088  14.400   1.627   6.299  0.1139  0.0921  0.0937
  696PSPI   C1A11089  14.380   2.125   6.630  0.0838 -0.0433  0.2027
  696PSPI   C2A11090  14.196   2.276   7.026  0.0058  0.0744 -0.2285
  696PSPI   C3A11091  14.210   2.345   7.481 -0.0378 -0.0715  0.2375
  696PSPI   C4A11092  14.425   2.266   7.779  0.0247 -0.2339  0.2713
  696PSPI   C1B11093  14.115   1.647   6.620  0.1213  0.0785 -0.3007
  696PSPI   C2B11094  13.680   1.779   6.896 -0.0087  0.2268 -0.4068
  696PSPI   C3B11095  13.355   1.788   7.125 -0.0500  0.1858 -0.1817
  696PSPI   C4B11096  12.932   1.814   6.965 -0.2076 -0.0911 -0.1172
  697POPI    C111097   2.812   4.721   4.986 -0.0808  0.1113  0.0062
  697POPI    C211098   3.113   4.855   4.759 -0.1219  0.1427 -0.0300
  697POPI    C311099   2.964   4.489   4.697  0.0055  0.0704  0.0838
  697POPI   PO411100   2.680   4.962   5.090 -0.0879  0.3656  0.2755
  697POPI   GL111101   2.554   5.240   5.510  0.0704 -0.1287 -0.1075
  697POPI   GL211102   2.597   5.495   5.630 -0.3660  0.1037  0.3523
  697POPI   C1A11103   2.440   4.857   5.723 -0.0194  0.0924 -0.2170
  697POPI   D2A11104   2.499   4.411   5.832 -0.1096  0.2504 -0.2125
  697POPI   C3A11105   2.064   4.140   6.031 -0.1287 -0.3110 -0.0228
  697POPI   C4A11106   1.847   3.800   6.168 -0.0669 -0.0684 -0.1474
  697POPI   C1B11107   2.376   5.314   6.060 -0.3122 -0.0989  0.0287
  697POPI   C2B11108   2.285   5.652   6.444 -0.3325  0.3893  0.1434
  697POPI   C3B11109   2.281   5.910   6.780 -0.3944 -0.2297 -0.0443
  697POPI   C4B11110   2.183   6.006   7.208 -0.5400  0.1786 -0.1791
  698POPI    C111111   1.854  18.521   4.851 -0.1403 -0.0631 -0.3006
  698POPI    C211112   2.111  18.819   4.776  0.0112 -0.1256 -0.0411
  698POPI    C311113   1.744  18.826   4.616  0.0981  0.0749 -0.2364
  698POPI   PO411114   1.891  18.541   5.142  0.1468 -0.4396  0.2361
  698POPI   GL111115   2.064  18.273   5.522  0.0610  0.0585  0.1063
  698POPI   GL211116   1.973  17.919   5.590 -0.1749 -0.1610  0.0954
  698POPI   C1A11117   2.053  18.232   6.001 -0.0838 -0.0803  0.1090
  698POPI   D2A11118   2.168  18.248   6.427 -0.1784  0.3375 -0.0886
  698POPI   C3A11119   1.706  18.275   6.637 -0.1580  0.1175 -0.1124
  698POPI   C4A11120   1.317  18.509   6.555  0.1994 -0.0438  0.2588
  698POPI   C1B11121   1.589  18.043   5.851 -0.1335 -0.2696  0.1756
  698POPI   C2B11122   1.409  18.166   6.172 -0.0193 -0.2795 -0.1283
  698POPI   C3B11123   1.231  18.027   6.608 -0.2012  0.2207 -0.0506
  698POPI   C4B11124   1.204  17.893   7.080 -0.0083  0.3114  0.0585
  699POPI    C111125   5.456  15.056   5.076  0.0771 -0.0401 -0.1132
  699POPI    C211126   5.189  14.831   4.880  0.0048 -0.1057  0.0582
  699POPI    C311127   5.335  15.163   4.710  0.1460 -0.3042 -0.2149
  699POPI   PO411128   5.595  14.969   5.140  0.2024 -0.1215 -0.1748
  699POPI   GL111129   5.471  14.779   5.485  0.5081 -0.1431 -0.1065
  699POPI   GL211130   5.664  14.442   5.495 -0.1393 -0.1830  0.0299
  699POPI   C1A11131   5.443  14.837   5.878 -0.2093  0.0553 -0.0209
  699POPI   D2A11132   5.482  14.756   6.215  0.0860 -0.3418  0.0043
  699POPI   C3A11133   5.458  14.874   6.606 -0.1751  0.0539 -0.1301
  699POPI   C4A11134   5.461  14.773   7.006  0.0051  0.1438 -0.0641
  699POPI   C1B11135   5.809  14.348   5.888 -0.3435 -0.1855  0.0701
  699POPI   C2B11136   5.640  14.135   6.221  0.2968  0.2013  0.0813
  699POPI   C3B11137   5.360  14.109   6.501  0.0291 -0.0955 -0.2076
  699POPI   C4B11138   5.161  14.409   6.830  0.1651 -0.1876  0.0192
  700POPI    C111139   3.966  15.511   5.146  0.1735  0.0050  0.1737
  700POPI    C211140   3.595  15.408   5.255  0.1455 -0.0999 -0.0160
  700POPI    C311141   3.831  15.142   5.073  0.2962 -0.0172  0.0563
  700POPI   PO411142   4.162  15.671   5.383 -0.1205  0.0728 -0.3505
  700POPI   GL111143   4.133  15.924   5.677  0.1986  0.2403 -0.0092
  700POPI   GL211144   3.802  16.067   5.754 -0.0402 -0.1290  0.2901
  700POPI   C1A11145   4.287  15.876   6.072 -0.0531  0.0789  0.1126
  700POPI   D2A11146   4.477  15.632   6.340 -0.0258 -0.0255  0.0263
  700POPI   C3A11147   4.454  15.721   6.685  0.0905 -0.3424 -0.0837
  700POPI   C4A11148   4.513  15.956   7.179  0.1142  0.0636 -0.2818
  700POPI   C1B11149   3.395  16.189   6.054  0.1574  0.2042 -0.2989
  700POPI   C2B11150   3.181  15.982   6.411  0.2315  0.1413  0.1848
  700POPI   C3B11151   3.042  16.131   6.878  0.0450  0.0894 -0.2630
  700POPI   C4B11152   2.899  16.437   7.227 -0.0220  0.1714  0.0413
  701POPI    C111153   9.239   8.592   4.937  0.3141 -0.0657 -0.0275
  701POPI    C211154   9.052   8.402   4.639  0.0600 -0.1164  0.1604
  701POPI    C311155   9.060   8.802   4.648 -0.2710 -0.1101  0.2879
  701POPI   PO411156   9.461   8.526   5.075 -0.1629 -0.1121 -0.0296
  701POPI   GL111157   9.747   8.442   5.507 -0.0997  0.1882  0.1397
  701POPI   GL211158   9.532   8.144   5.497 -0.0828  0.2864  0.0671
  701POPI   C1A11159   9.666   8.341   5.992  0.0901 -0.0662 -0.0685
  701POPI   D2A11160   9.606   8.130   6.291 -0.0587  0.2585 -0.0610
  701POPI   C3A11161   9.297   8.250   6.526 -0.0340 -0.1885  0.0112
  701POPI   C4A11162   8.916   8.118   6.688  0.1744 -0.0866  0.2453
  701POPI   C1B11163   9.441   7.923   5.814 -0.1945  0.0088 -0.0754
  701POPI   C2B11164   9.604   7.542   6.022 -0.0378 -0.0313 -0.1064
  701POPI   C3B11165   9.660   7.117   5.978  0.3834  0.0645  0.3926
  701POPI   C4B11166   9.560   6.693   5.922 -0.0557  0.0333 -0.1696
  702POPI    C111167  17.825  11.284   5.019 -0.1049  0.1504 -0.0241
  702POPI    C211168  17.593  10.966   4.950  0.0683  0.0598 -0.1978
  702POPI    C311169  17.459  11.333   4.865 -0.1719  0.0450  0.1001
  702POPI   PO411170  18.045  11.211   4.936  0.1718 -0.0215 -0.3718
  702POPI   GL111171  18.268  10.969   5.313  0.2847 -0.0956 -0.0609
  702POPI   GL211172  18.467  10.808   5.591  0.1074  0.1661 -0.2168
  702POPI   C1A11173  18.165  11.155   5.630 -0.1598 -0.0918  0.2154
  702POPI   D2A11174  17.972  10.791   5.801  0.0500 -0.2559 -0.2298
  702POPI   C3A11175  17.584  10.862   6.162 -0.3412 -0.1125  0.2157
  702POPI   C4A11176  17.701  11.000   6.662  0.1439  0.0698  0.1693
  702POPI   C1B11177  18.572  11.005   5.973 -0.1983  0.1143  0.0393
  702POPI   C2B11178  18.565  11.016   6.372 -0.1990  0.1171 -0.1174
  702POPI   C3B11179  18.797  11.052   6.716  0.1208 -0.0966 -0.0470
  702POPI   C4B11180  18.773  11.187   7.128  0.1491 -0.1567 -0.1616
  703POPI    C111181   8.242  14.269   4.869 -0.2385 -0.1375 -0.0442
  703POPI    C211182   8.244  13.913   4.686 -0.1723 -0.0323 -0.2508
  703POPI    C311183   8.028  14.215   4.535 -0.1399  0.0474 -0.1389
  703POPI   PO411184   8.167  14.271   5.099 -0.2166  0.0108  0.1457
  703POPI   GL111185   7.918  14.370   5.383 -0.1257 -0.1460 -0.0976
  703POPI   GL211186   7.755  14.108   5.442  0.1676 -0.3255 -0.1384
  703POPI   C1A11187   7.952  14.381   5.942 -0.0577  0.0049 -0.2716
  703POPI   D2A11188   7.863  14.185   6.268 -0.0837 -0.2585  0.1918
  703POPI   C3A11189   8.083  14.085   6.618 -0.0475 -0.2365  0.2437
  703POPI   C4A11190   8.254  13.954   7.095  0.1540 -0.0350  0.0740
  703POPI   C1B11191   7.630  13.929   5.869 -0.0174  0.0520 -0.5097
  703POPI   C2B11192   7.568  13.812   6.295  0.4781  0.0530  0.2476
  703POPI   C3B11193   7.595  13.816   6.697 -0.1932 -0.0742 -0.2710
  703POPI   C4B11194   7.371  14.049   7.037  0.4376  0.0771 -0.0708
  704POPI    C111195   5.756   8.340   4.675 -0.1870 -0.1716  0.1929
  704POPI    C211196   5.383   8.479   4.647 -0.1697 -0.0836  0.3785
  704POPI    C311197   5.691   8.734   4.648 -0.0862 -0.1722 -0.0925
  704POPI   PO411198   5.770   8.179   4.866  0.0301 -0.5379 -0.3580
  704POPI   GL111199   6.038   8.065   5.143  0.0761 -0.2292 -0.0774
  704POPI   GL211200   5.769   8.200   5.379 -0.3342  0.0002  0.1473
  704POPI   C1A11201   6.427   7.795   5.227 -0.0935  0.1145 -0.1592
  704POPI   D2A11202   6.761   7.602   5.249 -0.0438 -0.1151  0.0153
  704POPI   C3A11203   6.658   7.273   5.392  0.0214 -0.0835  0.3079
  704POPI   C4A11204   6.280   7.374   5.625 -0.2010  0.2322 -0.1321
  704POPI   C1B11205   5.529   8.457   5.754  0.1374  0.0308  0.5521
  704POPI   C2B11206   5.661   8.534   6.123 -0.1068  0.0823 -0.0470
  704POPI   C3B11207   5.663   8.787   6.494 -0.0357  0.0821 -0.0840
  704POPI   C4B11208   5.295   8.930   6.737 -0.0140  0.1252 -0.0013
  705POPI    C111209  16.746   3.679   5.041 -0.0278  0.0697  0.0589
  705POPI    C211210  17.139   3.667   4.966 -0.0648 -0.3504 -0.0942
  705POPI    C311211  16.882   3.751   4.672 -0.0961 -0.1341 -0.0072
  705POPI   PO411212  16.728   3.858   5.339  0.3545 -0.0494 -0.0174
  705POPI   GL111213  16.593   3.996   5.774 -0.0401  0.1344 -0.2435
  705POPI   GL211214  16.305   3.943   5.683 -0.0371 -0.1796 -0.0717
  705POPI   C1A11215  16.377   4.191   6.197  0.2298  0.0399  0.0854
  705POPI   D2A11216  16.273   4.242   6.610 -0.1331  0.2466  0.2401
  705POPI   C3A11217  16.187   4.147   7.083 -0.3527  0.0984 -0.0603
  705POPI   C4A11218  16.307   3.973   7.447  0.0252  0.1850 -0.1675
  705POPI   C1B11219  16.112   3.781   6.018  0.0470 -0.0500  0.1863
  705POPI   C2B11220  16.059   3.822   6.407  0.1510 -0.0758  0.0203
  705POPI   C3B11221  15.986   3.708   6.826  0.0414 -0.0934  0.0737
  705POPI   C4B11222  16.130   3.603   7.167 -0.1067 -0.1750 -0.0543
  706POPI    C111223  12.264  14.523   5.065 -0.0173 -0.0144 -0.1363
  706POPI    C211224  12.464  14.719   4.780 -0.0549  0.1476 -0.0524
  706POPI    C311225  12.565  14.343   4.872  0.1502  0.1960 -0.0751
  706POPI   PO411226  12.008  14.665   5.056 -0.0467 -0.2158 -0.1501
  706POPI   GL111227  11.885  14.658   5.406 -0.0764  0.2311 -0.3798
  706POPI   GL211228  12.235  14.635   5.521 -0.1847  0.0080  0.1486
  706POPI   C1A11229  11.834  14.452   5.772  0.0522  0.1516  0.3156
  706POPI   D2A11230  11.878  14.403   6.216  0.0203 -0.2284 -0.0044
  706POPI   C3A11231  11.983  14.413   6.692 -0.0514 -0.0014  0.0973
  706POPI   C4A11232  12.050  14.129   7.052 -0.4102  0.0452 -0.1608
  706POPI   C1B11233  12.086  15.021   5.738 -0.2479 -0.1159 -0.3680
  706POPI   C2B11234  11.736  14.864   5.988 -0.2828 -0.0795 -0.2160
  706POPI   C3B11235  11.672  14.883   6.340  0.0953 -0.4874  0.1102
  706POPI   C4B11236  11.638  14.743   6.794 -0.1614 -0.2317  0.1718
  707POPI    C111237   7.650  12.480   5.079 -0.1564  0.2016  0.2535
  707POPI    C211238   7.921  12.199   5.167 -0.2782  0.1059  0.3257
  707POPI    C311239   7.656  12.137   4.873 -0.0744  0.2954  0.0977
  707POPI   PO411240   7.719  12.644   5.262 -0.0951  0.2246 -0.1488
  707POPI   GL111241   7.439  12.664   5.638  0.0715  0.0583  0.0525
  707POPI   GL211242   7.618  12.294   5.603 -0.0218 -0.1031 -0.0242
  707POPI   C1A11243   7.253  12.396   5.916 -0.1052 -0.3268  0.2802
  707POPI   D2A11244   7.235  12.126   6.251  0.2313  0.0625 -0.0644
  707POPI   C3A11245   6.867  12.303   6.457  0.3220  0.0754  0.0218
  707POPI   C4A11246   6.822  12.607   6.804  0.2471  0.0587 -0.2768
  707POPI   C1B11247   7.769  12.465   6.018 -0.0057 -0.1828  0.1354
  707POPI   C2B11248   7.809  12.306   6.451  0.1410 -0.0041 -0.2682
  707POPI   C3B11249   7.837  12.055   6.704 -0.0305 -0.1706  0.0065
  707POPI   C4B11250   7.987  11.710   6.587  0.1639 -0.2951  0.2718
  708POPI    C111251  14.031  11.505   5.053 -0.0571  0.1285 -0.1212
  708POPI    C211252  13.810  11.254   4.833 -0.0121  0.1770 -0.2223
  708POPI    C311253  14.202  11.291   4.762 -0.0369  0.3496 -0.2744
  708POPI   PO411254  13.939  11.491   5.307  0.0146 -0.1958 -0.0077
  708POPI   GL111255  13.878  11.614   5.718  0.1493 -0.0270  0.2512
  708POPI   GL211256  13.715  11.563   5.955  0.2343 -0.3015  0.0878
  708POPI   C1A11257  14.144  11.708   6.127 -0.1991  0.0925  0.1597
  708POPI   D2A11258  14.231  11.494   6.549  0.2998  0.1641  0.1347
  708POPI   C3A11259  14.660  11.531   6.701  0.1434 -0.0953 -0.0794
  708POPI   C4A11260  14.950  11.464   6.878 -0.1043  0.0805 -0.0349
  708POPI   C1B11261  13.867  11.252   6.236 -0.0128  0.0067 -0.0749
  708POPI   C2B11262  13.753  10.783   6.401 -0.0185 -0.2737  0.0137
  708POPI   C3B11263  13.661  10.806   6.952  0.0078  0.1602  0.3040
  708POPI   C4B11264  13.291  10.583   7.140  0.0981 -0.2157  0.1427
  709POPI    C111265   0.488   7.455   5.203  0.2102  0.0144 -0.2049
  709POPI    C211266   0.419   7.353   4.822 -0.1515  0.0097 -0.1413
  709POPI    C311267   0.605   7.697   4.907 -0.1801  0.0701 -0.3193
  709POPI   PO411268   0.137   7.270   5.310  0.1685 -0.4328  0.4587
  709POPI   GL111269   0.152   6.915   5.625  0.0962  0.1513  0.1531
  709POPI   GL211270   0.398   7.047   5.688 -0.0180  0.0929 -0.0569
  709POPI   C1A11271   0.399   6.720   6.015  0.2395 -0.1213  0.0140
  709POPI   D2A11272   0.285   6.710   6.341 -0.0132 -0.1237 -0.1154
  709POPI   C3A11273   0.595   6.751   6.632  0.0024  0.2005  0.3876
  709POPI   C4A11274   0.977   6.740   6.739  0.1140  0.0401 -0.1577
  709POPI   C1B11275   0.795   7.045   5.960 -0.4352 -0.0293 -0.1570
  709POPI   C2B11276   0.957   6.727   6.239 -0.1638  0.0419 -0.0901
  709POPI   C3B11277   1.289   6.451   6.450  0.0957  0.1330 -0.2455
  709POPI   C4B11278   1.314   6.374   6.938  0.1521 -0.2266 -0.3870
  710POPI    C111279   2.261  11.808   5.018 -0.0622 -0.1965  0.2185
  710POPI    C211280   2.256  11.667   4.644 -0.1239  0.2066  0.0634
  710POPI    C311281   2.499  11.970   4.741 -0.1260  0.1208  0.3448
  710POPI   PO411282   1.946  11.847   5.108  0.0913 -0.2182  0.0748
  710POPI   GL111283   1.952  11.915   5.506 -0.1814  0.2672 -0.3342
  710POPI   GL211284   2.012  12.181   5.719  0.3598  0.0809 -0.0010
  710POPI   C1A11285   1.574  11.694   5.773  0.4742 -0.0504  0.2626
  710POPI   D2A11286   1.254  11.578   6.024  0.2436  0.5894  0.0417
  710POPI   C3A11287   1.313  11.611   6.375 -0.3747  0.0013  0.2279
  710POPI   C4A11288   1.225  11.430   6.746  0.1606  0.1740 -0.0432
  710POPI   C1B11289   2.052  12.223   6.130 -0.1776  0.0696 -0.3686
  710POPI   C2B11290   2.097  12.117   6.482  0.2391  0.0490  0.0286
  710POPI   C3B11291   1.953  12.255   6.903 -0.0511  0.1168  0.3493
  710POPI   C4B11292   1.544  12.346   7.042  0.0720 -0.4006 -0.0581
  711POPI    C111293   0.204   5.790   4.944 -0.0924 -0.0081  0.1648
  711POPI    C211294  -0.173   5.912   4.889 -0.0145  0.2292  0.1479
  711POPI    C311295   0.057   5.828   4.573 -0.1034 -0.0769  0.1620
  711POPI   PO411296   0.316   6.029   5.126  0.1034  0.0981 -0.0878
  711POPI   GL111297   0.393   6.114   5.616  0.0045 -0.0059  0.0647
  711POPI   GL211298   0.327   5.839   5.583  0.1094  0.0432 -0.1913
  711POPI   C1A11299  -0.064   6.066   5.827  0.3245  0.1520 -0.0357
  711POPI   D2A11300  -0.276   5.984   6.113  0.0249 -0.2429  0.1500
  711POPI   C3A11301  -0.641   6.261   6.287 -0.0712 -0.1383 -0.2019
  711POPI   C4A11302  -0.941   6.225   6.490  0.2227  0.1136  0.2844
  711POPI   C1B11303   0.388   5.479   5.962  0.0364 -0.0732 -0.2499
  711POPI   C2B11304   0.421   5.311   6.350 -0.2280 -0.1158  0.0262
  711POPI   C3B11305   0.747   5.259   6.627 -0.0386  0.1359  0.0513
  711POPI   C4B11306   0.971   5.556   6.960 -0.0271 -0.3094 -0.1128
  712POPI    C111307   1.666   3.536   4.938  0.1855 -0.1004  0.0592
  712POPI    C211308   2.001   3.606   4.732  0.1483 -0.0729  0.0080
  712POPI    C311309   1.686   3.850   4.691  0.1343 -0.0782  0.0829
  712POPI   PO411310   1.784   3.319   5.108 -0.2813 -0.5621  0.2675
  712POPI   GL111311   1.823   3.279   5.460  0.0066 -0.2770  0.0402
  712POPI   GL211312   2.050   3.312   5.524 -0.1970  0.2488 -0.1710
  712POPI   C1A11313   1.818   3.351   6.031 -0.0046  0.1500  0.0736
  712POPI   D2A11314   1.691   3.322   6.435 -0.0118  0.0573  0.1017
  712POPI   C3A11315   1.897   3.516   6.792  0.2205  0.1245 -0.0945
  712POPI   C4A11316   1.816   3.407   7.204  0.2180  0.1561  0.1581
  712POPI   C1B11317   2.269   3.129   5.927  0.1761 -0.2337  0.4192
  712POPI   C2B11318   2.213   3.060   6.354 -0.0407 -0.2455 -0.1899
  712POPI   C3B11319   2.202   2.984   6.771  0.2733 -0.0466 -0.1759
  712POPI   C4B11320   2.143   2.672   7.003 -0.2156 -0.1745  0.0485
  713POPI    C111321  16.206   7.815   5.043  0.1857  0.0565  0.1088
  713POPI    C211322  16.312   8.126   4.816  0.0055  0.0213 -0.0261
  713POPI    C311323  16.576   7.964   5.069  0.1588  0.1615 -0.0942
  713POPI   PO411324  15.909   7.968   5.099  0.0227 -0.0389 -0.0251
  713POPI   GL111325  15.785   8.026   5.464  0.0006 -0.0366 -0.1338
  713POPI   GL211326  16.098   8.033   5.606 -0.0138 -0.0371  0.2029
  713POPI   C1A11327  15.591   8.032   5.779 -0.0628 -0.1895  0.2555
  713POPI   D2A11328  15.559   7.942   6.129 -0.2501 -0.0320 -0.0606
  713POPI   C3A11329  15.542   8.323   6.442  0.0128  0.0969 -0.1086
  713POPI   C4A11330  15.682   8.692   6.632  0.2481 -0.0020 -0.0016
  713POPI   C1B11331  16.121   7.753   5.842 -0.2200  0.0550 -0.0604
  713POPI   C2B11332  16.197   7.629   6.292 -0.2767  0.4637  0.2653
  713POPI   C3B11333  16.131   7.377   6.675  0.0003  0.1391 -0.0246
  713POPI   C4B11334  15.982   7.052   7.020 -0.2261 -0.0915  0.1769
  714POPI    C111335   7.459  14.881   4.567  0.0499 -0.0278 -0.0688
  714POPI    C211336   7.834  14.760   4.503  0.0918  0.0950 -0.0579
  714POPI    C311337   7.732  15.140   4.431 -0.0211  0.0715 -0.0236
  714POPI   PO411338   7.427  14.633   4.766 -0.1721 -0.2407 -0.0295
  714POPI   GL111339   7.471  14.691   5.209  0.2523 -0.0425 -0.0692
  714POPI   GL211340   7.190  14.555   5.356  0.2023  0.1724  0.1543
  714POPI   C1A11341   7.528  14.600   5.701  0.0255 -0.2085 -0.0407
  714POPI   D2A11342   7.607  14.761   6.042  0.5531 -0.1524 -0.0610
  714POPI   C3A11343   7.222  14.962   6.270  0.0058  0.0132  0.1708
  714POPI   C4A11344   7.228  15.239   6.669  0.3674  0.1207 -0.0729
  714POPI   C1B11345   7.317  14.163   5.625  0.1187  0.1027  0.4114
  714POPI   C2B11346   7.168  13.766   5.742 -0.1827  0.2158  0.1731
  714POPI   C3B11347   7.032  13.732   6.043  0.3403  0.3496  0.2037
  714POPI   C4B11348   7.105  13.871   6.437 -0.0204 -0.2519  0.0397
  715POPI    C111349  10.100  13.479   5.284  0.1439  0.1122  0.0784
  715POPI    C211350   9.877  13.362   4.973 -0.0039  0.0106  0.2209
  715POPI    C311351  10.263  13.452   4.919 -0.0653  0.1405 -0.0188
  715POPI   PO411352   9.818  13.499   5.467  0.0767 -0.1747  0.0562
  715POPI   GL111353   9.565  13.714   5.807 -0.1986 -0.0534 -0.0337
  715POPI   GL211354   9.894  13.845   5.862 -0.2952  0.0019 -0.1281
  715POPI   C1A11355   9.296  14.015   6.016  0.2066  0.1913  0.3057
  715POPI   D2A11356   9.019  14.266   5.904  0.0938 -0.0153  0.3700
  715POPI   C3A11357   8.856  14.576   6.167  0.2667 -0.0703 -0.0121
  715POPI   C4A11358   8.566  14.880   5.967  0.2066 -0.2523  0.2925
  715POPI   C1B11359   9.758  13.905   6.355 -0.1959  0.1296  0.1304
  715POPI   C2B11360   9.874  13.881   6.713  0.0629  0.0552 -0.3526
  715POPI   C3B11361   9.910  13.889   7.079  0.4622 -0.3203  0.3033
  715POPI   C4B11362   9.572  14.031   7.324  0.0538 -0.1694  0.4312
  716POPI    C111363  18.285  15.500   5.041  0.1893  0.3270  0.2278
  716POPI    C211364  17.897  15.486   5.138  0.1294 -0.0754 -0.0487
  716POPI    C311365  18.033  15.777   4.900 -0.0297 -0.0139 -0.0656
  716POPI   PO411366  18.384  15.452   5.281  0.1931 -0.0954 -0.1494
  716POPI   GL111367  18.146  15.246   5.603 -0.0502  0.1248  0.2345
  716POPI   GL211368  17.842  15.284   5.884  0.0403  0.0236 -0.1619
  716POPI   C1A11369  18.389  15.239   6.019  0.2952  0.0883  0.1186
  716POPI   D2A11370  18.407  15.053   6.324 -0.3287  0.0046 -0.1822
  716POPI   C3A11371  18.401  15.342   6.669  0.2917  0.0483 -0.0703
  716POPI   C4A11372  18.331  15.510   7.042  0.0894 -0.2048 -0.1291
  716POPI   C1B11373  18.115  15.581   6.222 -0.2776  0.1186 -0.1995
  716POPI   C2B11374  18.325  15.846   6.606  0.2955  0.0495 -0.1348
  716POPI   C3B11375  18.584  15.890   6.946  0.0374 -0.0744 -0.0085
  716POPI   C4B11376  18.693  15.789   7.411  0.2269 -0.0246  0.3033
  717POPI    C111377   7.739   8.549   4.595  0.0584 -0.0681  0.0154
  717POPI    C211378   7.374   8.660   4.474  0.0785 -0.0515 -0.0300
  717POPI    C311379   7.697   8.853   4.339  0.1146 -0.1760 -0.1232
  717POPI   PO411380   7.666   8.461   4.838 -0.0908  0.0955  0.0432
  717POPI   GL111381   7.904   8.362   5.221  0.1536 -0.1844 -0.2800
  717POPI   GL211382   7.798   8.069   5.188  0.1090  0.1545 -0.3686
  717POPI   C1A11383   7.795   8.534   5.588 -0.2790  0.2438  0.2488
  717POPI   D2A11384   7.866   8.553   6.070  0.2912  0.0273 -0.0894
  717POPI   C3A11385   8.192   8.699   6.190 -0.2357  0.2119 -0.0229
  717POPI   C4A11386   8.596   8.500   6.350 -0.0222  0.4686  0.0378
  717POPI   C1B11387   7.659   7.988   5.567 -0.1939  0.0667  0.0640
  717POPI   C2B11388   7.597   8.172   5.914  0.4774  0.1311  0.0487
  717POPI   C3B11389   7.936   8.052   6.274  0.2550  0.1806  0.2561
  717POPI   C4B11390   8.150   8.042   6.591 -0.2506  0.0429  0.2215
  718POPI    C111391   2.381   2.072   5.523  0.2621  0.0962  0.0268
  718POPI    C211392   2.268   2.016   5.143 -0.2332  0.0478  0.1743
  718POPI    C311393   2.038   1.882   5.442 -0.0123  0.3722  0.4975
  718POPI   PO411394   2.621   1.979   5.598  0.3241 -0.1145  0.2003
  718POPI   GL111395   2.674   2.044   5.940  0.0527  0.0221  0.1258
  718POPI   GL211396   2.485   2.375   5.959  0.0124  0.0530  0.3967
  718POPI   C1A11397   2.750   2.099   6.267 -0.0058 -0.1231 -0.0760
  718POPI   D2A11398   2.944   2.129   6.779  0.0124  0.0411  0.1403
  718POPI   C3A11399   2.996   2.340   7.253  0.1342 -0.1735 -0.0818
  718POPI   C4A11400   3.255   2.349   7.553 -0.0305  0.0536  0.0050
  718POPI   C1B11401   2.317   2.606   6.259  0.1725 -0.0311  0.2636
  718POPI   C2B11402   2.538   2.675   6.593 -0.1300  0.2597  0.4291
  718POPI   C3B11403   2.632   2.522   6.980  0.0668 -0.0287  0.2567
  718POPI   C4B11404   2.603   1.993   7.229 -0.1024  0.0571  0.0429
  719POPI    C111405  15.209  16.261   5.595 -0.1448  0.1704  0.0420
  719POPI    C211406  14.974  16.449   5.330 -0.1990 -0.0694 -0.0827
  719POPI    C311407  15.264  16.204   5.203 -0.0868 -0.0219  0.0773
  719POPI   PO411408  15.050  16.141   5.815  0.2286  0.2011  0.1176
  719POPI   GL111409  15.078  16.253   6.137  0.2371  0.0798  0.2107
  719POPI   GL211410  14.669  16.170   6.131 -0.2219  0.3671  0.1705
  719POPI   C1A11411  14.935  16.112   6.560 -0.1631  0.1306 -0.1744
  719POPI   D2A11412  15.020  15.882   6.944  0.0622 -0.5184  0.0889
  719POPI   C3A11413  15.123  16.110   7.230  0.1639 -0.0580 -0.2509
  719POPI   C4A11414  15.119  16.193   7.756  0.1664 -0.0262  0.0934
  719POPI   C1B11415  14.800  16.564   6.440  0.1686 -0.2406 -0.1091
  719POPI   C2B11416  14.753  16.444   6.877  0.1120  0.1535 -0.0593
  719POPI   C3B11417  14.715  16.386   7.366 -0.0042  0.0319 -0.0245
  719POPI   C4B11418  14.850  16.631   7.741 -0.3712 -0.3664  0.1573
  720POPI    C111419  11.982  14.075   4.872 -0.1422  0.1009  0.0800
  720POPI    C211420  12.161  14.304   4.598 -0.0892  0.0201  0.0467
  720POPI    C311421  11.786  14.384   4.711 -0.0123  0.2276  0.1623
  720POPI   PO411422  12.209  14.053   5.082 -0.2614 -0.0671 -0.0753
  720POPI   GL111423  12.103  14.129   5.455  0.6608  0.1963 -0.1716
  720POPI   GL211424  12.166  13.760   5.531  0.1355 -0.3485 -0.3378
  720POPI   C1A11425  12.328  14.214   5.800 -0.0180 -0.1091  0.0510
  720POPI   D2A11426  12.343  14.124   6.245 -0.2961  0.2686 -0.0362
  720POPI   C3A11427  12.491  14.413   6.500 -0.1812 -0.1596 -0.2334
  720POPI   C4A11428  12.870  14.611   6.380 -0.0114  0.0808 -0.0665
  720POPI   C1B11429  11.886  13.865   5.818  0.1888 -0.0076  0.2041
  720POPI   C2B11430  11.834  13.780   6.182 -0.1576 -0.0094 -0.0248
  720POPI   C3B11431  11.981  13.782   6.541  0.1483 -0.2735  0.0377
  720POPI   C4B11432  11.882  13.683   6.957  0.0066 -0.1542  0.0224
  721POPI    C111433   4.885   5.947   5.301  0.0447  0.1675  0.2735
  721POPI    C211434   4.765   6.266   5.092  0.0928  0.0660  0.0880
  721POPI    C311435   4.643   5.900   4.986  0.3676 -0.0157  0.0456
  721POPI   PO411436   4.824   5.998   5.532  0.0041 -0.1650  0.0526
  721POPI   GL111437   4.995   5.898   5.782 -0.1859  0.0946  0.2584
  721POPI   GL211438   4.910   5.601   5.883 -0.2276  0.0037 -0.3356
  721POPI   C1A11439   5.037   6.298   6.055  0.1479  0.2182 -0.1418
  721POPI   D2A11440   5.176   6.352   6.418  0.0801 -0.1794  0.1818
  721POPI   C3A11441   4.977   6.718   6.663 -0.1560 -0.2466  0.0808
  721POPI   C4A11442   4.891   7.175   6.685  0.2928 -0.0208 -0.0148
  721POPI   C1B11443   4.882   5.387   6.302 -0.0068 -0.0325  0.2876
  721POPI   C2B11444   5.001   5.526   6.696 -0.3250 -0.0435  0.2016
  721POPI   C3B11445   5.336   5.707   6.899  0.1453  0.1838  0.2232
  721POPI   C4B11446   5.544   6.027   6.961  0.4308  0.0357 -0.2611
  722POPI    C111447   9.050  13.088   5.359 -0.0850 -0.0721 -0.1724
  722POPI    C211448   8.772  12.871   5.172  0.0167  0.0094 -0.4220
  722POPI    C311449   8.756  13.270   5.158 -0.1957  0.0256  0.0730
  722POPI   PO411450   9.286  12.923   5.317 -0.0567  0.0831  0.3314
  722POPI   GL111451   9.352  12.733   5.690  0.1411  0.2440 -0.2283
  722POPI   GL211452   8.959  12.654   5.769  0.1884 -0.0886 -0.0278
  722POPI   C1A11453   9.414  12.523   5.961 -0.1519  0.0224 -0.3345
  722POPI   D2A11454   9.742  12.401   6.357  0.2867  0.1680 -0.1550
  722POPI   C3A11455   9.587  12.319   6.757  0.0061 -0.0303 -0.2639
  722POPI   C4A11456   9.795  11.971   7.063  0.1179 -0.2253  0.0586
  722POPI   C1B11457   9.026  12.867   6.124  0.1751 -0.1184  0.3908
  722POPI   C2B11458   9.065  13.118   6.430 -0.2039  0.0290  0.0098
  722POPI   C3B11459   8.815  13.355   6.570 -0.1407 -0.1380 -0.0990
  722POPI   C4B11460   8.367  13.240   6.623  0.1506  0.2768 -0.2613
  723POPI    C111461  13.761  12.095   4.722 -0.1048  0.0288  0.0262
  723POPI    C211462  13.657  11.712   4.774 -0.1201 -0.0075 -0.2572
  723POPI    C311463  14.031  11.805   4.668 -0.0083  0.0852  0.1999
  723POPI   PO411464  13.708  12.176   4.947 -0.1317  0.0075  0.2263
  723POPI   GL111465  13.591  12.161   5.459 -0.0055 -0.3634  0.0359
  723POPI   GL211466  13.218  12.239   5.361 -0.2431  0.1678 -0.1542
  723POPI   C1A11467  13.670  12.042   5.795 -0.3854 -0.3945 -0.1363
  723POPI   D2A11468  13.701  11.952   6.283  0.2766  0.0000  0.2727
  723POPI   C3A11469  13.915  11.888   6.655 -0.1750  0.1645 -0.1583
  723POPI   C4A11470  13.723  11.694   6.993  0.1843 -0.2808 -0.0908
  723POPI   C1B11471  13.275  12.422   5.802  0.0670  0.0138  0.1011
  723POPI   C2B11472  13.530  12.430   6.155  0.2537  0.3759  0.0232
  723POPI   C3B11473  13.650  12.506   6.570  0.1352 -0.2027 -0.0606
  723POPI   C4B11474  13.767  12.687   7.004  0.0649 -0.2844  0.1243
  724POPI    C111475  18.122  13.677   4.648  0.0716 -0.1239 -0.0270
  724POPI    C211476  18.501  13.778   4.570 -0.0089 -0.0593 -0.3479
  724POPI    C311477  18.297  13.551   4.311 -0.1631 -0.1666 -0.1353
  724POPI   PO411478  18.129  13.653   5.002  0.0775  0.1493  0.2443
  724POPI   GL111479  18.031  13.953   5.422  0.0606  0.2266 -0.0371
  724POPI   GL211480  18.375  14.020   5.586  0.1097  0.0119 -0.0546
  724POPI   C1A11481  18.062  13.627   5.775 -0.0642  0.2180 -0.1124
  724POPI   D2A11482  17.882  13.475   6.049  0.0952  0.0657  0.1447
  724POPI   C3A11483  17.521  13.592   6.346 -0.0193 -0.0130 -0.1032
  724POPI   C4A11484  17.282  13.494   6.666 -0.0927  0.0073 -0.2193
  724POPI   C1B11485  18.348  14.008   6.037 -0.2186  0.0001 -0.2755
  724POPI   C2B11486  18.101  13.821   6.462 -0.3741 -0.2328  0.2954
  724POPI   C3B11487  17.888  13.481   6.643  0.1982  0.2370  0.2002
  724POPI   C4B11488  17.667  13.197   6.907  0.3542 -0.0784  0.0115
  725POPI    C111489   5.054  13.865   4.776  0.2074  0.0276 -0.1823
  725POPI    C211490   4.709  14.035   4.667  0.1101 -0.0616 -0.0187
  725POPI    C311491   4.730  13.638   4.712  0.2175 -0.0501  0.0345
  725POPI   PO411492   5.083  14.011   4.977  0.2929 -0.4352 -0.2657
  725POPI   GL111493   4.857  14.072   5.456 -0.3867 -0.1731 -0.2480
  725POPI   GL211494   4.645  14.160   5.616 -0.1612 -0.1134 -0.1417
  725POPI   C1A11495   5.054  13.676   5.724  0.0512 -0.2500  0.0751
  725POPI   D2A11496   5.100  13.816   6.200 -0.1280 -0.0150 -0.1466
  725POPI   C3A11497   5.278  13.578   6.584  0.2784 -0.0275  0.1642
  725POPI   C4A11498   5.511  13.357   6.983 -0.0105  0.1004  0.0487
  725POPI   C1B11499   4.744  14.053   5.956  0.3035 -0.3270 -0.1631
  725POPI   C2B11500   4.685  14.012   6.364  0.2438  0.2095  0.4598
  725POPI   C3B11501   4.951  13.952   6.756  0.0593 -0.4406 -0.1586
  725POPI   C4B11502   5.256  13.819   7.028  0.0771 -0.0858 -0.0035
  726POPI    C111503   2.820   1.158   4.998 -0.1055  0.2303 -0.1020
  726POPI    C211504   2.420   1.176   4.994 -0.1200 -0.0651 -0.2628
  726POPI    C311505   2.625   1.189   4.650  0.0212  0.2684 -0.1703
  726POPI   PO411506   2.860   1.153   5.321  0.0144  0.3663  0.0966
  726POPI   GL111507   2.798   1.162   5.789 -0.1047  0.0320  0.2476
  726POPI   GL211508   2.629   1.476   5.795 -0.2567 -0.2818 -0.1364
  726POPI   C1A11509   2.597   1.134   6.174 -0.1076  0.2681  0.2693
  726POPI   D2A11510   2.521   1.291   6.638 -0.2075  0.0283  0.2300
  726POPI   C3A11511   2.791   1.223   6.906 -0.0605 -0.1234  0.0007
  726POPI   C4A11512   2.819   0.872   7.136 -0.0944  0.1302 -0.0901
  726POPI   C1B11513   2.744   1.595   6.207  0.1046  0.1273  0.2279
  726POPI   C2B11514   2.912   1.631   6.522  0.2819 -0.0044 -0.2376
  726POPI   C3B11515   2.593   1.746   6.783  0.0834  0.1366  0.0814
  726POPI   C4B11516   2.386   1.494   7.102  0.1922  0.0566  0.0324
  727POPI    C111517   0.461   9.952   5.531  0.0643 -0.0448  0.2209
  727POPI    C211518   0.674   9.940   5.192 -0.1292 -0.0596  0.0985
  727POPI    C311519   0.853  10.030   5.538  0.0429  0.0964 -0.0299
  727POPI   PO411520   0.291   9.673   5.453 -0.0517  0.3811  0.4207
  727POPI   GL111521   0.310   9.234   5.637 -0.0902  0.0423 -0.3363
  727POPI   GL211522   0.179   9.484   5.925 -0.2591  0.2118  0.2191
  727POPI   C1A11523   0.366   8.963   5.964  0.3290  0.3612  0.1404
  727POPI   D2A11524   0.199   8.688   6.208 -0.0480  0.1018  0.1943
  727POPI   C3A11525   0.161   8.774   6.699 -0.2360 -0.0140 -0.1397
  727POPI   C4A11526   0.461   8.840   6.946  0.0586 -0.1953 -0.3258
  727POPI   C1B11527   0.210   9.676   6.329  0.3202 -0.2477 -0.0693
  727POPI   C2B11528   0.457   9.682   6.596  0.0237  0.1691  0.2557
  727POPI   C3B11529   0.462   9.836   6.960 -0.2681  0.0782  0.0080
  727POPI   C4B11530   0.864   9.975   7.226  0.1762  0.3207 -0.1497
  728POPI    C111531   2.229  10.759   4.987  0.3775 -0.0325  0.1663
  728POPI    C211532   1.987  10.453   4.898  0.2096  0.2127 -0.2498
  728POPI    C311533   2.382  10.394   4.931  0.1598 -0.0793 -0.1454
  728POPI   PO411534   2.071  10.941   5.152 -0.0608 -0.1506 -0.0596
  728POPI   GL111535   1.883  10.926   5.600  0.3950  0.1057  0.2340
  728POPI   GL211536   2.161  11.278   5.827 -0.2998 -0.1577 -0.0841
  728POPI   C1A11537   1.813  10.787   6.107 -0.0010 -0.0645 -0.1046
  728POPI   D2A11538   1.937  10.796   6.560 -0.0514  0.0279  0.0878
  728POPI   C3A11539   2.050  11.163   6.784  0.2267 -0.1062  0.1236
  728POPI   C4A11540   1.981  11.309   7.297 -0.0596 -0.1026 -0.2727
  728POPI   C1B11541   2.038  11.683   5.999 -0.1574  0.0772  0.1849
  728POPI   C2B11542   1.847  11.751   6.254 -0.0680 -0.1790 -0.1938
  728POPI   C3B11543   1.714  11.520   6.618  0.0504 -0.1763  0.2499
  728POPI   C4B11544   1.544  11.478   7.112 -0.1103 -0.0317  0.2468
  729POPI    C111545   1.677   0.140   5.410 -0.1814 -0.1111  0.1823
  729POPI    C211546   1.470   0.483   5.406  0.0720  0.0441 -0.0366
  729POPI    C311547   1.325   0.159   5.221 -0.1750  0.0260  0.1831
  729POPI   PO411548   1.767   0.112   5.604 -0.1900  0.0015  0.3685
  729POPI   GL111549   2.100   0.266   5.938  0.0586 -0.2828 -0.2723
  729POPI   GL211550   2.135   0.344   6.215  0.0774  0.1205 -0.3494
  729POPI   C1A11551   1.803  -0.097   6.169 -0.2818  0.1165 -0.1096
  729POPI   D2A11552   1.502  -0.207   6.280  0.0860  0.2486 -0.0169
  729POPI   C3A11553   1.370  -0.303   6.660  0.0392  0.0241  0.4350
  729POPI   C4A11554   1.476  -0.599   7.010 -0.2285  0.4895  0.2852
  729POPI   C1B11555   2.220   0.429   6.663 -0.0939 -0.0272  0.1693
  729POPI   C2B11556   2.108   0.400   7.006  0.1803 -0.1570 -0.0018
  729POPI   C3B11557   1.663   0.353   7.130 -0.3642 -0.1441 -0.4011
  729POPI   C4B11558   1.417   0.143   7.195 -0.0332 -0.2938 -0.0796
  730POPI    C111559  15.848  12.217   4.888  0.1221 -0.0245  0.2481
  730POPI    C211560  15.957  12.579   4.758 -0.0822  0.0422  0.2600
  730POPI    C311561  16.016  12.258   4.527 -0.0841  0.1095  0.1656
  730POPI   PO411562  15.932  12.266   5.156  0.0767  0.1155 -0.2489
  730POPI   GL111563  15.708  12.428   5.626  0.0990 -0.0396  0.1288
  730POPI   GL211564  15.749  12.701   5.859  0.0254 -0.1161  0.0227
  730POPI   C1A11565  15.752  12.075   5.955  0.0063 -0.1777 -0.1315
  730POPI   D2A11566  15.995  12.020   6.356  0.0456  0.1703 -0.3213
  730POPI   C3A11567  16.415  12.225   6.600  0.0253 -0.0855  0.1286
  730POPI   C4A11568  16.478  12.161   6.979  0.0561 -0.2683 -0.2981
  730POPI   C1B11569  16.122  12.441   6.064  0.0761  0.1387  0.3564
  730POPI   C2B11570  16.528  12.478   6.018  0.1828  0.0327 -0.1430
  730POPI   C3B11571  16.860  12.366   6.314  0.2833  0.0892  0.1280
  730POPI   C4B11572  16.924  12.520   6.797 -0.0654 -0.1473 -0.1653
  731POPI    C111573   9.948  16.596   5.122 -0.0736  0.0085  0.4173
  731POPI    C211574  10.094  16.946   4.995 -0.4096  0.0282  0.0681
  731POPI    C311575  10.201  16.606   4.812 -0.2716 -0.0294  0.2526
  731POPI   PO411576  10.005  16.723   5.479 -0.1511  0.2615 -0.0899
  731POPI   GL111577  10.130  16.468   5.756  0.1434  0.0521 -0.1383
  731POPI   GL211578   9.897  16.558   5.952 -0.2311  0.1129 -0.1748
  731POPI   C1A11579  10.343  16.735   6.119 -0.1983  0.0846 -0.3419
  731POPI   D2A11580  10.290  16.850   6.492 -0.0736 -0.0467  0.0902
  731POPI   C3A11581  10.338  16.723   6.874 -0.1627 -0.0899 -0.3897
  731POPI   C4A11582  10.331  16.572   7.250  0.1503 -0.1594  0.1169
  731POPI   C1B11583  10.042  16.327   6.214  0.3418  0.2389 -0.3705
  731POPI   C2B11584  10.070  16.346   6.615  0.1466 -0.1490 -0.0323
  731POPI   C3B11585   9.998  16.253   7.102  0.1340  0.0378  0.0626
  731POPI   C4B11586   9.867  16.118   7.479 -0.1980 -0.3394  0.0762
  732POPI    C111587  16.864  13.685   4.797 -0.1040  0.2866  0.3234
  732POPI    C211588  16.725  14.048   4.702 -0.2391  0.1420 -0.0505
  732POPI    C311589  16.583  13.724   4.515 -0.2949 -0.1310  0.4479
  732POPI   PO411590  16.893  13.682   5.016 -0.1558  0.2689 -0.3298
  732POPI   GL111591  16.783  13.694   5.460  0.4889 -0.2762 -0.2465
  732POPI   GL211592  16.965  13.903   5.537 -0.2692  0.1099 -0.1602
  732POPI   C1A11593  16.733  13.925   5.946  0.2755 -0.3503  0.3029
  732POPI   D2A11594  16.617  13.990   6.433 -0.0856  0.1757 -0.0242
  732POPI   C3A11595  16.663  13.602   6.629  0.2383 -0.3926  0.0082
  732POPI   C4A11596  16.793  13.266   6.841 -0.4133 -0.0219  0.3430
  732POPI   C1B11597  17.178  13.820   5.901  0.1897  0.2436 -0.0966
  732POPI   C2B11598  17.063  13.841   6.397  0.1951  0.1534 -0.2214
  732POPI   C3B11599  16.968  13.941   6.910  0.3346 -0.0553 -0.3714
  732POPI   C4B11600  16.836  13.982   7.385  0.0762  0.4469  0.0066
  733POPI    C111601  12.210  17.442   6.181 -0.2278 -0.0005  0.2092
  733POPI    C211602  12.301  17.658   5.856 -0.2105 -0.1422  0.1191
  733POPI    C311603  11.960  17.727   6.053 -0.1009  0.1181  0.2224
  733POPI   PO411604  12.256  17.217   6.073 -0.0018  0.0734 -0.0657
  733POPI   GL111605  12.308  16.928   6.336 -0.1240 -0.2967 -0.1222
  733POPI   GL211606  12.059  16.643   6.276 -0.0239  0.0637  0.0932
  733POPI   C1A11607  12.470  16.850   6.745  0.0112 -0.0537  0.0974
  733POPI   D2A11608  12.374  16.495   6.996 -0.1411  0.0175  0.0900
  733POPI   C3A11609  12.541  16.191   7.305 -0.0988 -0.1305  0.1509
  733POPI   C4A11610  12.960  16.078   7.326  0.3574  0.0882  0.1906
  733POPI   C1B11611  12.007  16.492   6.707  0.1417  0.0059  0.0402
  733POPI   C2B11612  11.976  16.315   7.206  0.2236 -0.1269 -0.1472
  733POPI   C3B11613  12.113  16.161   7.561 -0.1708  0.1426  0.0236
  733POPI   C4B11614  12.186  16.045   7.964  0.1076  0.0333  0.1868
  734POPI    C111615  13.118   3.390   5.204  0.0273  0.3691 -0.1677
  734POPI    C211616  13.160   3.001   5.125  0.0681  0.3004  0.1762
  734POPI    C311617  12.976   3.240   4.862 -0.1390  0.0111  0.0528
  734POPI   PO411618  13.019   3.345   5.544 -0.2630  0.2003  0.0636
  734POPI   GL111619  12.646   3.133   5.732 -0.0716  0.0738 -0.1226
  734POPI   GL211620  12.338   2.972   5.758  0.0614 -0.2187  0.0022
  734POPI   C1A11621  12.362   3.427   6.066 -0.2010 -0.1979  0.0087
  734POPI   D2A11622  12.126   3.365   6.368 -0.0412 -0.0178 -0.2366
  734POPI   C3A11623  11.801   3.682   6.480  0.0307 -0.1158  0.0413
  734POPI   C4A11624  11.892   4.076   6.527 -0.1679 -0.0265  0.1850
  734POPI   C1B11625  12.572   2.995   6.179 -0.0694 -0.3444  0.1162
  734POPI   C2B11626  12.942   2.911   6.373  0.1773  0.1746 -0.0999
  734POPI   C3B11627  13.214   3.155   6.541  0.0997  0.0990  0.2314
  734POPI   C4B11628  13.205   3.325   6.931  0.1784 -0.5861  0.1301
  735POPI    C111629   9.852   5.108   4.862  0.0995  0.0993 -0.1467
  735POPI    C211630  10.068   5.176   4.532  0.0619  0.1044 -0.1703
  735POPI    C311631   9.780   5.432   4.639  0.1923  0.1969 -0.0365
  735POPI   PO411632  10.103   5.071   5.159  0.1016  0.1240  0.0739
  735POPI   GL111633  10.332   5.322   5.469 -0.1001 -0.0044 -0.1773
  735POPI   GL211634  10.562   5.309   5.727  0.0625  0.0500  0.0255
  735POPI   C1A11635  10.072   5.320   5.833  0.1419 -0.3462 -0.1365
  735POPI   D2A11636   9.874   5.389   6.277 -0.0987  0.0160 -0.1709
  735POPI   C3A11637   9.741   5.383   6.594 -0.0703  0.4859  0.0017
  735POPI   C4A11638   9.730   5.239   6.999 -0.0844  0.3290  0.0380
  735POPI   C1B11639  10.483   5.380   6.152 -0.0578  0.2481  0.0918
  735POPI   C2B11640  10.334   5.413   6.537 -0.1541  0.2094 -0.1680
  735POPI   C3B11641  10.099   5.557   6.983 -0.0117  0.0180 -0.0125
  735POPI   C4B11642   9.663   5.776   7.142 -0.0171  0.3225  0.1632
  736POPI    C111643  10.261  10.002   4.898 -0.0353  0.0080 -0.0167
  736POPI    C211644  10.086   9.786   4.610  0.1518 -0.1673 -0.0008
  736POPI    C311645  10.225  10.152   4.529 -0.0944 -0.0826 -0.0480
  736POPI   PO411646  10.366   9.767   5.042 -0.2219 -0.0279 -0.0969
  736POPI   GL111647  10.689   9.765   5.417 -0.0141  0.0359  0.4124
  736POPI   GL211648  10.507   9.460   5.503  0.1873  0.1747  0.0561
  736POPI   C1A11649  10.429   9.899   5.711 -0.0678 -0.0643  0.1724
  736POPI   D2A11650   9.984   9.930   5.872 -0.0396  0.0749  0.0716
  736POPI   C3A11651   9.997   9.842   6.269 -0.4228 -0.4064  0.0296
  736POPI   C4A11652   9.739   9.686   6.530  0.0704 -0.0170 -0.1951
  736POPI   C1B11653  10.326   9.480   5.960 -0.2426 -0.0301 -0.0096
  736POPI   C2B11654  10.165   9.394   6.345  0.0785  0.0941 -0.1370
  736POPI   C3B11655  10.227   9.290   6.710 -0.0164 -0.1332 -0.0297
  736POPI   C4B11656  10.223   9.289   7.249  0.2476  0.1573 -0.1842
  737POPI    C111657   9.993  10.392   4.993  0.0272  0.0186 -0.1503
  737POPI    C211658   9.602  10.465   4.953 -0.0111  0.0341  0.2239
  737POPI    C311659   9.734  10.088   4.980  0.0307  0.0167 -0.1761
  737POPI   PO411660  10.102  10.579   5.126  0.1169  0.2080  0.0585
  737POPI   GL111661  10.208  10.758   5.533 -0.0942 -0.3375  0.0952
  737POPI   GL211662  10.377  10.438   5.607  0.0746 -0.0356 -0.0428
  737POPI   C1A11663  10.348  10.867   5.900  0.2806  0.2027  0.1517
  737POPI   D2A11664  10.507  10.746   6.324  0.0303  0.0657 -0.0438
  737POPI   C3A11665  10.141  10.575   6.661  0.3598 -0.1854 -0.1482
  737POPI   C4A11666   9.901  10.196   6.714 -0.1526  0.1216  0.0340
  737POPI   C1B11667  10.313  10.373   6.083  0.0525  0.0142 -0.2732
  737POPI   C2B11668  10.566  10.276   6.573  0.1182  0.1090 -0.2888
  737POPI   C3B11669  10.611  10.140   6.991  0.0875 -0.2094  0.0623
  737POPI   C4B11670  10.457   9.772   7.278 -0.1799 -0.1135 -0.0402
  738POPI    C111671   5.467   9.615   4.999  0.0605  0.0875  0.3995
  738POPI    C211672   5.309   9.945   4.838  0.0751 -0.1326 -0.0847
  738POPI    C311673   5.087   9.614   4.873  0.1607 -0.1733  0.0857
  738POPI   PO411674   5.667   9.652   5.226  0.3377 -0.1812 -0.3204
  738POPI   GL111675   5.644   9.754   5.703 -0.3771  0.0384 -0.2149
  738POPI   GL211676   5.427   9.955   5.697  0.1388 -0.0789 -0.3424
  738POPI   C1A11677   5.659   9.721   6.097  0.1139 -0.0061 -0.2195
  738POPI   D2A11678   5.473   9.877   6.474 -0.0008 -0.2333  0.0523
  738POPI   C3A11679   5.430  10.305   6.558 -0.1071 -0.1826 -0.1372
  738POPI   C4A11680   5.143  10.620   6.708  0.0567 -0.2470  0.1410
  738POPI   C1B11681   5.196  10.156   6.003 -0.0727  0.2830 -0.0976
  738POPI   C2B11682   5.213  10.554   6.158 -0.0666 -0.0914  0.1204
  738POPI   C3B11683   5.459  10.839   6.319 -0.1077  0.0128 -0.0925
  738POPI   C4B11684   5.553  10.795   6.741 -0.2930 -0.2660  0.1207
  739POPI    C111685   9.684  18.943   5.650 -0.0779 -0.0896  0.0603
  739POPI    C211686   9.868  18.767   5.958  0.2215 -0.0052 -0.0671
  739POPI    C311687   9.947  18.649   5.584  0.1863  0.1848 -0.1356
  739POPI   PO411688   9.427  19.002   5.796 -0.0520 -0.0995 -0.2724
  739POPI   GL111689   9.306  19.243   6.027  0.0612  0.0941 -0.0249
  739POPI   GL211690   9.022  19.410   5.983  0.2470 -0.2062 -0.0630
  739POPI   C1A11691   9.331  19.137   6.422  0.2886  0.1366  0.1908
  739POPI   D2A11692   9.127  19.217   6.771 -0.1540 -0.1208 -0.2534
  739POPI   C3A11693   9.227  19.292   7.142 -0.1701 -0.0917 -0.2086
  739POPI   C4A11694   9.163  18.967   7.455  0.0331  0.1614 -0.0086
  739POPI   C1B11695   8.940  19.460   6.375 -0.1629 -0.2295 -0.0753
  739POPI   C2B11696   8.723  19.565   6.798 -0.0264 -0.0689 -0.3146
  739POPI   C3B11697   8.776  19.920   7.117 -0.0295  0.3683 -0.2963
  739POPI   C4B11698   8.804  20.163   7.479 -0.2175  0.1767  0.1304
  740POPI    C111699  16.355   1.075   5.330  0.1113  0.1466  0.1700
  740POPI    C211700  16.017   1.171   5.137  0.1287  0.1589  0.1455
  740POPI    C311701  16.222   0.844   5.031  0.1136  0.1401  0.1741
  740POPI   PO411702  16.386   1.266   5.530 -0.0615 -0.0679  0.0757
  740POPI   GL111703  16.450   1.155   5.956 -0.0033 -0.2319 -0.0146
  740POPI   GL211704  16.336   1.535   5.911 -0.4316  0.0872  0.0397
  740POPI   C1A11705  16.652   1.467   6.317  0.0389  0.0949  0.3242
  740POPI   D2A11706  17.055   1.783   6.251 -0.0955 -0.0835 -0.1844
  740POPI   C3A11707  16.917   2.232   6.442  0.1098  0.2232  0.0235
  740POPI   C4A11708  16.882   2.554   6.718 -0.2219 -0.2367  0.0768
  740POPI   C1B11709  16.374   1.897   6.235 -0.1042  0.0017  0.0451
  740POPI   C2B11710  16.567   1.837   6.641 -0.0227 -0.2528  0.1910
  740POPI   C3B11711  16.951   1.714   6.786 -0.4115 -0.2256  0.1038
  740POPI   C4B11712  16.945   1.473   7.193 -0.2771 -0.1948  0.0973
  741POPI    C111713   6.916  17.780   4.883 -0.0333  0.1489  0.0163
  741POPI    C211714   6.723  17.981   4.596 -0.0771 -0.0877 -0.1231
  741POPI    C311715   6.597  17.617   4.704  0.1315 -0.1329 -0.0276
  741POPI   PO411716   6.914  18.000   5.078  0.1048 -0.1236  0.0301
  741POPI   GL111717   6.703  18.040   5.473  0.2120  0.0922 -0.1438
  741POPI   GL211718   6.557  18.288   5.629 -0.0320 -0.3398  0.0938
  741POPI   C1A11719   6.530  17.789   5.833  0.2476 -0.0496  0.0677
  741POPI   D2A11720   6.423  17.529   6.154  0.0857 -0.1718  0.0058
  741POPI   C3A11721   6.671  17.253   6.307 -0.1814 -0.1292  0.2370
  741POPI   C4A11722   6.584  16.982   6.596 -0.4101  0.0166 -0.0196
  741POPI   C1B11723   6.609  18.247   5.926 -0.0070  0.3652  0.2757
  741POPI   C2B11724   6.360  18.035   6.347 -0.0204 -0.1550  0.0153
  741POPI   C3B11725   6.236  17.638   6.646 -0.0603 -0.0012  0.0751
  741POPI   C4B11726   6.401  17.511   6.925 -0.0390  0.1127 -0.2189
  742POPI    C111727   7.445  10.507   4.924  0.0540 -0.0447 -0.1006
  742POPI    C211728   7.179  10.280   5.118  0.1253  0.0154  0.0693
  742POPI    C311729   7.210  10.256   4.720 -0.0983 -0.0291  0.0534
  742POPI   PO411730   7.424  10.696   5.144  0.0998 -0.0658 -0.0769
  742POPI   GL111731   7.405  10.721   5.549 -0.3986  0.3548 -0.1783
  742POPI   GL211732   7.161  10.911   5.759  0.4380  0.1717 -0.2309
  742POPI   C1A11733   7.661  10.454   5.867  0.2313 -0.0403 -0.3261
  742POPI   D2A11734   7.995  10.514   6.193  0.1133  0.0896 -0.3409
  742POPI   C3A11735   7.953  10.165   6.559  0.0059 -0.2253 -0.2017
  742POPI   C4A11736   8.051   9.851   6.911 -0.6032  0.2552 -0.1431
  742POPI   C1B11737   7.416  10.893   6.080 -0.1023  0.4968  0.0053
  742POPI   C2B11738   7.664  10.676   6.453  0.3840 -0.3007 -0.3203
  742POPI   C3B11739   7.558  10.835   6.978  0.4369  0.3463  0.3308
  742POPI   C4B11740   7.731  11.108   7.239  0.0071  0.0111  0.1510
  743POPI    C111741  11.216  12.854   5.201  0.0030  0.2458  0.1595
  743POPI    C211742  11.343  12.884   4.823 -0.0633 -0.4079  0.0745
  743POPI    C311743  11.073  13.143   4.964  0.2182  0.0554 -0.2111
  743POPI   PO411744  11.154  12.535   5.324 -0.1048 -0.1151 -0.0585
  743POPI   GL111745  11.206  12.468   5.786 -0.0594 -0.1430 -0.2716
  743POPI   GL211746  11.553  12.405   5.645 -0.1735 -0.0222  0.2639
  743POPI   C1A11747  11.111  12.595   6.153  0.0184 -0.0371 -0.3825
  743POPI   D2A11748  10.748  12.936   6.215 -0.3583  0.3405 -0.0405
  743POPI   C3A11749  11.036  13.339   6.026 -0.1939  0.2254 -0.1165
  743POPI   C4A11750  10.954  13.770   5.966  0.0885 -0.2631  0.0765
  743POPI   C1B11751  11.647  12.178   6.099  0.0597 -0.0439  0.0870
  743POPI   C2B11752  11.894  11.895   6.369 -0.1770 -0.0002  0.0657
  743POPI   C3B11753  12.128  11.766   6.778 -0.2810 -0.2393 -0.1955
  743POPI   C4B11754  12.371  11.986   6.970 -0.0396  0.1537 -0.0875
  744POPS   CNO11755   4.028   4.269   5.213  0.1674  0.1718 -0.0946
  744POPS   PO411756   3.966   4.653   5.467 -0.1201 -0.0785 -0.0826
  744POPS   GL111757   4.090   4.708   5.943 -0.0978 -0.0093  0.1900
  744POPS   GL211758   4.522   4.806   5.919  0.1851 -0.1983 -0.1989
  744POPS   C1A11759   4.164   4.634   6.345  0.1764 -0.0476 -0.0555
  744POPS   D2A11760   4.298   4.788   6.750 -0.1891  0.0551  0.2105
  744POPS   C3A11761   4.629   4.639   6.966  0.0312  0.1838  0.1678
  744POPS   C4A11762   4.749   4.592   7.287 -0.1937 -0.0331  0.1106
  744POPS   C1B11763   4.647   4.931   6.340  0.2440  0.2427 -0.0340
  744POPS   C2B11764   4.880   4.987   6.734  0.1127 -0.0208 -0.1643
  744POPS   C3B11765   4.897   5.097   7.139 -0.0037  0.0102  0.2310
  744POPS   C4B11766   5.054   5.345   7.517  0.2091 -0.1394  0.3367
  745POPS   CNO11767   7.777   4.931   4.692  0.0674  0.0397 -0.2571
  745POPS   PO411768   7.433   4.829   4.905  0.1594  0.0589 -0.0876
  745POPS   GL111769   7.655   5.000   5.351  0.1067  0.2592  0.0752
  745POPS   GL211770   7.655   5.227   5.497 -0.0225  0.1758  0.0164
  745POPS   C1A11771   7.858   4.871   5.682  0.2739  0.0111 -0.1635
  745POPS   D2A11772   8.333   4.756   5.774 -0.2718 -0.0674 -0.0098
  745POPS   C3A11773   8.478   4.632   6.200  0.4483 -0.3774 -0.1191
  745POPS   C4A11774   8.454   4.500   6.621  0.3159 -0.0669 -0.0766
  745POPS   C1B11775   7.555   5.399   5.929  0.3186  0.2259 -0.0083
  745POPS   C2B11776   7.579   5.391   6.305 -0.2113 -0.2749  0.0935
  745POPS   C3B11777   7.857   5.317   6.717 -0.0767 -0.2034  0.3470
  745POPS   C4B11778   7.865   4.990   7.050 -0.1435  0.2523 -0.1149
  746POPS   CNO11779  17.193  16.555   5.669  0.1305  0.2970 -0.1458
  746POPS   PO411780  16.720  16.535   5.598  0.4120 -0.1404 -0.0309
  746POPS   GL111781  16.744  16.679   6.038  0.0594  0.2200  0.2310
  746POPS   GL211782  16.479  16.555   6.101 -0.1594  0.0162  0.0083
  746POPS   C1A11783  16.757  16.923   6.395 -0.0111  0.1929  0.1448
  746POPS   D2A11784  16.877  17.066   6.836  0.1191  0.3955 -0.1559
  746POPS   C3A11785  16.760  17.144   7.151 -0.1580  0.0855 -0.4588
  746POPS   C4A11786  16.895  17.125   7.583  0.0944 -0.0188 -0.1183
  746POPS   C1B11787  16.394  16.657   6.571 -0.2086  0.2127 -0.2753
  746POPS   C2B11788  16.703  16.538   6.895 -0.1156  0.0647 -0.3881
  746POPS   C3B11789  16.987  16.660   7.196 -0.0163 -0.0970 -0.3455
  746POPS   C4B11790  17.422  16.577   7.197  0.0785 -0.0016 -0.1406
  747POPS   CNO11791  17.042   9.706   5.546 -0.4190  0.0201  0.1859
  747POPS   PO411792  17.233  10.113   5.441 -0.1444  0.0871  0.0431
  747POPS   GL111793  17.553  10.352   5.655  0.0806  0.0335  0.3085
  747POPS   GL211794  17.486  10.697   5.681 -0.2721 -0.2154 -0.3468
  747POPS   C1A11795  17.751  10.306   6.005  0.0028 -0.0153 -0.2644
  747POPS   D2A11796  17.537  10.029   6.361  0.1230 -0.3942  0.0017
  747POPS   C3A11797  17.697   9.673   6.556 -0.0796 -0.0584  0.2194
  747POPS   C4A11798  17.738   9.475   6.895  0.0951 -0.0423 -0.3414
  747POPS   C1B11799  17.257  10.546   6.049 -0.1000  0.0672 -0.0244
  747POPS   C2B11800  17.276  10.476   6.477 -0.1781 -0.1196  0.2145
  747POPS   C3B11801  17.554  10.554   6.817 -0.0049 -0.1654 -0.1611
  747POPS   C4B11802  17.494  10.362   7.245 -0.1307 -0.1111 -0.1798
  748POPS   CNO11803  12.578   7.763   5.043  0.2279 -0.2460  0.1191
  748POPS   PO411804  12.718   7.454   5.216 -0.2597 -0.1521  0.0271
  748POPS   GL111805  12.861   7.249   5.592 -0.1578 -0.0307 -0.0426
  748POPS   GL211806  12.683   6.978   5.769  0.0468  0.0786  0.2809
  748POPS   C1A11807  13.163   7.244   5.945 -0.1781 -0.0490 -0.0717
  748POPS   D2A11808  13.438   6.896   6.187 -0.0589  0.0419 -0.0755
  748POPS   C3A11809  13.255   6.690   6.513  0.0164  0.2286 -0.0382
  748POPS   C4A11810  13.298   6.316   6.823  0.0538 -0.0005 -0.3711
  748POPS   C1B11811  12.482   6.716   6.035  0.0351 -0.1346  0.0756
  748POPS   C2B11812  12.480   6.500   6.368  0.2582 -0.1968  0.1933
  748POPS   C3B11813  12.333   6.426   6.689 -0.1036  0.2565 -0.0764
  748POPS   C4B11814  12.392   6.146   7.103  0.0143  0.0376  0.0982
  749POPS   CNO11815   2.803  11.297   5.143  0.4019  0.4287  0.0316
  749POPS   PO411816   2.821  11.706   5.219  0.2186  0.1955 -0.0508
  749POPS   GL111817   2.871  11.547   5.695  0.1170 -0.0557 -0.2635
  749POPS   GL211818   2.769  11.332   5.695  0.0550  0.0901 -0.0353
  749POPS   C1A11819   2.989  11.601   6.076 -0.1489  0.3801  0.4688
  749POPS   D2A11820   3.129  11.812   6.456  0.1976 -0.1208 -0.2429
  749POPS   C3A11821   3.534  11.782   6.646 -0.1146  0.0815 -0.2412
  749POPS   C4A11822   3.605  11.592   7.086 -0.2390 -0.1046  0.1123
  749POPS   C1B11823   2.511  11.495   6.082 -0.3658  0.1052 -0.2629
  749POPS   C2B11824   2.259  11.559   6.493  0.0370 -0.0196  0.1329
  749POPS   C3B11825   2.150  11.709   6.841  0.1617 -0.0733  0.1029
  749POPS   C4B11826   1.943  11.845   7.185  0.2419  0.0132 -0.0273
  750POPS   CNO11827   0.610  13.199   5.048  0.1179  0.1548 -0.0302
  750POPS   PO411828   0.822  13.516   5.253 -0.3134  0.1877 -0.1840
  750POPS   GL111829   0.666  13.759   5.614 -0.0237  0.0885  0.2020
  750POPS   GL211830   1.038  14.076   5.627 -0.0965  0.2750 -0.2991
  750POPS   C1A11831   0.502  13.758   5.987 -0.1390 -0.1102  0.3236
  750POPS   D2A11832   0.459  13.779   6.519  0.2163 -0.2862  0.1548
  750POPS   C3A11833   0.253  14.145   6.820  0.1510 -0.0628 -0.0046
  750POPS   C4A11834   0.098  14.480   7.049  0.3577  0.0749 -0.2343
  750POPS   C1B11835   1.058  13.839   6.002 -0.2566  0.1823  0.2251
  750POPS   C2B11836   0.978  13.773   6.372 -0.3869 -0.4155  0.0450
  750POPS   C3B11837   1.060  13.669   6.737  0.3804 -0.1375 -0.0260
  750POPS   C4B11838   1.185  13.733   7.177  0.1009  0.0616  0.0753
  751POPS   CNO11839   4.085   9.751   4.784 -0.3270 -0.2734 -0.0122
  751POPS   PO411840   3.789   9.874   5.116 -0.2713 -0.1849  0.5000
  751POPS   GL111841   3.836   9.755   5.421 -0.2636  0.0833 -0.0918
  751POPS   GL211842   3.791  10.034   5.586  0.1364 -0.4984 -0.2627
  751POPS   C1A11843   3.643   9.538   5.846 -0.1220  0.1946 -0.1013
  751POPS   D2A11844   3.661   9.155   6.030 -0.0825 -0.2269 -0.2064
  751POPS   C3A11845   3.369   8.776   6.057  0.2455 -0.0061 -0.0324
  751POPS   C4A11846   3.056   8.550   6.004  0.1032  0.0496  0.0252
  751POPS   C1B11847   3.772  10.043   5.907 -0.2118  0.5877  0.1210
  751POPS   C2B11848   3.869   9.977   6.266 -0.3439  0.0794  0.2638
  751POPS   C3B11849   4.101   9.754   6.593 -0.4080 -0.2987  0.0553
  751POPS   C4B11850   4.122   9.665   6.947  0.1373 -0.1751 -0.1985
  752POPS   CNO11851  11.694  13.674   4.779  0.0477  0.0382  0.3787
  752POPS   PO411852  11.281  13.670   4.987  0.1703  0.0477 -0.1715
  752POPS   GL111853  11.386  13.827   5.298  0.1314  0.4332 -0.3144
  752POPS   GL211854  11.654  13.565   5.414  0.1954  0.0477  0.0644
  752POPS   C1A11855  11.413  14.059   5.665  0.0882 -0.0398 -0.0102
  752POPS   D2A11856  11.518  14.118   6.114  0.0442  0.0390 -0.0142
  752POPS   C3A11857  11.487  13.926   6.547 -0.2683  0.0964 -0.0196
  752POPS   C4A11858  11.544  14.133   6.947 -0.1652  0.0667 -0.0397
  752POPS   C1B11859  11.504  13.493   5.842  0.0852  0.2344  0.1783
  752POPS   C2B11860  11.513  13.440   6.294 -0.0217  0.6728 -0.0216
  752POPS   C3B11861  11.550  13.296   6.776  0.0934 -0.1229  0.0320
  752POPS   C4B11862  11.238  12.967   7.041 -0.1605  0.2108 -0.2253
  753POPS   CNO11863   9.786  11.406   5.349  0.1481  0.0603 -0.0658
  753POPS   PO411864  10.142  11.238   5.292  0.2845 -0.2998 -0.4551
  753POPS   GL111865   9.910  11.118   5.707  0.3127  0.0680 -0.0008
  753POPS   GL211866   9.589  10.955   5.730  0.2738 -0.1417  0.0819
  753POPS   C1A11867   9.873  11.222   6.082 -0.1508  0.1043 -0.0958
  753POPS   D2A11868  10.099  10.982   6.341 -0.0128 -0.0636 -0.1760
  753POPS   C3A11869  10.050  11.097   6.837 -0.0275 -0.0586  0.1520
  753POPS   C4A11870   9.973  11.452   7.189  0.0267  0.1855  0.2009
  753POPS   C1B11871   9.509  10.961   6.161  0.1947  0.0520 -0.0064
  753POPS   C2B11872   9.307  10.916   6.398  0.2830 -0.2112  0.0894
  753POPS   C3B11873   9.163  11.061   6.776  0.0761  0.2607 -0.0653
  753POPS   C4B11874   9.200  10.890   7.197 -0.2567 -0.2133 -0.1407
  754POPS   CNO11875   9.825   5.449   5.289 -0.3183 -0.4155 -0.2268
  754POPS   PO411876   9.419   5.363   5.110 -0.3882  0.0764  0.1766
  754POPS   GL111877   9.131   5.493   5.206 -0.0001  0.1033 -0.0059
  754POPS   GL211878   9.105   5.287   5.551  0.3207  0.0584  0.1106
  754POPS   C1A11879   9.202   5.785   5.569  0.3737 -0.2605  0.3063
  754POPS   D2A11880   9.006   5.830   5.945 -0.0322 -0.0384 -0.1771
  754POPS   C3A11881   8.840   5.483   6.247  0.1004  0.0340  0.3383
  754POPS   C4A11882   8.485   5.379   6.427  0.1958  0.0107 -0.0847
  754POPS   C1B11883   9.156   5.350   5.931 -0.0421  0.2166  0.1719
  754POPS   C2B11884   9.287   5.356   6.384  0.3654  0.0748 -0.0373
  754POPS   C3B11885   9.269   5.148   6.804  0.2518 -0.1262 -0.2994
  754POPS   C4B11886   9.305   4.885   7.103  0.2257  0.1063 -0.1450
  755POPS   CNO11887  12.458  13.180   5.158  0.1413  0.2667  0.2059
  755POPS   PO411888  12.916  13.336   5.167  0.0521 -0.1735 -0.1619
  755POPS   GL111889  12.612  13.394   5.571 -0.1294 -0.3968 -0.2360
  755POPS   GL211890  12.625  13.775   5.695  0.1424 -0.2141 -0.0777
  755POPS   C1A11891  12.489  13.252   5.984  0.0476  0.1138  0.0295
  755POPS   D2A11892  12.581  13.151   6.439 -0.1503  0.1546  0.2656
  755POPS   C3A11893  12.289  12.764   6.588 -0.1448 -0.1365  0.1624
  755POPS   C4A11894  12.311  12.655   6.931 -0.0162  0.0016  0.1907
  755POPS   C1B11895  12.338  13.734   5.948  0.1897 -0.3445 -0.0483
  755POPS   C2B11896  12.403  13.600   6.421  0.2312  0.2465  0.0430
  755POPS   C3B11897  12.477  13.576   6.924  0.0118 -0.1884  0.1849
  755POPS   C4B11898  12.687  13.436   7.295 -0.1728  0.0957  0.0470
  756POPS   CNO11899  15.405   4.979   5.065  0.4692  0.0234  0.1228
  756POPS   PO411900  15.593   5.199   5.460  0.4313 -0.3164  0.0466
  756POPS   GL111901  15.435   5.110   5.843  0.1157  0.0684  0.2101
  756POPS   GL211902  15.440   4.719   5.807 -0.2448 -0.1124 -0.1126
  756POPS   C1A11903  15.354   5.140   6.252  0.1676  0.0446 -0.2218
  756POPS   D2A11904  15.352   5.136   6.686  0.1193  0.2203  0.0035
  756POPS   C3A11905  15.533   5.200   7.035  0.3163 -0.1769 -0.0688
  756POPS   C4A11906  15.782   5.356   7.350 -0.1124 -0.2706  0.0929
  756POPS   C1B11907  15.278   4.592   6.168  0.1161  0.0934  0.1933
  756POPS   C2B11908  15.288   4.561   6.678 -0.1290 -0.0332  0.0791
  756POPS   C3B11909  15.386   4.529   7.078 -0.1180 -0.0465  0.1007
  756POPS   C4B11910  15.671   4.726   7.363  0.2157 -0.3302  0.1405
  757POPS   CNO11911   0.533  10.781   5.034  0.0364  0.0546  0.1970
  757POPS   PO411912   0.777  10.522   5.392  0.4509 -0.0718  0.1413
  757POPS   GL111913   1.046  10.752   5.725  0.0422 -0.2048  0.1523
  757POPS   GL211914   1.446  10.753   5.778 -0.1194 -0.0862 -0.1806
  757POPS   C1A11915   1.129  10.839   6.163  0.1590 -0.3642 -0.2034
  757POPS   D2A11916   1.473  11.084   6.404 -0.0168 -0.0956  0.3031
  757POPS   C3A11917   1.554  11.031   6.803 -0.0570 -0.3596 -0.3878
  757POPS   C4A11918   1.653  10.751   7.067 -0.3077  0.1919  0.2162
  757POPS   C1B11919   1.569  11.194   5.930 -0.0084 -0.3132  0.3678
  757POPS   C2B11920   1.895  11.241   6.278  0.1911  0.0441 -0.2330
  757POPS   C3B11921   2.266  11.065   6.290 -0.1922 -0.0679  0.0174
  757POPS   C4B11922   2.458  10.977   6.624  0.1940  0.4260  0.0353
  758POPS   CNO11923   8.546  17.045   5.382  0.0429 -0.0280 -0.1245
  758POPS   PO411924   8.137  17.048   5.252 -0.0216 -0.3769  0.0341
  758POPS   GL111925   8.040  16.848   5.740  0.0964 -0.0930  0.1048
  758POPS   GL211926   8.110  16.518   5.872  0.1476  0.4974  0.0658
  758POPS   C1A11927   7.743  16.750   6.083  0.2550  0.1439  0.1179
  758POPS   D2A11928   7.891  16.541   6.386 -0.0421 -0.0043 -0.1599
  758POPS   C3A11929   7.989  16.416   6.815 -0.2686  0.0199 -0.0603
  758POPS   C4A11930   8.227  16.184   7.054 -0.4413  0.1718  0.0728
  758POPS   C1B11931   8.198  15.997   5.848 -0.1659 -0.3959  0.1332
  758POPS   C2B11932   8.429  15.670   6.057 -0.1681  0.3477 -0.0075
  758POPS   C3B11933   8.527  15.416   6.088  0.0053  0.3558  0.0062
  758POPS   C4B11934   8.380  15.369   6.487 -0.0376 -0.1925 -0.1905
  759POPS   CNO11935   2.184   0.142   5.199  0.2648 -0.0824 -0.1680
  759POPS   PO411936   2.059  -0.272   5.268 -0.1700  0.0508 -0.3531
  759POPS   GL111937   2.018  -0.428   5.616  0.1320  0.0033  0.1718
  759POPS   GL211938   2.127  -0.349   5.949  0.0595  0.2640 -0.2702
  759POPS   C1A11939   1.716  -0.716   5.802  0.0479 -0.0949 -0.1910
  759POPS   D2A11940   1.740  -0.730   6.243 -0.0472 -0.1312  0.1540
  759POPS   C3A11941   1.823  -0.473   6.605  0.0225  0.0687  0.0203
  759POPS   C4A11942   1.918  -0.347   7.087  0.4074 -0.0152 -0.4783
  759POPS   C1B11943   2.275  -0.499   6.404  0.1255  0.2733 -0.1089
  759POPS   C2B11944   2.280  -0.669   6.838 -0.0138  0.0271 -0.0516
  759POPS   C3B11945   2.458  -0.570   7.220  0.3467 -0.2770  0.0673
  759POPS   C4B11946   2.839  -0.430   7.491  0.3069  0.2833 -0.3643
  760POPS   CNO11947  11.359  16.855   5.555  0.2082 -0.1078 -0.0457
  760POPS   PO411948  11.426  17.254   5.779 -0.0111  0.0325 -0.1726
  760POPS   GL111949  11.180  17.221   6.058 -0.1375 -0.0012 -0.1306
  760POPS   GL211950  10.801  17.292   6.092 -0.2221  0.1246  0.1496
  760POPS   C1A11951  11.265  17.043   6.361  0.0247 -0.1948 -0.0177
  760POPS   D2A11952  11.192  17.044   6.699 -0.0845  0.0038 -0.0602
  760POPS   C3A11953  11.300  16.733   7.021 -0.0790 -0.1420 -0.3628
  760POPS   C4A11954  11.135  16.514   7.363  0.2903  0.0023 -0.0754
  760POPS   C1B11955  10.745  17.185   6.508 -0.0269  0.3013 -0.0272
  760POPS   C2B11956  10.670  17.159   6.802  0.1009  0.0777 -0.2612
  760POPS   C3B11957  10.533  17.242   7.109 -0.1557  0.3924  0.0026
  760POPS   C4B11958  10.215  17.014   7.250  0.1277  0.0291  0.0937
  761POPS   CNO11959  11.486   4.456   5.173 -0.4838  0.1389 -0.3511
  761POPS   PO411960  11.054   4.668   5.165  0.1272 -0.0778  0.1730
  761POPS   GL111961  11.004   4.487   5.521  0.2629  0.0257 -0.0070
  761POPS   GL211962  10.744   4.558   5.631 -0.2005  0.0321  0.0300
  761POPS   C1A11963  10.988   4.296   5.984  0.0921 -0.1814 -0.2438
  761POPS   D2A11964  11.043   4.390   6.434  0.1536  0.1114  0.4886
  761POPS   C3A11965  11.169   4.768   6.573  0.0083 -0.0031  0.2536
  761POPS   C4A11966  11.519   4.893   6.477 -0.0959 -0.1844  0.1179
  761POPS   C1B11967  10.697   4.850   5.973 -0.3189  0.1640 -0.0514
  761POPS   C2B11968  10.595   4.916   6.495 -0.0905 -0.0979  0.1371
  761POPS   C3B11969  10.849   5.051   6.839  0.4669 -0.1563 -0.2273
  761POPS   C4B11970  10.828   5.221   7.245 -0.2445 -0.2326 -0.0968
  762POPS   CNO11971   4.172  18.420   5.019  0.0690 -0.0244 -0.0217
  762POPS   PO411972   4.639  18.399   5.072 -0.0396 -0.0169 -0.3673
  762POPS   GL111973   4.536  18.123   5.354 -0.1225  0.1242  0.2605
  762POPS   GL211974   4.377  18.400   5.481  0.1564 -0.1553  0.0567
  762POPS   C1A11975   4.591  17.816   5.629  0.2250  0.5828 -0.0167
  762POPS   D2A11976   4.898  17.489   5.625  0.0672  0.0994 -0.1647
  762POPS   C3A11977   4.771  17.182   5.881  0.0645  0.1540  0.2256
  762POPS   C4A11978   4.777  17.221   6.329 -0.4431 -0.2457  0.1650
  762POPS   C1B11979   4.114  18.302   5.856  0.0490  0.3788 -0.2247
  762POPS   C2B11980   4.202  18.114   6.242 -0.0980  0.1951  0.0726
  762POPS   C3B11981   4.165  18.260   6.638 -0.2723 -0.0877 -0.3238
  762POPS   C4B11982   4.230  18.500   6.921 -0.0802  0.0017 -0.1185
  763POPS   CNO11983   4.414   4.330   5.541 -0.0098 -0.1456 -0.0607
  763POPS   PO411984   4.700   4.632   5.467 -0.1777 -0.1106  0.1140
  763POPS   GL111985   5.058   4.495   5.793 -0.1805 -0.2018 -0.1871
  763POPS   GL211986   5.075   4.838   6.053  0.0427  0.2168 -0.0692
  763POPS   C1A11987   5.202   4.094   6.025  0.1122 -0.0078 -0.0082
  763POPS   D2A11988   5.320   3.827   6.333  0.0184 -0.2176  0.0741
  763POPS   C3A11989   5.177   3.370   6.360  0.0490  0.2722 -0.1654
  763POPS   C4A11990   4.813   3.211   6.415 -0.3145  0.1229 -0.0380
  763POPS   C1B11991   5.385   5.046   6.307 -0.2089  0.1815 -0.0389
  763POPS   C2B11992   5.474   5.302   6.614 -0.0366 -0.2121  0.1745
  763POPS   C3B11993   5.455   5.242   7.072 -0.1432 -0.1141 -0.2901
  763POPS   C4B11994   5.537   5.109   7.456  0.2015 -0.2488  0.1022
  764POPS   CNO11995   0.167  14.041   4.816  0.2128  0.1325  0.2217
  764POPS   PO411996   0.043  13.994   5.231 -0.0003 -0.2004  0.1271
  764POPS   GL111997   0.068  13.914   5.678  0.0463  0.1316 -0.1988
  764POPS   GL211998   0.004  13.576   5.731  0.4542  0.5244  0.0677
  764POPS   C1A11999   0.464  14.260   5.866  0.2417  0.2181 -0.0643
  764POPS   D2A12000   0.788  14.263   6.107 -0.1587  0.1279 -0.2252
  764POPS   C3A12001   0.809  14.174   6.630  0.4469 -0.0408  0.1009
  764POPS   C4A12002   0.693  13.975   7.029 -0.1536 -0.0902 -0.0318
  764POPS   C1B12003   0.020  13.517   6.189  0.0363 -0.2719 -0.2686
  764POPS   C2B12004   0.082  13.979   6.203  0.3027 -0.1368  0.2775
  764POPS   C3B12005   0.361  14.341   6.373  0.2607  0.2138  0.0320
  764POPS   C4B12006   0.401  14.624   6.628  0.1006  0.1068  0.3025
  765POPS   CNO12007  18.881   4.355   4.705  0.1648  0.3534  0.0274
  765POPS   PO412008  18.986   4.243   5.082 -0.1579 -0.1936 -0.0679
  765POPS   GL112009  18.974   4.630   5.343 -0.1362 -0.3363 -0.2296
  765POPS   GL212010  18.720   4.727   5.451  0.1912 -0.2664 -0.1587
  765POPS   C1A12011  19.074   4.673   5.809  0.0881  0.2379 -0.2072
  765POPS   D2A12012  18.973   4.616   6.171 -0.0543 -0.0571  0.2364
  765POPS   C3A12013  19.166   4.778   6.521 -0.0438  0.1432  0.1270
  765POPS   C4A12014  19.312   5.144   6.626  0.1843  0.2575  0.4042
  765POPS   C1B12015  18.552   4.502   5.854 -0.0226 -0.3438  0.0590
  765POPS   C2B12016  18.471   4.449   6.314  0.2540  0.0372  0.1465
  765POPS   C3B12017  18.356   4.503   6.713 -0.0907  0.2958  0.0896
  765POPS   C4B12018  18.417   4.466   7.128  0.2745  0.2071  0.1679
  766POPS   CNO12019   0.829  17.720   4.866  0.2317 -0.2709  0.0405
  766POPS   PO412020   0.976  17.629   5.348 -0.1494  0.1201 -0.1634
  766POPS   GL112021   0.700  17.648   5.707 -0.1550 -0.0284 -0.0239
  766POPS   GL212022   0.943  17.534   5.854  0.2476  0.2747  0.0835
  766POPS   C1A12023   0.515  17.761   6.070 -0.0490 -0.1069  0.0356
  766POPS   D2A12024   0.447  18.081   6.382 -0.2252 -0.1739  0.2463
  766POPS   C3A12025   0.767  18.321   6.569  0.4456  0.2473 -0.1688
  766POPS   C4A12026   1.069  18.344   6.966 -0.0260  0.1030  0.0379
  766POPS   C1B12027   1.329  17.691   6.118 -0.1583  0.2108  0.0640
  766POPS   C2B12028   1.517  17.607   6.464  0.3966 -0.0123  0.0481
  766POPS   C3B12029   1.722  17.315   6.701  0.0765  0.0363 -0.1823
  766POPS   C4B12030   1.933  17.438   7.051 -0.1672  0.4346 -0.2224
  767POPS   CNO12031  15.488  10.476   5.026  0.1178 -0.1960  0.0162
  767POPS   PO412032  15.675  10.745   5.239  0.1223 -0.0887 -0.2625
  767POPS   GL112033  15.723  10.820   5.721 -0.0421 -0.1725 -0.2154
  767POPS   GL212034  15.673  11.129   5.786  0.2727  0.1868 -0.2975
  767POPS   C1A12035  15.693  10.561   6.108 -0.1915  0.1557  0.0901
  767POPS   D2A12036  15.410  10.270   6.314 -0.4637 -0.0715  0.0678
  767POPS   C3A12037  15.651  10.076   6.725  0.1161  0.4942 -0.2214
  767POPS   C4A12038  15.931   9.671   6.820 -0.0928 -0.2044  0.0104
  767POPS   C1B12039  15.799  11.089   6.208  0.1621  0.1293  0.3354
  767POPS   C2B12040  15.657  10.972   6.688  0.2645  0.0313 -0.1123
  767POPS   C3B12041  15.600  10.886   7.042 -0.1060 -0.0183  0.1881
  767POPS   C4B12042  15.717  10.515   7.302  0.0298 -0.2959  0.2115
  768POPS   CNO12043  16.550  17.935   5.102  0.1618  0.1810  0.3902
  768POPS   PO412044  16.884  17.883   5.520 -0.0817  0.2441 -0.0006
  768POPS   GL112045  16.810  17.807   5.926 -0.0913  0.1536 -0.1523
  768POPS   GL212046  16.809  18.246   6.080  0.2148 -0.0369 -0.0251
  768POPS   C1A12047  16.453  17.785   6.319  0.0246  0.0185  0.2858
  768POPS   D2A12048  16.489  17.832   6.699 -0.1534 -0.0563 -0.1753
  768POPS   C3A12049  16.118  17.788   7.080 -0.0098 -0.0410  0.2014
  768POPS   C4A12050  16.105  17.735   7.530 -0.2598 -0.2318 -0.1902
  768POPS   C1B12051  16.842  18.162   6.528  0.1894  0.2205 -0.0927
  768POPS   C2B12052  16.764  18.161   6.920 -0.3939  0.2781 -0.1976
  768POPS   C3B12053  16.736  18.264   7.441  0.2126 -0.0264  0.0642
  768POPS   C4B12054  16.510  18.052   7.854 -0.2592  0.1640 -0.0325
  769POPS   CNO12055   0.251   8.265   4.852  0.0959 -0.1965 -0.0502
  769POPS   PO412056   0.057   8.225   5.367  0.0489 -0.1260  0.1127
  769POPS   GL112057  -0.082   8.170   5.770 -0.1113 -0.3252 -0.0400
  769POPS   GL212058   0.052   8.166   6.114 -0.1510 -0.2694  0.2747
  769POPS   C1A12059  -0.254   7.757   6.007  0.2183 -0.0950  0.0884
  769POPS   D2A12060  -0.369   7.418   6.335 -0.1575 -0.0176  0.1319
  769POPS   C3A12061  -0.012   7.380   6.647  0.0838  0.2164 -0.1366
  769POPS   C4A12062   0.238   7.723   6.872  0.0354 -0.1447 -0.4390
  769POPS   C1B12063   0.262   8.197   6.482 -0.1140  0.1231  0.0415
  769POPS   C2B12064   0.604   7.907   6.653  0.2388  0.1339 -0.0480
  769POPS   C3B12065   0.788   7.813   7.097 -0.0659 -0.2150  0.3272
  769POPS   C4B12066   0.670   7.899   7.562  0.1689 -0.0029  0.4933
  770POPS   CNO12067   8.183   0.910   5.149  0.0494  0.0716 -0.0840
  770POPS   PO412068   8.069   0.638   5.458 -0.0446  0.0335  0.0055
  770POPS   GL112069   7.988   0.671   5.894 -0.3190  0.0341 -0.2509
  770POPS   GL212070   7.773   0.872   5.934 -0.1697 -0.0302  0.0044
  770POPS   C1A12071   7.901   0.499   6.333  0.1273 -0.0544 -0.0884
  770POPS   D2A12072   7.921   0.638   6.796  0.0907  0.2046  0.2385
  770POPS   C3A12073   8.229   0.370   7.035 -0.2337 -0.2949 -0.0314
  770POPS   C4A12074   8.350   0.143   7.469  0.2264 -0.1569 -0.0847
  770POPS   C1B12075   7.888   0.997   6.286  0.2018  0.1838  0.1593
  770POPS   C2B12076   7.995   1.222   6.635  0.1684  0.0089  0.0210
  770POPS   C3B12077   8.267   1.539   6.836  0.1008 -0.2882 -0.2028
  770POPS   C4B12078   8.487   1.233   7.264 -0.0537 -0.0340 -0.0682
  771POPS   CNO12079  18.028   0.257   5.368 -0.1600  0.3675 -0.0422
  771POPS   PO412080  18.030  -0.238   5.556  0.0797 -0.2076  0.1790
  771POPS   GL112081  18.084  -0.188   5.965  0.0165 -0.1946 -0.1709
  771POPS   GL212082  18.113   0.110   6.199  0.1129  0.0075 -0.2093
  771POPS   C1A12083  18.331  -0.231   6.400 -0.1060 -0.1091 -0.1149
  771POPS   D2A12084  18.427  -0.082   6.829 -0.0486 -0.1865 -0.2064
  771POPS   C3A12085  18.378   0.152   7.102  0.1276 -0.1491 -0.1713
  771POPS   C4A12086  18.468   0.323   7.536 -0.0073  0.3313 -0.0394
  771POPS   C1B12087  18.261   0.345   6.618 -0.0701 -0.0432  0.2191
  771POPS   C2B12088  18.154   0.621   6.874 -0.1580  0.0662 -0.2609
  771POPS   C3B12089  18.235   1.074   7.030 -0.1100  0.1254  0.1813
  771POPS   C4B12090  18.023   1.159   7.481 -0.0017 -0.2028 -0.1277
  772POPS   CNO12091   4.600  10.376   5.232  0.0788 -0.0206 -0.0404
  772POPS   PO412092   4.503   9.948   5.230 -0.3956 -0.1948  0.3953
  772POPS   GL112093   4.834   9.885   5.491  0.2716  0.0961  0.1875
  772POPS   GL212094   5.061  10.035   5.358 -0.0387  0.1752  0.2198
  772POPS   C1A12095   4.988   9.722   5.877 -0.1464  0.1719 -0.0508
  772POPS   D2A12096   5.009   9.672   6.297 -0.0714  0.0520 -0.0205
  772POPS   C3A12097   4.882   9.288   6.444  0.0772 -0.2125  0.1213
  772POPS   C4A12098   4.737   8.978   6.834  0.1110  0.0283 -0.2382
  772POPS   C1B12099   4.854  10.346   5.704 -0.0935 -0.0027  0.4117
  772POPS   C2B12100   4.720  10.575   5.974  0.0554  0.1158  0.2668
  772POPS   C3B12101   4.632  10.748   6.387  0.0385  0.0684  0.0634
  772POPS   C4B12102   4.592  10.652   6.819 -0.0976  0.2971  0.1153
  773POPS   CNO12103  15.438   7.724   5.160 -0.1468  0.1635 -0.1160
  773POPS   PO412104  15.357   7.274   5.271  0.0934  0.1156  0.0584
  773POPS   GL112105  15.213   7.376   5.738 -0.0937 -0.3247  0.1284
  773POPS   GL212106  15.167   7.728   5.791 -0.2108 -0.3266  0.3051
  773POPS   C1A12107  15.163   7.383   6.131 -0.0712 -0.0301 -0.0010
  773POPS   D2A12108  15.277   7.578   6.570 -0.5456 -0.1999  0.1083
  773POPS   C3A12109  15.242   7.379   7.059 -0.2373  0.1051 -0.1101
  773POPS   C4A12110  15.459   7.161   7.402 -0.0964 -0.1436  0.0305
  773POPS   C1B12111  15.060   7.913   6.118  0.0218 -0.1832 -0.3691
  773POPS   C2B12112  15.128   8.069   6.631  0.1449 -0.1964 -0.0832
  773POPS   C3B12113  15.287   8.417   6.832 -0.1479  0.1144  0.0197
  773POPS   C4B12114  15.209   8.840   6.679 -0.1004 -0.1665 -0.0517
  774POPS   CNO12115   3.841  11.670   5.436 -0.1550 -0.2199 -0.0311
  774POPS   PO412116   3.770  11.351   5.334 -0.0398  0.0295  0.3426
  774POPS   GL112117   3.650  11.274   5.707 -0.2056  0.1631 -0.0067
  774POPS   GL212118   3.271  11.151   5.801  0.0292  0.1124 -0.0941
  774POPS   C1A12119   3.501  11.345   6.187 -0.1349 -0.0576 -0.2779
  774POPS   D2A12120   3.284  11.241   6.487 -0.0982 -0.1095  0.0874
  774POPS   C3A12121   3.116  11.451   6.998 -0.2155  0.1958  0.1504
  774POPS   C4A12122   3.286  11.313   7.424  0.1824  0.0691  0.0847
  774POPS   C1B12123   3.293  10.867   6.127 -0.1104  0.2924 -0.0761
  774POPS   C2B12124   2.951  10.754   6.586 -0.1236  0.3587 -0.0039
  774POPS   C3B12125   2.872  11.009   6.996  0.3233  0.1945  0.2217
  774POPS   C4B12126   2.973  10.881   7.345 -0.3774  0.2449 -0.1715
  775POPS   CNO12127   8.766  14.600   5.542  0.4003 -0.1659 -0.0625
  775POPS   PO412128   9.122  14.630   5.232  0.0994 -0.0825  0.4004
  775POPS   GL112129   9.062  15.010   5.491  0.1987  0.3668  0.1826
  775POPS   GL212130   9.204  14.804   5.721  0.1688  0.0723  0.0817
  775POPS   C1A12131   8.552  15.190   5.535  0.0558  0.1053 -0.1656
  775POPS   D2A12132   8.163  15.396   5.731 -0.1520  0.1293  0.2219
  775POPS   C3A12133   8.022  15.284   6.054 -0.2408  0.0670 -0.2449
  775POPS   C4A12134   7.861  15.166   6.416 -0.1729  0.0971  0.1537
  775POPS   C1B12135   9.363  14.658   6.052 -0.0843  0.2185 -0.1457
  775POPS   C2B12136   9.638  14.381   6.155  0.0737  0.2259 -0.1687
  775POPS   C3B12137   9.660  14.339   6.526 -0.1433 -0.3044 -0.1665
  775POPS   C4B12138   9.585  14.477   6.826 -0.0637 -0.1703  0.6330
  776POPS   CNO12139   0.754   5.299   5.089 -0.1006 -0.0364 -0.1902
  776POPS   PO412140   0.726   5.705   5.248  0.0280  0.0268  0.0667
  776POPS   GL112141   0.875   5.606   5.670 -0.2208  0.3859  0.0623
  776POPS   GL212142   0.783   5.808   5.879  0.1560 -0.0764 -0.1333
  776POPS   C1A12143   0.977   5.379   6.119  0.0368  0.0958 -0.1182
  776POPS   D2A12144   1.193   5.103   6.375 -0.1642 -0.2032 -0.1136
  776POPS   C3A12145   1.293   5.194   6.691 -0.1687  0.0113 -0.0613
  776POPS   C4A12146   1.430   5.330   7.139 -0.0743  0.1566 -0.0997
  776POPS   C1B12147   0.385   5.933   6.097  0.3094  0.0533  0.0290
  776POPS   C2B12148   0.240   6.161   6.433  0.1187 -0.0450  0.4002
  776POPS   C3B12149   0.102   6.255   6.845 -0.1920  0.0574  0.1004
  776POPS   C4B12150   0.115   6.143   7.237  0.3200 -0.0116 -0.0143
  777POPS   CNO12151  17.268   1.032   5.431 -0.1323 -0.0077 -0.2981
  777POPS   PO412152  17.333   1.408   5.551 -0.0964 -0.0286  0.0618
  777POPS   GL112153  17.573   1.604   5.771  0.1595 -0.2280 -0.2133
  777POPS   GL212154  18.001   1.613   5.650  0.1551 -0.0112  0.0110
  777POPS   C1A12155  17.526   1.737   6.220 -0.1452 -0.4053 -0.1348
  777POPS   D2A12156  17.333   1.933   6.642 -0.0075  0.0887  0.1194
  777POPS   C3A12157  17.445   1.868   6.975  0.1572 -0.1273 -0.2399
  777POPS   C4A12158  17.762   1.453   7.226 -0.3324  0.2314  0.0586
  777POPS   C1B12159  18.068   1.812   6.062  0.0381 -0.0933  0.1448
  777POPS   C2B12160  18.230   2.039   6.398 -0.3725  0.0094  0.1158
  777POPS   C3B12161  18.619   2.219   6.708 -0.0005 -0.0628  0.0150
  777POPS   C4B12162  19.049   2.141   6.824  0.1147  0.0204 -0.2204
  778POPS   CNO12163  15.788   2.200   5.225  0.0370  0.1583  0.0186
  778POPS   PO412164  15.975   2.472   5.477  0.1669 -0.0702 -0.0451
  778POPS   GL112165  15.771   2.478   5.914  0.0337 -0.0884  0.0367
  778POPS   GL212166  15.559   2.530   6.142 -0.0468  0.1310  0.0638
  778POPS   C1A12167  15.978   2.152   6.227  0.3003  0.1690 -0.3365
  778POPS   D2A12168  15.795   1.851   6.375 -0.0245 -0.0697 -0.1050
  778POPS   C3A12169  15.708   1.527   6.662  0.2470 -0.3357  0.2835
  778POPS   C4A12170  15.519   1.379   6.919 -0.3770 -0.2379 -0.0635
  778POPS   C1B12171  15.536   2.302   6.544  0.0453 -0.1179 -0.1574
  778POPS   C2B12172  15.886   2.233   6.670  0.0814  0.2391 -0.1970
  778POPS   C3B12173  16.067   1.815   6.797 -0.0107 -0.0920 -0.2553
  778POPS   C4B12174  15.920   1.605   7.109 -0.0458 -0.1493  0.0431
  779POPS   CNO12175   1.231  15.207   4.927  0.1269  0.2020  0.0526
  779POPS   PO412176   1.355  14.807   4.980  0.1832 -0.2584 -0.3373
  779POPS   GL112177   1.444  15.052   5.389  0.0262  0.1661  0.1896
  779POPS   GL212178   1.750  15.133   5.452  0.1162  0.1154 -0.2685
  779POPS   C1A12179   1.477  14.963   5.837 -0.0171 -0.1601 -0.0731
  779POPS   D2A12180   1.495  14.990   6.306 -0.0383  0.2626 -0.3216
  779POPS   C3A12181   1.394  15.133   6.628  0.0075 -0.2179 -0.0217
  779POPS   C4A12182   1.156  15.376   6.818  0.3856  0.0177 -0.3453
  779POPS   C1B12183   1.615  15.474   5.608  0.0574  0.1676  0.0465
  779POPS   C2B12184   1.606  15.432   5.989 -0.0209  0.0598  0.3349
  779POPS   C3B12185   1.658  15.566   6.441  0.0233 -0.0515  0.1644
  779POPS   C4B12186   1.694  15.452   6.890  0.3169 -0.2229  0.0429
  780POPS   CNO12187  18.988  18.181   5.315 -0.1454 -0.2479 -0.2587
  780POPS   PO412188  18.841  18.483   5.465  0.3099 -0.0123 -0.0215
  780POPS   GL112189  18.892  18.459   5.933  0.1471 -0.2546 -0.1073
  780POPS   GL212190  19.151  18.389   5.904  0.0134 -0.1084  0.0048
  780POPS   C1A12191  18.790  18.181   6.243 -0.2124  0.2224 -0.0167
  780POPS   D2A12192  18.799  17.990   6.647  0.4563 -0.4294  0.0958
  780POPS   C3A12193  18.643  17.743   7.032  0.2255  0.0718 -0.0800
  780POPS   C4A12194  18.657  17.801   7.444  0.1353  0.0821 -0.2752
  780POPS   C1B12195  19.181  18.544   6.310 -0.1825 -0.2281 -0.3581
  780POPS   C2B12196  19.011  18.433   6.816  0.2232 -0.1162  0.2008
  780POPS   C3B12197  18.835  18.274   7.153 -0.3031  0.0457  0.1416
  780POPS   C4B12198  18.999  18.214   7.538  0.1100  0.2656  0.2100
  781POPS   CNO12199   4.027   7.812   4.684  0.0336  0.0040 -0.1941
  781POPS   PO412200   3.894   7.867   5.159 -0.1839 -0.2634 -0.1660
  781POPS   GL112201   3.916   7.891   5.555 -0.0208  0.0443 -0.2846
  781POPS   GL212202   4.042   7.678   5.861  0.2347  0.1694  0.0902
  781POPS   C1A12203   3.946   8.180   5.860 -0.1505 -0.0725 -0.5019
  781POPS   D2A12204   4.075   8.193   6.286  0.0949  0.1160 -0.1261
  781POPS   C3A12205   3.956   8.358   6.645  0.4078 -0.0571 -0.1708
  781POPS   C4A12206   3.580   8.396   6.952  0.0628 -0.1115 -0.0059
  781POPS   C1B12207   4.307   7.692   6.058  0.1793  0.0091 -0.1388
  781POPS   C2B12208   4.432   7.804   6.370  0.0495  0.1921  0.0424
  781POPS   C3B12209   4.370   8.056   6.680  0.0219 -0.3047  0.3030
  781POPS   C4B12210   4.322   8.326   7.016 -0.0817  0.1157  0.1189
  782POPS   CNO12211   0.515   4.835   5.219 -0.0163 -0.0814 -0.0479
  782POPS   PO412212   0.117   5.087   5.243  0.0628 -0.0826 -0.2055
  782POPS   GL112213   0.234   4.887   5.634  0.0643 -0.2506  0.1444
  782POPS   GL212214   0.344   4.594   5.657  0.1316  0.0352 -0.0784
  782POPS   C1A12215   0.599   5.000   5.892  0.2966  0.1145  0.1755
  782POPS   D2A12216   0.765   4.867   6.343 -0.1028  0.3168  0.0010
  782POPS   C3A12217   0.424   4.820   6.698 -0.0548 -0.0805 -0.1232
  782POPS   C4A12218   0.251   4.897   7.048 -0.0469  0.0279 -0.1170
  782POPS   C1B12219   0.174   4.322   5.959  0.0319  0.1325  0.1320
  782POPS   C2B12220  -0.042   4.185   6.398 -0.0397  0.2091 -0.1160
  782POPS   C3B12221  -0.032   4.024   6.717 -0.0521  0.0388  0.2407
  782POPS   C4B12222  -0.237   3.875   7.001 -0.0968  0.1155  0.0180
  783POPS   CNO12223  10.053   2.542   5.233 -0.3186  0.1403  0.1600
  783POPS   PO412224   9.817   2.438   5.482  0.3582  0.1280  0.0844
  783POPS   GL112225   9.707   2.354   5.871 -0.2063 -0.0105 -0.0785
  783POPS   GL212226   9.588   1.953   5.996  0.0629 -0.0535  0.1606
  783POPS   C1A12227   9.835   2.463   6.228  0.1957 -0.1142  0.1501
  783POPS   D2A12228   9.547   2.783   6.389 -0.1298 -0.3426  0.1114
  783POPS   C3A12229   9.571   3.051   6.041  0.0929 -0.2740 -0.1554
  783POPS   C4A12230   9.816   3.378   5.947  0.1360  0.0445 -0.4228
  783POPS   C1B12231   9.747   1.974   6.405 -0.2919  0.3622  0.3189
  783POPS   C2B12232   9.557   1.990   6.815 -0.1037 -0.0614 -0.0870
  783POPS   C3B12233   9.670   1.822   7.320  0.2150  0.3058  0.1085
  783POPS   C4B12234   9.462   1.772   7.690  0.2932 -0.0333 -0.1887
  784POPS   CNO12235  11.877   4.713   4.969 -0.1440 -0.0243  0.0276
  784POPS   PO412236  12.250   4.802   5.206  0.2820  0.0045 -0.3063
  784POPS   GL112237  12.180   4.857   5.632 -0.0077  0.1519  0.3527
  784POPS   GL212238  11.973   5.099   5.605  0.1373  0.0711 -0.0130
  784POPS   C1A12239  12.384   5.103   5.980 -0.2891 -0.2037 -0.0412
  784POPS   D2A12240  12.554   5.255   6.375  0.6828  0.1510 -0.0093
  784POPS   C3A12241  13.013   5.306   6.552  0.2380  0.1503 -0.2322
  784POPS   C4A12242  13.349   5.479   6.375 -0.1393 -0.1301  0.1972
  784POPS   C1B12243  11.992   5.460   5.866 -0.1861 -0.0133  0.2510
  784POPS   C2B12244  12.325   5.636   6.141  0.1440  0.0788  0.1998
  784POPS   C3B12245  12.505   5.969   6.452 -0.1841  0.2749 -0.1283
  784POPS   C4B12246  12.781   6.126   6.804  0.1397  0.0163  0.1521
  785POPS   CNO12247  17.627  12.227   5.202 -0.0289  0.5729 -0.1791
  785POPS   PO412248  17.205  12.233   5.367 -0.1693  0.3392  0.4460
  785POPS   GL112249  17.486  12.013   5.681  0.1086 -0.0599  0.4112
  785POPS   GL212250  17.675  11.867   5.566  0.0579 -0.0159 -0.0366
  785POPS   C1A12251  17.552  11.829   6.072 -0.3355 -0.0822  0.3271
  785POPS   D2A12252  17.914  11.648   6.263  0.2500  0.0619  0.0239
  785POPS   C3A12253  18.066  11.404   6.662  0.0711 -0.3117  0.3211
  785POPS   C4A12254  18.250  11.048   6.791  0.0276  0.0829 -0.1874
  785POPS   C1B12255  17.853  11.584   5.779  0.1739  0.0552 -0.1438
  785POPS   C2B12256  17.834  11.236   6.015  0.1465  0.2023  0.0535
  785POPS   C3B12257  18.118  11.076   6.288  0.0709 -0.0317 -0.3960
  785POPS   C4B12258  17.936  10.597   6.397 -0.0296 -0.1542 -0.1519
  786POPS   CNO12259   1.046   1.769   5.242  0.0474  0.0007  0.2347
  786POPS   PO412260   1.256   1.522   5.510  0.0844 -0.2257  0.0706
  786POPS   GL112261   1.436   1.647   5.819 -0.2268  0.1330  0.2440
  786POPS   GL212262   1.752   1.768   5.828 -0.0510  0.1478 -0.1673
  786POPS   C1A12263   1.299   1.548   6.301 -0.1742 -0.1846  0.3486
  786POPS   D2A12264   1.038   1.643   6.598 -0.0930  0.3005 -0.2311
  786POPS   C3A12265   0.818   1.925   6.729  0.1759 -0.1864  0.0450
  786POPS   C4A12266   0.687   2.251   6.472 -0.0842  0.0375 -0.4606
  786POPS   C1B12267   1.750   1.770   6.263  0.0637 -0.0075 -0.0162
  786POPS   C2B12268   1.633   1.901   6.725  0.0525 -0.1695 -0.2493
  786POPS   C3B12269   1.292   1.829   7.037 -0.2257 -0.2501  0.2050
  786POPS   C4B12270   1.248   2.164   7.310 -0.3502 -0.0487 -0.2679
  787POPS   CNO12271  19.037   8.591   6.029  0.0005 -0.2127 -0.0739
  787POPS   PO412272  18.685   8.415   5.809 -0.0629  0.1098  0.0497
  787POPS   GL112273  18.790   8.155   6.133 -0.2008 -0.2532 -0.1659
  787POPS   GL212274  18.727   8.458   6.411  0.0504 -0.0060 -0.1826
  787POPS   C1A12275  18.689   7.908   6.349  0.0466 -0.1602  0.3174
  787POPS   D2A12276  18.625   7.589   6.684  0.0565 -0.1534 -0.1582
  787POPS   C3A12277  18.854   7.542   7.106 -0.1093 -0.1734  0.1318
  787POPS   C4A12278  19.269   7.391   7.170  0.3089 -0.1223 -0.1199
  787POPS   C1B12279  19.066   8.293   6.650  0.0564  0.1263 -0.0132
  787POPS   C2B12280  19.178   8.190   6.998 -0.2428 -0.3244 -0.2664
  787POPS   C3B12281  19.396   8.439   7.367 -0.0703  0.3123  0.1142
  787POPS   C4B12282  19.624   8.257   7.684  0.2795 -0.0206 -0.3385
  788POPS   CNO12283  19.008   6.703   5.018  0.2007  0.0463  0.0307
  788POPS   PO412284  18.839   6.415   5.046 -0.0188  0.0782 -0.1584
  788POPS   GL112285  18.857   6.490   5.439 -0.1227  0.5734  0.0314
  788POPS   GL212286  18.982   6.731   5.660  0.0854  0.4085  0.2621
  788POPS   C1A12287  18.719   6.295   5.830 -0.1161 -0.0124  0.1019
  788POPS   D2A12288  18.535   5.911   5.834 -0.1067 -0.0009  0.0557
  788POPS   C3A12289  18.618   5.649   6.206  0.2013 -0.2443 -0.0397
  788POPS   C4A12290  18.837   5.531   6.517 -0.0574 -0.0549 -0.0222
  788POPS   C1B12291  19.156   6.509   6.026  0.2522  0.1355 -0.0260
  788POPS   C2B12292  19.122   6.511   6.477 -0.0144 -0.0676  0.0734
  788POPS   C3B12293  18.935   6.561   6.953 -0.1204 -0.1427 -0.1541
  788POPS   C4B12294  18.809   6.382   7.313 -0.2193  0.1327  0.1346
  789POPS   CNO12295  14.087   2.243   5.681  0.1454  0.1129 -0.1239
  789POPS   PO412296  13.913   2.513   5.382  0.0613  0.2594  0.0698
  789POPS   GL112297  13.934   2.670   5.898 -0.2266  0.5641 -0.0435
  789POPS   GL212298  13.982   2.504   6.153  0.1819  0.3902 -0.0866
  789POPS   C1A12299  13.828   2.934   6.246  0.0996  0.0135 -0.0316
  789POPS   D2A12300  14.068   3.156   6.571 -0.1386  0.1982  0.1658
  789POPS   C3A12301  14.045   3.162   6.987 -0.2196  0.0854  0.1896
  789POPS   C4A12302  14.161   3.427   7.347  0.1279 -0.1139 -0.0297
  789POPS   C1B12303  14.024   2.439   6.606  0.5296 -0.1842  0.1392
  789POPS   C2B12304  13.961   2.690   7.024  0.2526  0.2099  0.1079
  789POPS   C3B12305  13.725   2.982   7.309  0.1433  0.0401 -0.0548
  789POPS   C4B12306  13.659   3.473   7.141 -0.0516  0.2024 -0.0707
  790POPS   CNO12307   2.773   3.226   5.088 -0.0794  0.0921 -0.0748
  790POPS   PO412308   2.739   2.882   5.335 -0.2335 -0.1839  0.1881
  790POPS   GL112309   2.685   2.919   5.880 -0.1169  0.0723 -0.0130
  790POPS   GL212310   2.755   3.318   6.075  0.1426 -0.1535  0.0053
  790POPS   C1A12311   2.942   2.834   6.143 -0.1088 -0.2480  0.0383
  790POPS   D2A12312   3.084   2.494   6.368  0.1695 -0.0675 -0.1753
  790POPS   C3A12313   3.559   2.394   6.270 -0.1651  0.0225 -0.0618
  790POPS   C4A12314   3.859   2.067   6.072  0.2469 -0.1564 -0.0020
  790POPS   C1B12315   2.771   3.135   6.534  0.3591  0.1001  0.1450
  790POPS   C2B12316   3.042   2.765   6.825  0.0604 -0.1362 -0.0363
  790POPS   C3B12317   3.358   2.462   6.827  0.1452  0.2600  0.0788
  790POPS   C4B12318   3.754   2.247   6.811 -0.0349  0.0382 -0.1885
  791POPS   CNO12319  19.109   2.465   4.658 -0.1032  0.0676  0.0032
  791POPS   PO412320  19.308   2.795   4.945  0.0586 -0.0400 -0.4710
  791POPS   GL112321  19.416   2.805   5.413 -0.1547  0.1173 -0.2865
  791POPS   GL212322  19.342   3.195   5.499  0.0351  0.0014  0.3830
  791POPS   C1A12323  19.542   2.485   5.707 -0.0369  0.1789  0.0151
  791POPS   D2A12324  19.733   2.146   6.004  0.1989 -0.2251  0.2295
  791POPS   C3A12325  19.441   1.842   6.060 -0.0747 -0.4691  0.0512
  791POPS   C4A12326  19.100   1.618   5.984 -0.0483  0.0281  0.1989
  791POPS   C1B12327  19.165   3.116   5.860 -0.1648  0.0763  0.1156
  791POPS   C2B12328  19.208   2.963   6.303 -0.4513  0.0836 -0.1341
  791POPS   C3B12329  19.277   2.901   6.679  0.0763  0.0693  0.0219
  791POPS   C4B12330  19.375   2.858   7.192 -0.2046 -0.1656  0.0179
  792POPS   CNO12331  12.012   1.295   5.304  0.0915 -0.1033 -0.1508
  792POPS   PO412332  11.787   1.655   5.527  0.3562  0.2454 -0.1268
  792POPS   GL112333  11.437   1.732   5.838  0.0606  0.2102  0.0963
  792POPS   GL212334  11.586   2.094   5.936 -0.2531  0.1275  0.0929
  792POPS   C1A12335  11.389   1.726   6.237  0.1866 -0.0690  0.1959
  792POPS   D2A12336  11.549   1.679   6.618  0.2743 -0.3620  0.1791
  792POPS   C3A12337  12.051   1.552   6.569  0.0174  0.0249 -0.4160
  792POPS   C4A12338  12.447   1.597   6.695  0.0006  0.1094  0.5655
  792POPS   C1B12339  11.644   2.362   6.219 -0.2917 -0.0963  0.0075
  792POPS   C2B12340  11.762   2.698   6.546 -0.2104  0.1591 -0.0125
  792POPS   C3B12341  11.862   3.009   6.834 -0.0434 -0.0657  0.4142
  792POPS   C4B12342  12.216   3.277   7.080  0.3774  0.0723  0.1681
  793POPS   CNO12343  18.898   8.930   5.118 -0.1030  0.1760  0.1483
  793POPS   PO412344  18.934   9.034   5.446  0.1636  0.1252 -0.1224
  793POPS   GL112345  19.068   9.111   5.805 -0.4829 -0.0070 -0.1775
  793POPS   GL212346  18.838   9.225   5.990 -0.2530 -0.0180 -0.0017
  793POPS   C1A12347  19.329   9.184   6.313 -0.1405  0.1640  0.2093
  793POPS   D2A12348  19.387   9.334   6.776  0.0710  0.1672 -0.0699
  793POPS   C3A12349  19.817   9.304   6.977 -0.0513  0.0340 -0.0071
  793POPS   C4A12350  19.962   9.459   7.287  0.2013  0.1745 -0.1976
  793POPS   C1B12351  18.875   8.942   6.372  0.0437 -0.0559  0.0424
  793POPS   C2B12352  18.985   8.941   6.764  0.1500 -0.1871 -0.1986
  793POPS   C3B12353  19.177   8.859   7.138 -0.4334  0.1468 -0.1901
  793POPS   C4B12354  19.481   9.109   7.368  0.4449  0.0973  0.0487
  794POPS   CNO12355   5.309  13.706   5.296  0.2943 -0.1411 -0.1266
  794POPS   PO412356   5.079  13.347   4.992  0.1659 -0.0872  0.1534
  794POPS   GL112357   5.151  13.040   5.314 -0.1838  0.1294  0.1359
  794POPS   GL212358   5.267  13.142   5.522 -0.0317 -0.1921  0.0989
  794POPS   C1A12359   4.816  12.795   5.371  0.3392  0.0445 -0.2119
  794POPS   D2A12360   4.492  12.821   5.762  0.2010  0.1111 -0.2878
  794POPS   C3A12361   4.036  12.877   5.827 -0.0068 -0.0187  0.1993
  794POPS   C4A12362   3.803  12.451   5.904 -0.2231  0.0520 -0.1630
  794POPS   C1B12363   5.189  12.756   5.848 -0.4108 -0.0366  0.1205
  794POPS   C2B12364   4.822  12.644   6.117 -0.3119 -0.0313 -0.3159
  794POPS   C3B12365   4.719  12.728   6.545 -0.2325 -0.2915 -0.4719
  794POPS   C4B12366   4.591  13.063   6.848  0.2864 -0.2856 -0.2088
  795POPS   CNO12367   5.700  12.297   5.389  0.0035 -0.0509 -0.1164
  795POPS   PO412368   6.090  12.557   5.225  0.1509 -0.1269 -0.1425
  795POPS   GL112369   5.996  12.596   5.595 -0.2176 -0.1419 -0.0897
  795POPS   GL212370   6.319  12.625   5.685 -0.2146  0.0080  0.3845
  795POPS   C1A12371   5.643  12.536   5.789  0.2499 -0.2123 -0.0240
  795POPS   D2A12372   5.481  12.652   6.268  0.0574 -0.3064 -0.0533
  795POPS   C3A12373   5.262  12.668   6.537  0.0024 -0.0332 -0.2160
  795POPS   C4A12374   5.049  12.561   6.948  0.1531 -0.2253  0.1605
  795POPS   C1B12375   6.212  12.619   6.047 -0.2507 -0.0602  0.1866
  795POPS   C2B12376   6.068  12.700   6.439  0.3615  0.0552  0.1188
  795POPS   C3B12377   5.838  12.796   6.791 -0.0094 -0.1425 -0.1502
  795POPS   C4B12378   5.567  12.825   7.070 -0.0511 -0.0109 -0.1612
  796POPS   CNO12379   9.879   4.033   5.397  0.3229  0.1411  0.3463
  796POPS   PO412380   9.566   4.286   5.210  0.1299 -0.1496 -0.3515
  796POPS   GL112381   9.507   4.247   5.737  0.2415 -0.0438  0.0490
  796POPS   GL212382   9.800   4.310   5.886 -0.1704  0.1465 -0.4309
  796POPS   C1A12383   9.428   4.528   6.086  0.0885  0.1202  0.0984
  796POPS   D2A12384   8.957   4.457   6.335 -0.0181 -0.0500 -0.3284
  796POPS   C3A12385   8.764   4.150   6.426 -0.1501 -0.1302 -0.3124
  796POPS   C4A12386   8.699   3.758   6.082 -0.1599  0.0580  0.2739
  796POPS   C1B12387   9.783   4.250   6.302  0.0341 -0.0703  0.3132
  796POPS   C2B12388   9.938   4.378   6.695 -0.0966 -0.0913  0.1765
  796POPS   C3B12389  10.081   4.202   7.105  0.0366  0.2326 -0.1410
  796POPS   C4B12390  10.284   3.846   7.322 -0.3597 -0.1916  0.1640
  797POPS   CNO12391  15.064  18.614   5.945 -0.1704  0.1094 -0.1118
  797POPS   PO412392  14.896  18.843   6.137 -0.0202  0.2372  0.1804
  797POPS   GL112393  14.707  18.820   6.489 -0.0639  0.3182 -0.0555
  797POPS   GL212394  14.725  19.108   6.613  0.3579 -0.0256  0.1102
  797POPS   C1A12395  14.547  18.883   6.965 -0.3538  0.0735 -0.1266
  797POPS   D2A12396  14.420  19.009   7.363  0.1197 -0.1386  0.0610
  797POPS   C3A12397  14.371  18.873   7.732  0.1298  0.1391 -0.3712
  797POPS   C4A12398  14.130  18.617   8.007 -0.0795  0.3688  0.3072
  797POPS   C1B12399  14.745  19.352   7.002 -0.1230  0.0894 -0.2458
  797POPS   C2B12400  14.859  19.286   7.352  0.0928  0.0574  0.1019
  797POPS   C3B12401  14.965  19.500   7.707  0.0781 -0.0892  0.1957
  797POPS   C4B12402  15.402  19.576   7.847  0.1891  0.1017 -0.1828
  798POPS   CNO12403  11.906  16.095   5.164  0.1100 -0.0546 -0.0874
  798POPS   PO412404  12.295  16.077   5.008  0.1099  0.0782  0.1621
  798POPS   GL112405  12.362  15.995   5.511  0.0648  0.1652  0.0724
  798POPS   GL212406  12.072  16.184   5.717  0.0230 -0.0386  0.1074
  798POPS   C1A12407  12.373  15.686   5.831 -0.1266  0.4179  0.0169
  798POPS   D2A12408  12.222  15.408   6.119 -0.1507 -0.1947  0.0349
  798POPS   C3A12409  11.951  15.416   6.435  0.0425  0.1948 -0.2114
  798POPS   C4A12410  11.752  15.310   6.726  0.0183 -0.0642 -0.0447
  798POPS   C1B12411  11.658  16.038   5.660 -0.1110  0.1464  0.0048
  798POPS   C2B12412  11.387  15.802   5.840  0.3269 -0.2857 -0.3029
  798POPS   C3B12413  11.045  15.654   5.985 -0.1013  0.5005 -0.2735
  798POPS   C4B12414  10.748  15.239   5.960 -0.1139 -0.1247  0.0266
  799POPS   CNO12415   4.589  16.212   4.944  0.0045 -0.2949 -0.2070
  799POPS   PO412416   4.549  16.539   5.274  0.2947  0.0632  0.0498
  799POPS   GL112417   4.411  16.530   5.729  0.1077  0.0240 -0.0068
  799POPS   GL212418   4.176  16.356   5.863 -0.0017 -0.2748  0.1230
  799POPS   C1A12419   4.457  16.771   6.082 -0.2655 -0.3535  0.0337
  799POPS   D2A12420   4.488  16.684   6.484  0.1353  0.0203  0.1422
  799POPS   C3A12421   4.286  16.847   6.790 -0.1268 -0.2032 -0.0218
  799POPS   C4A12422   4.402  16.963   7.244 -0.0505 -0.1429 -0.3191
  799POPS   C1B12423   4.176  16.351   6.257  0.2118  0.0891  0.4018
  799POPS   C2B12424   4.015  16.453   6.680  0.0572  0.0096 -0.1172
  799POPS   C3B12425   3.828  16.389   7.072  0.1353 -0.1613 -0.1367
  799POPS   C4B12426   3.829  16.133   7.417 -0.0084 -0.2242 -0.0133
  800POPS   CNO12427  16.869  18.768   5.850  0.0035  0.2529 -0.0803
  800POPS   PO412428  17.212  18.944   5.675  0.0672  0.1232  0.1611
  800POPS   GL112429  17.180  19.100   6.098 -0.1741  0.0737  0.0761
  800POPS   GL212430  17.548  19.060   6.214  0.3781 -0.0685 -0.2130
  800POPS   C1A12431  17.240  19.166   6.598  0.2115  0.3394 -0.0307
  800POPS   D2A12432  17.101  19.019   6.935 -0.0485  0.1182 -0.0905
  800POPS   C3A12433  17.047  19.148   7.177 -0.1849 -0.2449 -0.0725
  800POPS   C4A12434  17.091  19.009   7.574  0.0319 -0.1258  0.1800
  800POPS   C1B12435  17.602  18.802   6.524  0.0911 -0.1363 -0.0344
  800POPS   C2B12436  17.567  18.814   6.897  0.0385 -0.0575  0.0084
  800POPS   C3B12437  17.531  18.807   7.327  0.3679  0.0947 -0.2016
  800POPS   C4B12438  17.591  18.686   7.780 -0.0232  0.1301  0.0103
  801POPS   CNO12439   3.532  14.730   5.040 -0.0474 -0.1531 -0.0539
  801POPS   PO412440   3.479  14.901   5.488 -0.1770  0.3648 -0.0154
  801POPS   GL112441   3.557  15.206   5.750 -0.0551 -0.2681 -0.0009
  801POPS   GL212442   3.878  15.417   5.753  0.2085  0.0301  0.2445
  801POPS   C1A12443   3.645  15.063   6.181 -0.0971 -0.1163  0.0727
  801POPS   D2A12444   3.605  15.258   6.513  0.3431 -0.2583 -0.1862
  801POPS   C3A12445   3.539  14.993   6.932  0.1363 -0.4440  0.0287
  801POPS   C4A12446   3.457  14.608   6.890  0.1266  0.1917 -0.4125
  801POPS   C1B12447   4.102  15.348   6.199  0.3238 -0.0932 -0.1330
  801POPS   C2B12448   4.058  15.377   6.627  0.0414 -0.1400 -0.2424
  801POPS   C3B12449   3.887  15.457   6.915  0.0382 -0.3916  0.2662
  801POPS   C4B12450   4.032  15.660   7.258 -0.0957  0.2665  0.1168
  802POPS   CNO12451   0.352  14.912   5.367  0.2922  0.2595  0.0026
  802POPS   PO412452   0.383  15.320   5.203  0.0423 -0.2195  0.1223
  802POPS   GL112453   0.614  15.241   5.658 -0.0542 -0.0364  0.0028
  802POPS   GL212454   0.328  15.234   5.776  0.2156  0.3822  0.1324
  802POPS   C1A12455   0.765  15.510   6.021 -0.0065  0.1008 -0.0814
  802POPS   D2A12456   0.836  15.759   6.417  0.2166  0.5147 -0.0580
  802POPS   C3A12457   0.660  15.574   6.871 -0.3825 -0.0605 -0.0845
  802POPS   C4A12458   0.801  15.672   7.328 -0.1935 -0.3185  0.1214
  802POPS   C1B12459   0.162  15.200   6.144 -0.1240  0.0592 -0.1163
  802POPS   C2B12460   0.180  15.061   6.614 -0.1345  0.0066 -0.1201
  802POPS   C3B12461   0.559  15.028   6.818 -0.1556  0.3553 -0.2600
  802POPS   C4B12462   0.789  15.176   7.208  0.1734  0.3181  0.0450
  803POPS   CNO12463   0.212  18.640   5.649  0.2841 -0.1219  0.3197
  803POPS   PO412464   0.604  18.717   5.435  0.1110 -0.1716 -0.0068
  803POPS   GL112465   0.717  18.544   5.837 -0.0724 -0.2223 -0.2576
  803POPS   GL212466   0.436  18.432   6.052 -0.2792  0.2891  0.1244
  803POPS   C1A12467   0.901  18.082   6.091  0.2447  0.2485  0.0937
  803POPS   D2A12468   0.884  17.698   6.386 -0.0001 -0.0800 -0.1599
  803POPS   C3A12469   0.795  17.812   6.770  0.0829  0.2204 -0.1329
  803POPS   C4A12470   0.299  18.007   6.832 -0.2247 -0.3379  0.0128
  803POPS   C1B12471   0.503  18.712   6.367 -0.2270  0.1724  0.1626
  803POPS   C2B12472   0.118  18.912   6.562  0.0362 -0.0849 -0.1111
  803POPS   C3B12473   0.136  18.775   7.021  0.0296  0.0210  0.1068
  803POPS   C4B12474   0.148  18.410   7.239 -0.2514  0.1379 -0.4486
  804POPS   CNO12475  14.194   4.174   5.285 -0.2293  0.1431  0.0702
  804POPS   PO412476  14.568   4.352   5.181 -0.0080  0.0513 -0.1923
  804POPS   GL112477  14.664   4.281   5.626 -0.2696  0.4174 -0.2048
  804POPS   GL212478  14.977   4.405   5.799  0.2163  0.1693  0.0384
  804POPS   C1A12479  14.693   3.998   5.976  0.1243 -0.1585  0.0939
  804POPS   D2A12480  14.604   3.913   6.395  0.2484  0.1240 -0.4192
  804POPS   C3A12481  14.659   3.919   6.833 -0.0179  0.1303 -0.2277
  804POPS   C4A12482  14.925   3.809   7.294  0.1822  0.4412  0.0688
  804POPS   C1B12483  14.820   4.405   6.192  0.1846  0.2202 -0.1365
  804POPS   C2B12484  14.811   4.401   6.663 -0.0214  0.0931 -0.0503
  804POPS   C3B12485  14.673   4.760   6.902  0.2723 -0.0696  0.1773
  804POPS   C4B12486  14.656   5.198   6.784 -0.2472 -0.0906  0.1805
  805POPS   CNO12487   3.091  13.629   5.461 -0.3049 -0.0553  0.1440
  805POPS   PO412488   2.951  14.072   5.354 -0.0208 -0.2529 -0.1339
  805POPS   GL112489   2.960  14.014   5.770 -0.4801  0.1597  0.0712
  805POPS   GL212490   3.094  14.311   5.838 -0.2808  0.3313 -0.0609
  805POPS   C1A12491   3.180  13.740   6.082  0.0973 -0.1590 -0.1366
  805POPS   D2A12492   3.188  13.695   6.579 -0.0136 -0.1010 -0.0941
  805POPS   C3A12493   2.909  13.951   6.814  0.2013  0.2369 -0.1792
  805POPS   C4A12494   2.619  13.786   7.088 -0.1141 -0.2431  0.2739
  805POPS   C1B12495   3.312  14.658   6.140  0.1119 -0.0224  0.0213
  805POPS   C2B12496   3.216  14.906   6.544  0.0557  0.1827  0.0871
  805POPS   C3B12497   3.087  14.920   7.017 -0.1514 -0.0643 -0.0374
  805POPS   C4B12498   2.845  14.740   7.276  0.0277  0.2089  0.1428
  806POPS   CNO12499   7.858  12.956   4.933 -0.0134  0.0122  0.3223
  806POPS   PO412500   8.008  13.277   5.215  0.1149  0.2094  0.1195
  806POPS   GL112501   8.010  13.364   5.673  0.0282 -0.1176 -0.1959
  806POPS   GL212502   8.072  13.778   5.602  0.2810 -0.0158  0.2213
  806POPS   C1A12503   7.638  13.354   5.973 -0.1721  0.2842  0.3216
  806POPS   D2A12504   7.341  13.425   6.159 -0.3947  0.1923 -0.3607
  806POPS   C3A12505   7.535  13.351   6.537  0.0809  0.0251 -0.0645
  806POPS   C4A12506   7.645  13.221   6.940 -0.0069  0.0271  0.1209
  806POPS   C1B12507   8.063  13.690   6.035  0.2199 -0.0623 -0.1175
  806POPS   C2B12508   7.990  13.563   6.452 -0.0157 -0.1765  0.0158
  806POPS   C3B12509   8.019  13.510   6.930 -0.2845 -0.0312 -0.0048
  806POPS   C4B12510   7.832  13.741   7.245 -0.3045 -0.0849  0.0766
  807POPS   CNO12511  12.844  17.961   5.726 -0.0069  0.0687  0.1937
  807POPS   PO412512  13.140  17.665   6.038 -0.2105  0.0422 -0.0924
  807POPS   GL112513  13.194  17.539   6.429 -0.0051  0.0217  0.2895
  807POPS   GL212514  13.197  17.325   6.458  0.0777 -0.0408 -0.1168
  807POPS   C1A12515  13.354  17.534   6.911  0.1209 -0.0740  0.0605
  807POPS   D2A12516  13.598  17.452   7.361  0.1086 -0.0644 -0.0774
  807POPS   C3A12517  13.453  17.303   7.695  0.0668  0.2216 -0.1026
  807POPS   C4A12518  13.176  16.933   7.730  0.0438  0.2063 -0.1829
  807POPS   C1B12519  12.895  17.253   6.833 -0.1978 -0.0358 -0.0747
  807POPS   C2B12520  12.552  17.217   7.195 -0.3348 -0.2584  0.2117
  807POPS   C3B12521  12.475  17.255   7.588  0.0203  0.1858 -0.4612
  807POPS   C4B12522  12.088  17.096   7.773 -0.0635 -0.2700  0.0324
  808POPS   CNO12523  19.007  12.991   5.590  0.3578 -0.1308 -0.0346
  808POPS   PO412524  19.397  13.128   5.259 -0.1180  0.3962  0.0515
  808POPS   GL112525  19.492  12.834   5.653  0.0792 -0.1837  0.1011
  808POPS   GL212526  19.585  12.498   5.714 -0.0964  0.1354  0.1620
  808POPS   C1A12527  19.324  13.018   6.073 -0.0457 -0.1549 -0.0029
  808POPS   D2A12528  19.270  13.092   6.483  0.1918  0.3109  0.0663
  808POPS   C3A12529  19.299  13.507   6.710  0.0580 -0.0788 -0.0689
  808POPS   C4A12530  19.451  13.755   7.069 -0.0753  0.0274  0.0070
  808POPS   C1B12531  20.001  12.263   5.890 -0.2140 -0.1942 -0.1038
  808POPS   C2B12532  20.250  12.238   6.301 -0.1486  0.2035 -0.1959
  808POPS   C3B12533  20.472  12.260   6.706 -0.0032  0.0444 -0.1933
  808POPS   C4B12534  20.265  12.419   7.055 -0.3027  0.1442  0.0832
  809POPS   CNO12535   3.341  18.857   4.811  0.0678  0.0430  0.1315
  809POPS   PO412536   3.591  18.642   5.069  0.1844 -0.1456  0.4971
  809POPS   GL112537   3.594  18.840   5.458  0.0610 -0.0484 -0.0387
  809POPS   GL212538   3.855  19.115   5.541 -0.2626 -0.0525 -0.3073
  809POPS   C1A12539   3.412  18.936   5.809  0.2269 -0.0213 -0.1470
  809POPS   D2A12540   3.598  18.853   6.193  0.0429 -0.3940  0.2238
  809POPS   C3A12541   4.011  18.627   6.339  0.0110  0.0846  0.0050
  809POPS   C4A12542   4.461  18.622   6.436  0.0307 -0.1691 -0.2432
  809POPS   C1B12543   3.843  19.238   5.990  0.2095 -0.0363 -0.1375
  809POPS   C2B12544   3.901  19.172   6.506 -0.3099 -0.3270  0.2972
  809POPS   C3B12545   3.911  18.938   6.829  0.1302  0.2806 -0.0846
  809POPS   C4B12546   3.798  18.612   7.175 -0.1510  0.2407  0.0615
  810POPS   CNO12547   5.093  17.453   4.783  0.0208 -0.0087 -0.0765
  810POPS   PO412548   4.990  17.180   5.140  0.0471 -0.3101 -0.1437
  810POPS   GL112549   5.176  17.017   5.481  0.0868 -0.0720 -0.0091
  810POPS   GL212550   4.990  16.717   5.595 -0.1336 -0.2053  0.0865
  810POPS   C1A12551   5.251  17.137   5.877  0.1156  0.1137 -0.1550
  810POPS   D2A12552   5.446  17.308   6.198 -0.0992 -0.0367 -0.2133
  810POPS   C3A12553   5.344  17.644   6.463  0.0792  0.0052  0.0852
  810POPS   C4A12554   5.224  17.445   6.832  0.0746 -0.2121 -0.0371
  810POPS   C1B12555   4.962  16.600   6.026  0.2366 -0.0635 -0.1324
  810POPS   C2B12556   5.088  16.509   6.538  0.1809 -0.0668  0.0159
  810POPS   C3B12557   5.346  16.587   6.969  0.3737 -0.3129 -0.1134
  810POPS   C4B12558   5.309  16.440   7.330 -0.2929 -0.4133 -0.2658
  811POPS   CNO12559   9.782  11.955   5.149  0.4870 -0.0133 -0.1146
  811POPS   PO412560   9.915  11.996   5.464 -0.4491  0.0258  0.0874
  811POPS   GL112561  10.195  12.034   5.727  0.0377  0.1146 -0.2332
  811POPS   GL212562  10.248  12.268   5.743 -0.0282 -0.2989 -0.5595
  811POPS   C1A12563  10.022  11.968   6.153 -0.1648  0.0321 -0.1153
  811POPS   D2A12564   9.939  11.968   6.546  0.1022  0.2042 -0.2448
  811POPS   C3A12565   9.780  11.510   6.662  0.2000 -0.2086  0.0156
  811POPS   C4A12566   9.646  11.167   6.625  0.0593  0.1039 -0.0237
  811POPS   C1B12567  10.081  12.467   6.046 -0.0753  0.2279  0.2503
  811POPS   C2B12568   9.781  12.862   6.066  0.1290 -0.2099 -0.2592
  811POPS   C3B12569   9.646  13.218   6.390  0.0043  0.1077  0.2879
  811POPS   C4B12570   9.678  13.411   6.766 -0.1667 -0.1896  0.3282
  812POPS   CNO12571   6.845  15.510   4.779  0.4499  0.2497 -0.3238
  812POPS   PO412572   6.879  15.410   5.182 -0.1855 -0.1171 -0.2375
  812POPS   GL112573   7.101  15.140   5.482  0.0937  0.3037 -0.0531
  812POPS   GL212574   7.162  15.477   5.611  0.0215  0.0598  0.0516
  812POPS   C1A12575   7.047  14.854   5.771  0.1836 -0.0832 -0.1262
  812POPS   D2A12576   7.084  14.441   5.959 -0.1316  0.1504 -0.0336
  812POPS   C3A12577   7.335  14.296   6.353  0.0957 -0.2999 -0.2563
  812POPS   C4A12578   7.615  14.339   6.711 -0.1014  0.0832  0.0778
  812POPS   C1B12579   7.262  15.729   5.959  0.1250 -0.0988 -0.1696
  812POPS   C2B12580   7.051  15.736   6.404  0.1178 -0.2189 -0.2719
  812POPS   C3B12581   6.899  15.788   6.761  0.0307  0.1559 -0.3929
  812POPS   C4B12582   6.716  15.660   7.137 -0.1124 -0.0240 -0.3012
  813POPS   CNO12583   1.961   9.233   5.047 -0.2340 -0.0229 -0.0597
  813POPS   PO412584   1.902   9.129   5.371  0.2776  0.0469 -0.0233
  813POPS   GL112585   1.721   8.968   5.714 -0.3853  0.1125 -0.1469
  813POPS   GL212586   1.748   8.694   5.583 -0.1324  0.0464  0.0190
  813POPS   C1A12587   1.706   9.023   6.152 -0.0109 -0.0273  0.0678
  813POPS   D2A12588   1.799   9.306   6.562  0.1649 -0.3601 -0.0912
  813POPS   C3A12589   2.033   9.122   7.007 -0.0535  0.1870 -0.1289
  813POPS   C4A12590   2.213   9.114   7.385  0.0212 -0.1150  0.1902
  813POPS   C1B12591   1.723   8.374   5.786  0.2479  0.2988 -0.4422
  813POPS   C2B12592   1.693   8.003   6.086  0.1400 -0.0674  0.1831
  813POPS   C3B12593   1.389   7.767   6.402  0.5624  0.0290 -0.1085
  813POPS   C4B12594   1.100   7.820   6.721  0.0278  0.1313 -0.0647
  814YOPS   CNO12595   6.947  13.504   4.439  0.0287 -0.1907  0.1933
  814YOPS   PO412596   6.944  13.408   4.849 -0.2802  0.1307  0.1774
  814YOPS   GL112597   6.971  13.231   5.277  0.2032 -0.2480 -0.0133
  814YOPS   GL212598   6.910  13.520   5.414  0.0138  0.1688 -0.0758
  814YOPS   C1A12599   6.999  13.278   5.821  0.0983  0.4813 -0.1077
  814YOPS   D2A12600   6.696  13.283   6.155  0.2003 -0.4075  0.0480
  814YOPS   C3A12601   6.372  13.144   6.456 -0.0994 -0.2384 -0.1300
  814YOPS   C4A12602   6.321  12.931   6.807  0.1837 -0.1432  0.2091
  814YOPS   C1B12603   6.559  13.248   5.565  0.0461  0.0431  0.0724
  814YOPS   C2B12604   6.119  13.103   5.764 -0.1424  0.1644  0.2375
  814YOPS   D3B12605   5.973  13.099   6.090  0.2560  0.3577 -0.1235
  814YOPS   C4B12606   5.575  13.024   5.927 -0.1384  0.1472 -0.0308
  815YOPS   CNO12607  13.657  18.973   6.102 -0.1195  0.1393  0.0236
  815YOPS   PO412608  13.815  19.168   5.676  0.0714 -0.2157 -0.1829
  815YOPS   GL112609  13.989  19.360   6.114 -0.2297  0.2049 -0.1292
  815YOPS   GL212610  14.203  19.599   6.019 -0.0374 -0.3468  0.0153
  815YOPS   C1A12611  13.734  19.452   6.428 -0.0193  0.0752  0.0776
  815YOPS   D2A12612  13.825  19.666   6.724 -0.0816  0.0462 -0.0123
  815YOPS   C3A12613  14.059  19.918   6.976 -0.1004  0.0993 -0.0722
  815YOPS   C4A12614  14.054  19.874   7.417  0.1068 -0.0841 -0.0594
  815YOPS   C1B12615  13.944  19.880   6.296  0.0120 -0.1778  0.0791
  815YOPS   C2B12616  13.723  20.185   6.531 -0.0937 -0.2662  0.0872
  815YOPS   D3B12617  13.548  20.106   7.001 -0.1696  0.2504  0.0357
  815YOPS   C4B12618  13.565  19.975   7.507 -0.3446 -0.0691  0.1768
  816YOPS   CNO12619   4.057  12.270   4.528 -0.0351 -0.1707 -0.2411
  816YOPS   PO412620   4.171  12.363   4.988 -0.0176  0.1128 -0.0674
  816YOPS   GL112621   4.094  12.157   5.381 -0.1246 -0.0827 -0.1352
  816YOPS   GL212622   4.297  12.398   5.630  0.0574 -0.1648  0.0016
  816YOPS   C1A12623   4.020  12.017   5.800  0.2259  0.3139 -0.5257
  816YOPS   D2A12624   4.197  11.956   6.189  0.0645 -0.1494 -0.1499
  816YOPS   C3A12625   4.560  11.870   6.525 -0.0519 -0.0035  0.1623
  816YOPS   C4A12626   4.448  11.862   6.930 -0.0377 -0.1593  0.2555
  816YOPS   C1B12627   4.354  12.455   6.060 -0.0814 -0.1163  0.0626
  816YOPS   C2B12628   4.418  12.361   6.519  0.1577 -0.2560 -0.2907
  816YOPS   D3B12629   4.530  12.492   6.892 -0.2666  0.1909 -0.0308
  816YOPS   C4B12630   4.667  12.780   7.248  0.0396 -0.1473  0.1443
  817YOPS   CNO12631   1.628   6.725   4.904  0.1007  0.1129 -0.1885
  817YOPS   PO412632   1.751   6.553   5.268 -0.2223 -0.0297 -0.0861
  817YOPS   GL112633   1.416   6.535   5.581  0.2971 -0.0165 -0.1759
  817YOPS   GL212634   1.088   6.692   5.642  0.0060 -0.4895  0.3189
  817YOPS   C1A12635   1.483   6.237   5.881  0.3238 -0.0953 -0.2407
  817YOPS   D2A12636   1.206   6.103   6.195  0.0497 -0.3965 -0.3725
  817YOPS   C3A12637   1.045   5.847   6.487  0.1225  0.1932 -0.0092
  817YOPS   C4A12638   0.659   5.749   6.520  0.3698 -0.1326 -0.0973
  817YOPS   C1B12639   1.381   6.731   5.999  0.2409 -0.1773 -0.1772
  817YOPS   C2B12640   1.740   6.511   6.176 -0.0406 -0.1811  0.1176
  817YOPS   D3B12641   2.033   6.507   6.322 -0.2785 -0.2337 -0.0914
  817YOPS   C4B12642   2.276   6.182   6.389  0.0185  0.0468 -0.1158
  818YOPS   CNO12643  12.116  10.282   5.337 -0.0495  0.1079 -0.1161
  818YOPS   PO412644  11.740  10.409   5.155  0.0972  0.1998 -0.2922
  818YOPS   GL112645  11.509  10.342   5.553  0.0960 -0.2026 -0.1872
  818YOPS   GL212646  11.747  10.348   5.748  0.2221  0.2066 -0.1213
  818YOPS   C1A12647  11.249  10.261   5.948 -0.0969  0.1469 -0.1275
  818YOPS   D2A12648  10.796  10.167   6.026  0.0475  0.1992 -0.1155
  818YOPS   C3A12649  10.550   9.888   6.237 -0.0486  0.2947  0.1814
  818YOPS   C4A12650  10.346   9.845   6.659 -0.0682 -0.1828  0.0986
  818YOPS   C1B12651  11.463  10.678   5.925 -0.0037 -0.2077  0.0945
  818YOPS   C2B12652  11.260  11.078   6.095  0.2326  0.5223  0.0659
  818YOPS   D3B12653  11.292  11.314   6.510 -0.2763 -0.0578  0.0127
  818YOPS   C4B12654  11.545  11.205   6.998 -0.2542  0.0708 -0.3458
  819YOPS   CNO12655  10.410  17.743   5.293 -0.0527 -0.1555 -0.2570
  819YOPS   PO412656  10.574  17.551   5.679 -0.0472 -0.0648 -0.0835
  819YOPS   GL112657  10.580  17.774   6.096  0.0814 -0.0155  0.2783
  819YOPS   GL212658  10.875  17.940   6.216 -0.1807 -0.1636 -0.1245
  819YOPS   C1A12659  10.603  17.652   6.599 -0.0733  0.1569  0.3161
  819YOPS   D2A12660  10.584  17.744   7.006 -0.2062 -0.1063  0.0920
  819YOPS   C3A12661  10.597  17.750   7.468  0.1479 -0.0190 -0.2066
  819YOPS   C4A12662  10.614  18.075   7.812  0.2174  0.2669  0.2549
  819YOPS   C1B12663  11.067  18.070   6.539  0.0310  0.0837  0.4530
  819YOPS   C2B12664  11.005  18.108   6.901  0.1513  0.0905 -0.2795
  819YOPS   D3B12665  10.751  18.188   7.364 -0.2619  0.4535  0.2295
  819YOPS   C4B12666  10.925  18.431   7.727  0.0742 -0.2963  0.2365
  820YOPS   CNO12667   1.133   4.176   5.261 -0.0462  0.1509  0.0105
  820YOPS   PO412668   1.626   4.024   5.185 -0.1823 -0.2759  0.0151
  820YOPS   GL112669   1.603   4.150   5.569  0.3278 -0.2269 -0.3426
  820YOPS   GL212670   1.283   4.006   5.702 -0.0676  0.3015  0.0871
  820YOPS   C1A12671   1.656   4.453   5.892  0.1348  0.0254  0.0849
  820YOPS   D2A12672   1.496   4.737   6.258 -0.2691  0.3880  0.1500
  820YOPS   C3A12673   1.415   4.657   6.617 -0.1373  0.3063 -0.1741
  820YOPS   C4A12674   1.605   4.510   6.955  0.1033 -0.1658  0.0021
  820YOPS   C1B12675   1.387   4.145   6.138 -0.1572  0.4198  0.2702
  820YOPS   C2B12676   1.761   4.276   6.346  0.0162 -0.1148  0.0001
  820YOPS   D3B12677   1.929   4.508   6.620 -0.2669 -0.1415  0.0945
  820YOPS   C4B12678   2.257   4.900   6.560  0.1690 -0.2082  0.2010
  821YOPS   CNO12679  10.786  18.926   5.742 -0.1636 -0.0394  0.0527
  821YOPS   PO412680  11.215  18.894   5.514  0.0048  0.0771 -0.1145
  821YOPS   GL112681  11.239  18.784   5.911 -0.0040  0.1614  0.3265
  821YOPS   GL212682  11.325  18.510   6.020 -0.5838 -0.1157  0.0510
  821YOPS   C1A12683  11.567  19.023   6.187  0.5488  0.0336 -0.2322
  821YOPS   D2A12684  11.721  19.053   6.549  0.0231 -0.1813  0.0160
  821YOPS   C3A12685  11.875  19.167   6.925 -0.1792 -0.1359  0.3388
  821YOPS   C4A12686  11.826  19.028   7.309 -0.1483  0.2972 -0.1465
  821YOPS   C1B12687  11.435  18.602   6.432  0.0004  0.0582  0.0467
  821YOPS   C2B12688  11.426  18.832   6.888  0.0506  0.2432 -0.0035
  821YOPS   D3B12689  11.358  18.831   7.280  0.1100  0.0077 -0.3051
  821YOPS   C4B12690  11.067  19.045   7.561  0.1169 -0.1928  0.1192
  822YOPS   CNO12691  17.016   5.134   4.579  0.4963 -0.0717  0.1521
  822YOPS   PO412692  16.920   4.948   4.950 -0.1591  0.0371  0.1562
  822YOPS   GL112693  17.040   4.834   5.502  0.3815 -0.0386  0.1810
  822YOPS   GL212694  16.735   4.606   5.604  0.0072  0.0104 -0.1612
  822YOPS   C1A12695  17.179   4.791   5.982 -0.1400  0.1403  0.0754
  822YOPS   D2A12696  17.150   4.868   6.437 -0.2301  0.3358 -0.3712
  822YOPS   C3A12697  16.832   4.791   6.575  0.2083 -0.2542  0.2807
  822YOPS   C4A12698  16.715   4.703   6.278 -0.1711  0.1153 -0.3251
  822YOPS   C1B12699  16.665   4.990   5.868  0.1946  0.2798  0.1306
  822YOPS   C2B12700  16.751   5.228   6.203 -0.0669  0.3175 -0.0118
  822YOPS   D3B12701  16.496   5.553   6.399  0.4962  0.3281 -0.0458
  822YOPS   C4B12702  16.067   5.661   6.248  0.0894 -0.2842  0.0405
  823YOPS   CNO12703  15.117  15.591   5.619  0.2156  0.2119  0.3449
  823YOPS   PO412704  15.371  15.350   5.704 -0.1168  0.0897 -0.1782
  823YOPS   GL112705  15.234  15.383   6.113 -0.1432  0.0625 -0.1870
  823YOPS   GL212706  15.117  15.750   6.179 -0.0193 -0.2166 -0.0262
  823YOPS   C1A12707  14.913  15.430   6.520 -0.2105 -0.2078 -0.1692
  823YOPS   D2A12708  14.705  15.516   6.905 -0.0435  0.0441  0.1186
  823YOPS   C3A12709  14.433  15.403   7.186  0.3231 -0.1720  0.2407
  823YOPS   C4A12710  14.173  15.605   7.455 -0.0051 -0.2026 -0.0145
  823YOPS   C1B12711  15.387  15.557   6.518  0.2758  0.2303  0.0126
  823YOPS   C2B12712  15.190  15.402   6.920  0.2071  0.1397  0.4508
  823YOPS   D3B12713  15.051  15.226   7.221  0.1817 -0.0360 -0.0703
  823YOPS   C4B12714  14.712  14.969   7.214 -0.1967 -0.3140  0.2469
  824YOPS   CNO12715  11.432  11.826   4.686  0.0472  0.0168  0.2334
  824YOPS   PO412716  11.806  12.088   4.853  0.1558  0.0235 -0.1063
  824YOPS   GL112717  11.628  11.789   5.216 -0.3725 -0.0449 -0.0983
  824YOPS   GL212718  11.838  11.747   5.403 -0.2974 -0.2485 -0.3697
  824YOPS   C1A12719  11.339  11.679   5.669  0.1004 -0.0722  0.2452
  824YOPS   D2A12720  11.437  11.615   6.158  0.2295 -0.1744 -0.1444
  824YOPS   C3A12721  11.403  11.936   6.479  0.1442  0.2729 -0.1257
  824YOPS   C4A12722  11.524  12.429   6.568 -0.1113 -0.2384 -0.1439
  824YOPS   C1B12723  11.897  11.711   5.851 -0.0270 -0.0785  0.1312
  824YOPS   C2B12724  11.866  11.399   6.234  0.0446 -0.3236 -0.3587
  824YOPS   D3B12725  11.799  11.035   6.231  0.0784 -0.3890 -0.0597
  824YOPS   C4B12726  11.473  10.768   6.471 -0.1426 -0.1239 -0.5660
  825YOPS   CNO12727  11.303   9.278   4.945 -0.4474  0.0568 -0.1050
  825YOPS   PO412728  11.037   8.946   4.919  0.0278  0.0596 -0.2048
  825YOPS   GL112729  11.045   8.646   5.296  0.0370 -0.1885  0.1198
  825YOPS   GL212730  11.129   8.340   5.347  0.0083 -0.0585  0.0565
  825YOPS   C1A12731  11.223   8.776   5.675  0.1243 -0.2403 -0.2719
  825YOPS   D2A12732  11.149   8.899   6.100  0.0744  0.1112 -0.0054
  825YOPS   C3A12733  11.312   9.090   6.530 -0.1880 -0.1342  0.0612
  825YOPS   C4A12734  11.192   8.893   6.971 -0.0355 -0.1134  0.2283
  825YOPS   C1B12735  11.248   8.171   5.846  0.3075  0.4452  0.0379
  825YOPS   C2B12736  11.443   8.093   6.207  0.1237  0.1003 -0.2721
  825YOPS   D3B12737  11.627   7.691   6.286 -0.1727  0.1912  0.2865
  825YOPS   C4B12738  11.632   7.588   6.649  0.1703 -0.0712  0.1698
  826YOPS   CNO12739  15.254  17.896   5.819 -0.1468  0.0214  0.2783
  826YOPS   PO412740  14.919  18.128   5.974  0.1100 -0.2049  0.3314
  826YOPS   GL112741  14.817  18.098   6.305  0.0129 -0.2354  0.0175
  826YOPS   GL212742  14.774  18.331   6.442 -0.1254  0.1932  0.0142
  826YOPS   C1A12743  14.720  17.866   6.721 -0.0752  0.0436  0.0529
  826YOPS   D2A12744  14.750  17.783   7.189  0.0453 -0.0664  0.0674
  826YOPS   C3A12745  14.675  17.752   7.561 -0.4934  0.2173 -0.0023
  826YOPS   C4A12746  14.493  17.936   7.874  0.0699 -0.1902 -0.1153
  826YOPS   C1B12747  14.664  18.375   6.849 -0.1998  0.1747 -0.1979
  826YOPS   C2B12748  14.623  18.490   7.298  0.0360  0.1549 -0.0027
  826YOPS   D3B12749  14.632  18.406   7.776  0.0806 -0.0430  0.1409
  826YOPS   C4B12750  14.635  18.741   8.162  0.1792 -0.1063 -0.0150
  827YOPS   CNO12751   9.881   1.284   4.936  0.0004  0.2597 -0.3521
  827YOPS   PO412752  10.000   1.074   5.303  0.2795 -0.2222 -0.0676
  827YOPS   GL112753  10.131   0.944   5.729 -0.1832 -0.0751  0.0441
  827YOPS   GL212754  10.008   1.166   5.998  0.2468 -0.0945  0.1595
  827YOPS   C1A12755  10.084   0.583   5.897  0.0810 -0.1995 -0.1995
  827YOPS   D2A12756   9.944   0.333   6.297  0.0825  0.1587 -0.0797
  827YOPS   C3A12757  10.162   0.155   6.626  0.0344 -0.0721  0.2435
  827YOPS   C4A12758   9.960   0.318   7.069 -0.5042  0.1355  0.3420
  827YOPS   C1B12759   9.829   1.017   6.331  0.0748  0.1517 -0.4692
  827YOPS   C2B12760   9.346   1.074   6.529 -0.0064 -0.1018 -0.0198
  827YOPS   D3B12761   9.218   0.991   6.874  0.0204  0.0201  0.0648
  827YOPS   C4B12762   9.030   1.129   7.146  0.0864  0.1132  0.0848
  828YOPS   CNO12763  19.097   1.574   5.366 -0.0790  0.0968  0.0236
  828YOPS   PO412764  19.042   1.110   5.476  0.0753  0.2373 -0.4133
  828YOPS   GL112765  19.176   1.039   5.911 -0.1522 -0.2203 -0.2117
  828YOPS   GL212766  19.047   0.797   5.975 -0.0768 -0.0131 -0.1875
  828YOPS   C1A12767  19.422   1.229   6.238 -0.1304 -0.0003 -0.1690
  828YOPS   D2A12768  19.555   1.221   6.700 -0.2118 -0.3310 -0.1495
  828YOPS   C3A12769  19.603   1.473   6.962  0.0786 -0.2231  0.2608
  828YOPS   C4A12770  19.163   1.657   7.030  0.1936 -0.0081  0.2358
  828YOPS   C1B12771  19.172   0.848   6.426 -0.2564  0.3104 -0.1293
  828YOPS   C2B12772  19.127   0.841   6.883 -0.0317  0.0162  0.0860
  828YOPS   D3B12773  19.193   0.847   7.284  0.1440  0.0301  0.2192
  828YOPS   C4B12774  19.444   0.657   7.650 -0.0943 -0.0682 -0.1157
  829YOPS   CNO12775  14.919   6.110   5.350  0.0455  0.2244 -0.4013
  829YOPS   PO412776  14.583   5.969   5.210  0.1962 -0.4093  0.1086
  829YOPS   GL112777  14.235   5.815   5.307 -0.0889 -0.0217 -0.0555
  829YOPS   GL212778  14.178   5.613   5.532 -0.0092  0.0587 -0.1258
  829YOPS   C1A12779  14.009   6.098   5.664  0.0516  0.0874 -0.0722
  829YOPS   D2A12780  13.972   6.247   6.086 -0.0206 -0.1239 -0.2528
  829YOPS   C3A12781  14.001   6.062   6.528  0.0799  0.3797 -0.1899
  829YOPS   C4A12782  13.664   5.785   6.779  0.0918 -0.2088  0.1209
  829YOPS   C1B12783  14.073   5.558   5.933 -0.0089  0.1151  0.0051
  829YOPS   C2B12784  13.737   5.757   6.162 -0.0002 -0.0421  0.1747
  829YOPS   D3B12785  13.500   6.161   6.328 -0.2827  0.0062 -0.0237
  829YOPS   C4B12786  13.762   6.533   6.443 -0.0659  0.1065  0.0120
  830YOPS   CNO12787  10.801   1.441   5.353 -0.1827 -0.0616  0.0059
  830YOPS   PO412788  10.565   1.391   5.695 -0.2173  0.3986 -0.1256
  830YOPS   GL112789  10.645   1.089   5.972 -0.1666 -0.0527 -0.2487
  830YOPS   GL212790  10.580   0.742   5.942 -0.0352 -0.1236  0.0386
  830YOPS   C1A12791  10.742   0.858   6.411 -0.1746 -0.0275 -0.1522
  830YOPS   D2A12792  10.794   0.951   6.802  0.0840 -0.0797  0.1844
  830YOPS   C3A12793  10.606   1.121   7.149  0.4579 -0.3526  0.2480
  830YOPS   C4A12794  10.428   1.496   6.858  0.1433 -0.2777 -0.2361
  830YOPS   C1B12795  10.260   0.710   6.314 -0.0013 -0.0889  0.0070
  830YOPS   C2B12796   9.940   0.619   6.678  0.1272 -0.0027 -0.0694
  830YOPS   D3B12797   9.698   0.805   6.879  0.0556 -0.0733  0.0460
  830YOPS   C4B12798   9.880   0.884   7.265  0.2131  0.0626 -0.4345
  831YOPS   CNO12799   0.913  12.340   4.967  0.0966  0.3362  0.0697
  831YOPS   PO412800   1.228  12.545   5.098 -0.1190 -0.0231 -0.1373
  831YOPS   GL112801   1.031  12.613   5.469 -0.1886  0.1822  0.0786
  831YOPS   GL212802   1.269  12.764   5.634 -0.1152 -0.4611  0.2525
  831YOPS   C1A12803   0.757  12.774   5.800 -0.0457  0.3971 -0.1948
  831YOPS   D2A12804   0.730  12.730   6.224 -0.3100  0.2615  0.3129
  831YOPS   C3A12805   0.835  12.619   6.613 -0.2281 -0.1255  0.0636
  831YOPS   C4A12806   0.754  12.925   6.980 -0.1886  0.2053 -0.3743
  831YOPS   C1B12807   1.229  12.623   6.035  0.3458 -0.1121  0.1735
  831YOPS   C2B12808   1.347  12.612   6.433 -0.1476  0.0159  0.0351
  831YOPS   D3B12809   1.347  12.719   6.856  0.1666 -0.1422  0.2571
  831YOPS   C4B12810   1.661  12.847   7.191  0.2281  0.0997  0.0278
  832YOPS   CNO12811   8.963  18.357   5.146  0.0717 -0.0805 -0.2272
  832YOPS   PO412812   8.935  18.336   5.533  0.0311  0.0559 -0.1607
  832YOPS   GL112813   8.861  18.523   5.921 -0.3118 -0.1508 -0.0295
  832YOPS   GL212814   8.971  18.837   5.878 -0.1487  0.4861 -0.1979
  832YOPS   C1A12815   8.523  18.532   6.228  0.0018  0.0911  0.0275
  832YOPS   D2A12816   8.371  18.595   6.694 -0.2081  0.2327  0.1320
  832YOPS   C3A12817   8.316  18.770   7.062 -0.3120  0.3172 -0.1587
  832YOPS   C4A12818   8.216  18.617   7.441  0.0175 -0.0444 -0.2412
  832YOPS   C1B12819   8.958  18.878   6.301 -0.0661  0.1116  0.3062
  832YOPS   C2B12820   8.906  18.775   6.679 -0.1577 -0.1449  0.4267
  832YOPS   D3B12821   8.984  18.655   7.127 -0.1818  0.3642 -0.3061
  832YOPS   C4B12822   8.829  18.518   7.510  0.0563 -0.1953 -0.3368
  833YOPS   CNO12823  12.582   0.660   5.794  0.0166 -0.2165 -0.0408
  833YOPS   PO412824  12.105   0.710   5.870 -0.0588  0.4708  0.1057
  833YOPS   GL112825  12.051   1.045   6.238 -0.2044  0.2311  0.0420
  833YOPS   GL212826  11.778   0.734   6.257  0.0802  0.1194  0.0649
  833YOPS   C1A12827  12.093   1.044   6.723 -0.2047  0.0510  0.0121
  833YOPS   D2A12828  11.883   0.930   7.172  0.0975 -0.2036  0.0884
  833YOPS   C3A12829  11.541   1.135   7.370  0.1526  0.0705 -0.1570
  833YOPS   C4A12830  11.538   0.950   7.820 -0.0269  0.1652 -0.2719
  833YOPS   C1B12831  11.755   0.624   6.776  0.0350 -0.0405  0.5783
  833YOPS   C2B12832  11.970   0.431   7.073  0.0286  0.0053  0.2042
  833YOPS   D3B12833  12.116   0.135   7.390  0.0353 -0.1801  0.0722
  833YOPS   C4B12834  12.386   0.307   7.654 -0.1064 -0.2016  0.0177
  834YOPS   CNO12835   9.500   9.522   5.047  0.4602 -0.0281  0.2180
  834YOPS   PO412836   9.089   9.704   5.089  0.0496  0.1158  0.0909
  834YOPS   GL112837   9.096   9.733   5.566  0.0572  0.0891 -0.0244
  834YOPS   GL212838   9.329   9.510   5.507  0.0827  0.2100 -0.2520
  834YOPS   C1A12839   9.088   9.624   5.993  0.5534  0.0835 -0.0658
  834YOPS   D2A12840   8.869   9.615   6.390  0.0263  0.0362  0.1823
  834YOPS   C3A12841   8.670   9.696   6.808  0.0301 -0.1875  0.0971
  834YOPS   C4A12842   9.030   9.916   7.170 -0.0431  0.1678  0.3030
  834YOPS   C1B12843   9.233   9.207   5.793 -0.0686 -0.0998  0.0610
  834YOPS   C2B12844   9.335   9.012   6.156 -0.0692  0.0794 -0.0755
  834YOPS   D3B12845   9.492   8.721   6.390  0.0015 -0.1199  0.1752
  834YOPS   C4B12846   9.630   8.798   6.866 -0.1488  0.1029  0.2162
  835YOPS   CNO12847  14.319  15.151   5.014 -0.4843 -0.0398  0.2658
  835YOPS   PO412848  14.064  15.373   5.321  0.2516  0.0868 -0.0735
  835YOPS   GL112849  13.796  15.200   5.658  0.1679  0.1065  0.2049
  835YOPS   GL212850  13.923  15.090   5.886  0.2130  0.0432  0.2847
  835YOPS   C1A12851  13.364  14.977   5.954  0.0712  0.2870  0.0607
  835YOPS   D2A12852  12.909  15.093   6.077 -0.3851 -0.1758 -0.1394
  835YOPS   C3A12853  12.682  15.252   6.486 -0.2381  0.3349  0.2154
  835YOPS   C4A12854  12.644  14.864   6.727 -0.0678 -0.2852 -0.4441
  835YOPS   C1B12855  13.892  14.608   5.999  0.1114  0.3208  0.0504
  835YOPS   C2B12856  13.921  14.402   6.314 -0.0801 -0.1734  0.1207
  835YOPS   D3B12857  13.838  14.657   6.767  0.2584  0.2425 -0.2477
  835YOPS   C4B12858  14.071  14.589   7.157 -0.0523 -0.0553 -0.1161
  836YOPS   CNO12859  13.479  18.790   5.543 -0.1300  0.0310  0.0417
  836YOPS   PO412860  13.191  18.893   5.950 -0.1753 -0.3419 -0.1863
  836YOPS   GL112861  13.182  18.885   6.436 -0.0293 -0.0397  0.1331
  836YOPS   GL212862  12.916  18.721   6.404  0.0954  0.0683  0.1568
  836YOPS   C1A12863  13.123  18.939   6.851 -0.2378  0.2477  0.1904
  836YOPS   D2A12864  12.904  18.856   7.279  0.1889 -0.1283  0.0514
  836YOPS   C3A12865  12.684  18.649   7.522 -0.2846  0.2887  0.2165
  836YOPS   C4A12866  12.883  18.520   7.908  0.0428 -0.0130 -0.1512
  836YOPS   C1B12867  12.587  18.356   6.522 -0.2719  0.4626  0.2141
  836YOPS   C2B12868  12.408  18.127   6.840  0.3272 -0.0980 -0.1416
  836YOPS   D3B12869  12.164  17.899   7.243 -0.0053  0.0852 -0.0751
  836YOPS   C4B12870  11.977  18.097   7.552 -0.2683 -0.0449  0.1204
  837YOPS   CNO12871  18.099   9.591   5.597 -0.2268  0.4976 -0.1714
  837YOPS   PO412872  17.893   9.279   5.627 -0.0385 -0.0371 -0.3659
  837YOPS   GL112873  17.649   9.413   5.993  0.0921  0.5843  0.2918
  837YOPS   GL212874  17.906   9.563   6.095  0.1524 -0.7550 -0.3693
  837YOPS   C1A12875  17.489   9.272   6.390  0.3242  0.0046  0.0520
  837YOPS   D2A12876  17.239   8.958   6.633  0.0091  0.0124 -0.2389
  837YOPS   C3A12877  16.890   8.836   6.781  0.0346 -0.0329  0.0274
  837YOPS   C4A12878  16.792   8.900   7.235 -0.1524  0.3806  0.2227
  837YOPS   C1B12879  17.976   9.209   6.308 -0.0423 -0.1441 -0.1654
  837YOPS   C2B12880  18.004   9.040   6.733 -0.2027  0.2727 -0.4081
  837YOPS   D3B12881  17.744   8.940   6.928 -0.1134 -0.2876  0.1195
  837YOPS   C4B12882  17.340   8.660   6.952 -0.0793 -0.0525 -0.1773
  838YOPS   CNO12883   6.394   6.983   4.985  0.0593  0.1123 -0.0836
  838YOPS   PO412884   6.423   6.588   4.691 -0.1158 -0.0722  0.1962
  838YOPS   GL112885   6.577   6.529   5.110  0.0495 -0.3618 -0.2738
  838YOPS   GL212886   6.809   6.679   5.273  0.0714  0.3585 -0.2196
  838YOPS   C1A12887   6.613   6.290   5.567  0.0891  0.0919 -0.0757
  838YOPS   D2A12888   6.935   6.162   5.971 -0.3352  0.3102  0.1562
  838YOPS   C3A12889   7.149   6.026   6.304  0.0208  0.0834 -0.2067
  838YOPS   C4A12890   6.949   6.025   6.703  0.0634  0.1250 -0.0186
  838YOPS   C1B12891   7.068   6.494   5.476  0.0241 -0.0720 -0.1477
  838YOPS   C2B12892   7.013   6.610   5.863 -0.2823  0.1832  0.1213
  838YOPS   D3B12893   7.273   6.879   5.962  0.1105 -0.0406  0.1280
  838YOPS   C4B12894   7.388   7.230   5.890 -0.3017  0.1789  0.1479
  839YOPS   CNO12895   7.223   9.181   4.499  0.3417 -0.2809  0.0832
  839YOPS   PO412896   7.264   9.349   4.937  0.0170 -0.1588 -0.0274
  839YOPS   GL112897   7.392   9.185   5.298 -0.0656  0.0714 -0.2044
  839YOPS   GL212898   7.536   8.850   5.309 -0.0238  0.3469  0.3824
  839YOPS   C1A12899   7.719   9.253   5.670  0.3709 -0.2050 -0.1231
  839YOPS   D2A12900   7.682   9.756   5.642  0.2517  0.0877  0.2346
  839YOPS   C3A12901   7.434  10.165   5.544  0.1778 -0.2155 -0.0163
  839YOPS   C4A12902   7.071  10.401   5.758 -0.0528 -0.2704 -0.0331
  839YOPS   C1B12903   7.379   8.379   5.433  0.0632 -0.0566  0.4640
  839YOPS   C2B12904   7.116   8.052   5.302  0.3304  0.4465 -0.3523
  839YOPS   D3B12905   6.684   8.032   5.531  0.1882 -0.4362 -0.0541
  839YOPS   C4B12906   6.676   7.663   5.759  0.2998 -0.3262 -0.0631
  840YOPS   CNO12907   1.846  14.038   5.163 -0.1114 -0.0013 -0.4760
  840YOPS   PO412908   2.197  14.337   5.330  0.2559 -0.0072 -0.0415
  840YOPS   GL112909   2.226  14.148   5.775 -0.2676  0.4140 -0.1130
  840YOPS   GL212910   2.442  13.999   5.734 -0.0439  0.1627  0.0416
  840YOPS   C1A12911   2.034  14.011   6.219 -0.2863  0.0568 -0.1965
  840YOPS   D2A12912   1.906  13.975   6.621  0.0345  0.2032  0.2906
  840YOPS   C3A12913   2.086  13.909   7.091 -0.1382 -0.2101 -0.0358
  840YOPS   C4A12914   2.051  14.253   7.331 -0.0342  0.1430  0.4491
  840YOPS   C1B12915   2.595  14.147   6.209 -0.0019  0.2490  0.4276
  840YOPS   C2B12916   2.970  14.174   6.367  0.0035  0.1517  0.0141
  840YOPS   D3B12917   3.290  14.270   6.541 -0.2928  0.2107 -0.1106
  840YOPS   C4B12918   3.418  14.137   6.943  0.0499 -0.2214  0.0031
  841YOPS   CNO12919  16.017  11.281   4.879  0.3449 -0.1145  0.2011
  841YOPS   PO412920  15.902  11.686   5.047  0.1893  0.1052  0.0688
  841YOPS   GL112921  16.029  11.566   5.518 -0.1792  0.1841 -0.1168
  841YOPS   GL212922  15.794  11.596   5.690  0.2952  0.0180  0.0791
  841YOPS   C1A12923  16.196  11.498   5.977 -0.0214  0.4401  0.1355
  841YOPS   D2A12924  16.147  11.527   6.406 -0.0839  0.1522  0.1397
  841YOPS   C3A12925  15.983  11.367   6.809  0.0195  0.2186  0.0325
  841YOPS   C4A12926  16.270  11.372   7.241  0.1829  0.1603 -0.0013
  841YOPS   C1B12927  15.559  11.583   6.111 -0.0389 -0.3555  0.1593
  841YOPS   C2B12928  15.694  11.722   6.632  0.2940 -0.1153  0.2235
  841YOPS   D3B12929  16.142  11.859   6.827 -0.2689 -0.0042 -0.1245
  841YOPS   C4B12930  16.089  11.903   7.281 -0.0101 -0.0372  0.3742
  842YOPS   CNO12931   3.659   4.582   5.076 -0.2024  0.1011 -0.0664
  842YOPS   PO412932   3.312   4.493   5.195  0.0878 -0.0908 -0.2513
  842YOPS   GL112933   3.448   4.579   5.611 -0.0065  0.1842  0.3076
  842YOPS   GL212934   3.372   4.812   5.787 -0.0001 -0.0553  0.1817
  842YOPS   C1A12935   3.112   4.485   6.043  0.0633 -0.0568  0.0250
  842YOPS   D2A12936   2.843   4.477   6.325  0.0427  0.1273  0.2445
  842YOPS   C3A12937   2.454   4.353   6.342  0.1335 -0.1887 -0.1734
  842YOPS   C4A12938   2.413   4.238   6.716 -0.4362  0.2909  0.1384
  842YOPS   C1B12939   3.244   4.982   6.244 -0.1860  0.1960  0.2112
  842YOPS   C2B12940   3.266   5.205   6.541  0.1674 -0.1905  0.0998
  842YOPS   D3B12941   3.166   5.654   6.637 -0.0079 -0.3873 -0.0711
  842YOPS   C4B12942   3.419   5.708   7.068 -0.0014 -0.0949 -0.2814
  843YOPS   CNO12943   4.869   4.006   4.983  0.0024  0.2251  0.1190
  843YOPS   PO412944   4.957   3.726   5.123  0.0461  0.1228 -0.2862
  843YOPS   GL112945   4.719   3.600   5.512 -0.0089  0.1872 -0.1457
  843YOPS   GL212946   4.886   3.371   5.510  0.1150 -0.0467 -0.1662
  843YOPS   C1A12947   4.486   3.816   5.924 -0.1254 -0.0405  0.0677
  843YOPS   D2A12948   4.369   3.799   6.407  0.1444 -0.1224 -0.3358
  843YOPS   C3A12949   4.371   4.145   6.662 -0.0171 -0.1611  0.0117
  843YOPS   C4A12950   4.817   4.119   6.962  0.0087  0.0582 -0.0628
  843YOPS   C1B12951   4.732   3.374   5.938  0.0804  0.1615 -0.2769
  843YOPS   C2B12952   4.822   3.663   6.211 -0.1973 -0.1328  0.3566
  843YOPS   D3B12953   4.869   3.671   6.677 -0.1559  0.1590  0.4506
  843YOPS   C4B12954   4.707   3.431   7.027  0.2682  0.0893 -0.2391
  844POPE   NH312955  13.577  18.506   5.923 -0.3254 -0.2643  0.1733
  844POPE   PO412956  14.015  18.241   5.824 -0.1210 -0.5603  0.1142
  844POPE   GL112957  14.004  18.145   6.263  0.1454 -0.1489  0.3832
  844POPE   GL212958  14.295  18.055   6.458 -0.0174  0.3262 -0.2042
  844POPE   C1A12959  13.784  18.040   6.670 -0.2649  0.0918  0.1117
  844POPE   D2A12960  13.739  17.856   7.033 -0.0675 -0.2139 -0.1834
  844POPE   C3A12961  13.701  17.983   7.409 -0.0048 -0.0354 -0.1863
  844POPE   C4A12962  13.379  18.181   7.621  0.0332 -0.3468 -0.1219
  844POPE   C1B12963  14.296  17.983   6.970 -0.0033 -0.1527  0.0384
  844POPE   C2B12964  14.306  18.094   7.405  0.0704  0.1183 -0.0035
  844POPE   C3B12965  14.059  18.208   7.725 -0.2362  0.3004 -0.3674
  844POPE   C4B12966  13.776  18.219   7.953 -0.0989 -0.3362 -0.1341
  845POPE   NH312967  12.634  16.400   5.625  0.0999  0.3686 -0.0288
  845POPE   PO412968  12.299  16.595   5.787 -0.0639 -0.1602  0.1790
  845POPE   GL112969  12.408  16.276   6.025  0.0826  0.1982  0.4191
  845POPE   GL212970  12.678  16.046   6.074  0.2507 -0.3548 -0.1639
  845POPE   C1A12971  12.162  15.971   6.230  0.1967  0.1000 -0.3573
  845POPE   D2A12972  11.902  15.730   6.039  0.2101 -0.0557  0.1384
  845POPE   C3A12973  11.639  15.344   6.004  0.1759  0.3527 -0.2530
  845POPE   C4A12974  11.264  15.170   5.814  0.1070 -0.0764 -0.1339
  845POPE   C1B12975  12.553  15.753   6.463 -0.2956 -0.0520 -0.0413
  845POPE   C2B12976  12.326  15.460   6.732 -0.1447 -0.3498 -0.1753
  845POPE   C3B12977  12.113  15.379   7.097 -0.3991  0.0532  0.0271
  845POPE   C4B12978  12.134  15.197   7.525 -0.0931  0.0407 -0.1574
  846POPE   NH312979   5.455  15.506   5.232  0.0630  0.1436  0.0934
  846POPE   PO412980   5.827  15.666   5.303  0.3359 -0.2776  0.1389
  846POPE   GL112981   6.049  15.581   5.649 -0.0742 -0.1726 -0.6090
  846POPE   GL212982   6.189  15.284   5.717  0.0167  0.1904 -0.1394
  846POPE   C1A12983   6.087  15.761   6.022  0.1378 -0.1827  0.1808
  846POPE   D2A12984   6.255  15.725   6.389  0.1267 -0.2725  0.0674
  846POPE   C3A12985   5.987  15.601   6.720  0.0872 -0.4055  0.2005
  846POPE   C4A12986   5.669  15.781   6.919  0.0923  0.1964 -0.1143
  846POPE   C1B12987   6.273  15.249   6.166 -0.0738  0.2911  0.1961
  846POPE   C2B12988   6.124  15.094   6.546 -0.1875 -0.2213 -0.2947
  846POPE   C3B12989   5.908  15.130   6.942 -0.3722 -0.0605 -0.1248
  846POPE   C4B12990   5.702  15.161   7.302  0.1769 -0.0211  0.5245
  847POPE   NH312991   1.056  18.503   5.432  0.3555 -0.2926 -0.0886
  847POPE   PO412992   0.982  18.804   5.095  0.1677 -0.2938  0.4139
  847POPE   GL112993   1.150  19.074   5.464  0.0849 -0.1228 -0.2613
  847POPE   GL212994   1.455  18.947   5.671 -0.0076 -0.4174  0.0200
  847POPE   C1A12995   1.194  19.301   5.913  0.2571 -0.0507 -0.0894
  847POPE   D2A12996   0.922  19.239   6.375 -0.1044  0.1789  0.1218
  847POPE   C3A12997   1.025  19.357   6.813 -0.0195  0.0606  0.4897
  847POPE   C4A12998   0.751  19.481   7.103 -0.0597 -0.3577  0.2159
  847POPE   C1B12999   1.243  18.759   5.973  0.0093  0.0173 -0.0672
  847POPE   C2B13000   0.987  18.686   6.202  0.2464  0.4457 -0.0467
  847POPE   C3B13001   0.903  18.797   6.602 -0.0140 -0.0965  0.1143
  847POPE   C4B13002   0.560  19.050   6.813  0.0628  0.0373 -0.0910
  848POPE   NH313003  12.431   9.019   5.339 -0.0324  0.0699  0.1165
  848POPE   PO413004  12.232   8.615   5.303 -0.0497 -0.0050 -0.0335
  848POPE   GL113005  12.151   8.539   5.646  0.1474 -0.0810  0.1692
  848POPE   GL213006  12.133   8.200   5.685 -0.2012  0.0268  0.1429
  848POPE   C1A13007  12.151   8.563   6.063  0.2336  0.0755  0.3800
  848POPE   D2A13008  12.573   8.463   6.334  0.1427  0.0059  0.2951
  848POPE   C3A13009  12.551   8.192   6.739  0.0930  0.0045 -0.0500
  848POPE   C4A13010  12.755   8.125   7.117 -0.0564 -0.2021  0.0009
  848POPE   C1B13011  11.941   8.123   6.096  0.0479  0.0340 -0.1513
  848POPE   C2B13012  11.831   8.169   6.582 -0.0125 -0.0570  0.2337
  848POPE   C3B13013  11.609   8.096   6.960  0.0563 -0.0831  0.1728
  848POPE   C4B13014  11.431   8.418   7.221  0.0284  0.0393 -0.1155
  849POPE   NH313015  14.886  17.112   5.786  0.2433 -0.0751 -0.1604
  849POPE   PO413016  15.308  17.332   5.887  0.1072  0.0516 -0.2187
  849POPE   GL113017  15.443  17.183   6.211  0.0468 -0.2315  0.1102
  849POPE   GL213018  15.724  17.184   6.253  0.3617  0.1401 -0.2353
  849POPE   C1A13019  15.389  17.158   6.688 -0.3571 -0.1503  0.0492
  849POPE   D2A13020  15.358  17.112   7.097  0.2532  0.0464 -0.2393
  849POPE   C3A13021  15.613  16.876   7.333  0.3901  0.3953  0.0991
  849POPE   C4A13022  15.714  16.561   7.647 -0.2873  0.0855  0.5428
  849POPE   C1B13023  15.771  17.403   6.571  0.1893  0.2429  0.2595
  849POPE   C2B13024  15.790  17.355   6.962 -0.1195 -0.0473 -0.0062
  849POPE   C3B13025  15.760  17.407   7.269  0.0751 -0.0449  0.2582
  849POPE   C4B13026  15.651  17.300   7.566  0.0817 -0.0618 -0.0271
  850POPE   NH313027  14.596  16.165   5.635  0.1363 -0.0123  0.4074
  850POPE   PO413028  14.279  16.484   5.716  0.0244  0.2596 -0.0878
  850POPE   GL113029  14.319  16.565   6.191 -0.2084  0.0935 -0.2789
  850POPE   GL213030  14.551  16.916   6.125 -0.1127  0.1610  0.1152
  850POPE   C1A13031  14.330  16.575   6.732 -0.1710 -0.1682  0.2271
  850POPE   D2A13032  14.221  16.631   7.098  0.1251  0.3967  0.2129
  850POPE   C3A13033  13.865  16.533   7.524 -0.0848  0.0379 -0.0069
  850POPE   C4A13034  13.922  16.349   7.947  0.2864  0.2714  0.1826
  850POPE   C1B13035  14.464  17.027   6.537 -0.0118  0.0542  0.3270
  850POPE   C2B13036  14.551  16.980   6.999  0.0455  0.0144  0.1723
  850POPE   C3B13037  14.486  16.928   7.468 -0.2474  0.2359 -0.1664
  850POPE   C4B13038  14.353  16.618   7.709  0.0299  0.0493 -0.2539
  851POPE   NH313039   7.813   7.019   4.911 -0.0080 -0.2154 -0.1220
  851POPE   PO413040   7.720   6.680   4.885  0.1033  0.1630 -0.1681
  851POPE   GL113041   7.524   6.677   5.246 -0.1265  0.1189  0.1153
  851POPE   GL213042   7.270   6.682   5.121  0.1725 -0.0578 -0.2369
  851POPE   C1A13043   7.498   6.666   5.594  0.1162 -0.0541 -0.2130
  851POPE   D2A13044   7.387   6.300   5.821 -0.2364 -0.0037 -0.1307
  851POPE   C3A13045   7.409   6.455   6.316 -0.2380  0.0413  0.0282
  851POPE   C4A13046   7.699   6.700   6.471  0.0256  0.0016  0.0082
  851POPE   C1B13047   7.115   6.997   5.412  0.1391 -0.0555 -0.0538
  851POPE   C2B13048   6.905   7.203   5.858 -0.1013 -0.1975 -0.2765
  851POPE   C3B13049   6.899   7.510   6.172 -0.1036 -0.0008  0.0178
  851POPE   C4B13050   7.175   7.456   6.465  0.1534 -0.1531 -0.1742
  852POPE   NH313051  17.590  19.269   5.708  0.3200  0.0017 -0.0332
  852POPE   PO413052  17.824  19.540   5.820  0.2326  0.2396  0.0726
  852POPE   GL113053  17.776  19.814   6.117  0.0752  0.2986  0.3461
  852POPE   GL213054  18.049  19.991   6.150  0.3650 -0.3914  0.0059
  852POPE   C1A13055  17.804  19.772   6.479 -0.2129  0.1562 -0.1015
  852POPE   D2A13056  17.604  19.723   6.821 -0.1005  0.2551  0.2033
  852POPE   C3A13057  17.582  19.321   6.991 -0.0894 -0.1524  0.2208
  852POPE   C4A13058  17.937  19.158   7.089 -0.0596 -0.0023  0.2830
  852POPE   C1B13059  18.179  20.236   6.431 -0.0267  0.1566 -0.0606
  852POPE   C2B13060  18.353  20.553   6.503  0.2770 -0.0989 -0.2519
  852POPE   C3B13061  18.347  20.844   6.792 -0.3735 -0.0321  0.1386
  852POPE   C4B13062  18.265  20.820   7.236  0.1317 -0.1210  0.2710
  853POPE   NH313063   8.824  10.908   5.252 -0.0131  0.3999  0.1361
  853POPE   PO413064   8.468  11.108   5.111  0.1763 -0.1269 -0.0525
  853POPE   GL113065   8.499  11.159   5.572 -0.0159  0.1405  0.2760
  853POPE   GL213066   8.153  11.305   5.584  0.1536  0.1502  0.1712
  853POPE   C1A13067   8.419  11.072   6.078 -0.2519  0.3044  0.0875
  853POPE   D2A13068   8.026  11.094   6.368 -0.3137  0.1986  0.1872
  853POPE   C3A13069   7.814  11.244   6.748  0.0413 -0.0764  0.0213
  853POPE   C4A13070   7.651  11.576   7.047 -0.1327  0.0562  0.0947
  853POPE   C1B13071   8.024  11.429   5.978 -0.0546 -0.0755  0.0628
  853POPE   C2B13072   7.723  11.472   6.274  0.2712  0.0964 -0.1507
  853POPE   C3B13073   7.360  11.215   6.447 -0.0586  0.1106  0.1374
  853POPE   C4B13074   7.179  11.311   6.764 -0.2723  0.1556 -0.1906
  854POPE   NH313075  19.283  17.263   5.125 -0.1881  0.3813  0.0588
  854POPE   PO413076  19.763  17.337   5.270  0.3769 -0.2183 -0.2487
  854POPE   GL113077  20.017  17.215   5.492  0.4192  0.0847  0.0455
  854POPE   GL213078  19.849  17.129   5.795 -0.1885  0.0705 -0.4409
  854POPE   C1A13079  20.308  17.064   5.901  0.2890  0.1235  0.2498
  854POPE   D2A13080  20.461  17.238   6.333 -0.0683  0.3386  0.1884
  854POPE   C3A13081  20.382  17.432   6.753 -0.1402 -0.0215 -0.1055
  854POPE   C4A13082  20.250  17.407   7.143 -0.0941  0.0951 -0.1417
  854POPE   C1B13083  19.911  17.282   6.236 -0.1095  0.1978 -0.0691
  854POPE   C2B13084  19.932  17.284   6.714 -0.3021  0.1751  0.1500
  854POPE   C3B13085  20.190  17.016   6.842  0.1368 -0.1202  0.5393
  854POPE   C4B13086  20.556  16.901   6.659 -0.0108  0.0538  0.2516
  855POPE   NH313087  15.219  10.918   5.180 -0.0123  0.0193  0.1177
  855POPE   PO413088  14.881  11.133   5.269  0.1360 -0.0256 -0.4773
  855POPE   GL113089  14.628  11.006   5.623 -0.1211  0.0051 -0.2838
  855POPE   GL213090  14.627  11.223   5.798  0.0517 -0.3296  0.0235
  855POPE   C1A13091  14.814  10.890   6.084 -0.1578  0.3505  0.2858
  855POPE   D2A13092  14.784  11.081   6.531  0.0790 -0.0588 -0.0164
  855POPE   C3A13093  14.532  10.948   6.726  0.0864  0.1379 -0.0283
  855POPE   C4A13094  14.175  10.652   6.926 -0.1763 -0.0735 -0.3569
  855POPE   C1B13095  14.968  11.432   6.258  0.3195 -0.0050 -0.2413
  855POPE   C2B13096  15.284  11.316   6.522  0.1584 -0.3826 -0.0345
  855POPE   C3B13097  15.424  11.388   6.899 -0.0933 -0.3540 -0.0252
  855POPE   C4B13098  15.653  11.734   7.152  0.2336  0.3037  0.0782
  856POPE   NH313099  14.359  14.964   5.570 -0.2434 -0.1775 -0.1436
  856POPE   PO413100  14.755  14.751   5.468  0.0867  0.2670  0.2662
  856POPE   GL113101  14.616  14.667   5.915 -0.1118  0.0773  0.4167
  856POPE   GL213102  14.374  14.827   6.098  0.1193  0.1022  0.2377
  856POPE   C1A13103  14.868  14.899   6.189 -0.0145  0.2406  0.0917
  856POPE   D2A13104  14.805  14.954   6.709 -0.0097  0.1504 -0.4172
  856POPE   C3A13105  14.407  14.758   6.841  0.0789  0.3063 -0.0902
  856POPE   C4A13106  14.585  14.515   7.200  0.1133 -0.1958  0.0768
  856POPE   C1B13107  14.015  14.966   6.360 -0.7290  0.2681 -0.0138
  856POPE   C2B13108  13.571  14.860   6.394 -0.0023  0.0677 -0.0585
  856POPE   C3B13109  13.157  15.022   6.545 -0.0200  0.3861  0.2236
  856POPE   C4B13110  12.904  15.199   6.940  0.4632  0.3075  0.3160
  857POPE   NH313111   6.050   8.615   5.057 -0.2481 -0.3653  0.2022
  857POPE   PO413112   5.598   8.731   5.148  0.2569 -0.0274 -0.1244
  857POPE   GL113113   5.847   8.737   5.510  0.0383  0.2080 -0.0574
  857POPE   GL213114   6.086   8.917   5.492 -0.2107 -0.1675  0.0183
  857POPE   C1A13115   6.012   8.321   5.773  0.0280  0.0158  0.0157
  857POPE   D2A13116   6.446   8.352   5.865  0.0453  0.0625  0.0994
  857POPE   C3A13117   6.745   8.114   6.049  0.0006 -0.3863 -0.1431
  857POPE   C4A13118   6.743   7.888   6.459 -0.2613 -0.0244  0.2736
  857POPE   C1B13119   6.047   8.815   5.991 -0.3278  0.0266 -0.0197
  857POPE   C2B13120   6.141   8.636   6.400 -0.0017 -0.1149 -0.3047
  857POPE   C3B13121   6.222   8.559   6.812  0.1973  0.1278  0.0374
  857POPE   C4B13122   6.214   8.131   7.165 -0.0896  0.1989  0.1637
  858POPE   NH313123   5.934  13.602   5.009  0.0712 -0.0492  0.3244
  858POPE   PO413124   6.202  13.898   5.040  0.0563 -0.2171  0.0227
  858POPE   GL113125   6.339  13.806   5.436  0.1421  0.2693  0.0644
  858POPE   GL213126   6.142  13.571   5.650  0.0446 -0.1494  0.0520
  858POPE   C1A13127   6.267  13.975   5.893 -0.1279  0.1711 -0.1279
  858POPE   D2A13128   6.089  14.060   6.345 -0.1943  0.2165  0.2458
  858POPE   C3A13129   6.367  14.196   6.622  0.0566 -0.0705  0.0561
  858POPE   C4A13130   6.756  13.915   6.829  0.2764 -0.0797  0.1552
  858POPE   C1B13131   6.247  13.510   6.067  0.2051 -0.0274  0.0564
  858POPE   C2B13132   6.061  13.507   6.446 -0.0230 -0.2352  0.0437
  858POPE   C3B13133   6.370  13.611   6.732  0.2959 -0.0593  0.2034
  858POPE   C4B13134   6.689  13.467   7.064  0.0977  0.0790  0.2105
  859POPE   NH313135   4.986   7.194   5.064  0.1476 -0.1043  0.0473
  859POPE   PO413136   5.211   6.893   5.251 -0.1223 -0.0021  0.1406
  859POPE   GL113137   5.621   6.968   5.455  0.1718 -0.2155  0.1799
  859POPE   GL213138   5.933   6.954   5.278 -0.1615  0.2059 -0.1334
  859POPE   C1A13139   5.807   6.937   5.796 -0.1576  0.2742  0.0414
  859POPE   D2A13140   5.944   6.752   6.124  0.0213 -0.1802  0.1614
  859POPE   C3A13141   6.225   7.088   6.138  0.0281 -0.1262  0.0129
  859POPE   C4A13142   6.358   7.464   6.418 -0.3116 -0.4188  0.2743
  859POPE   C1B13143   6.265   6.655   5.509 -0.1415  0.4164 -0.1003
  859POPE   C2B13144   6.494   6.634   6.020  0.3749  0.0673  0.1593
  859POPE   C3B13145   6.880   6.500   6.310  0.1713  0.1943 -0.2804
  859POPE   C4B13146   7.027   6.524   6.706 -0.0639  0.2848 -0.0048
  860POPE   NH313147   6.422  18.261   5.123 -0.0266  0.0705 -0.0876
  860POPE   PO413148   6.327  18.586   5.183  0.3412 -0.2053 -0.0554
  860POPE   GL113149   6.226  18.631   5.502  0.1518  0.0616  0.1284
  860POPE   GL213150   5.805  18.581   5.560 -0.2439 -0.1356 -0.0103
  860POPE   C1A13151   6.189  18.550   6.017 -0.1166 -0.0386 -0.0322
  860POPE   D2A13152   6.214  18.685   6.457  0.1511  0.0177 -0.0430
  860POPE   C3A13153   6.437  18.631   6.873 -0.0111  0.4804 -0.2247
  860POPE   C4A13154   6.316  18.462   7.239  0.0693 -0.2757  0.0858
  860POPE   C1B13155   5.707  18.475   5.971  0.1906  0.1590  0.0525
  860POPE   C2B13156   5.858  18.342   6.322  0.1552  0.2746  0.0460
  860POPE   C3B13157   5.662  18.048   6.613  0.0432  0.1328 -0.2255
  860POPE   C4B13158   5.618  17.734   6.883  0.0918 -0.0113 -0.0439
  861POPE   NH313159  18.484   3.478   5.105 -0.1526 -0.1125  0.3808
  861POPE   PO413160  18.084   3.392   5.367  0.3549  0.1286 -0.1932
  861POPE   GL113161  18.378   3.234   5.706  0.2820 -0.2724 -0.1484
  861POPE   GL213162  18.537   3.417   5.642  0.2252  0.1528  0.0068
  861POPE   C1A13163  18.641   3.182   6.072  0.1337  0.2334  0.2100
  861POPE   D2A13164  18.671   3.179   6.507  0.1920 -0.2223 -0.2719
  861POPE   C3A13165  18.426   2.794   6.636 -0.1148 -0.1473  0.0394
  861POPE   C4A13166  18.230   2.555   6.370 -0.2322  0.0973 -0.1471
  861POPE   C1B13167  18.582   3.652   6.090 -0.0699 -0.0369  0.2448
  861POPE   C2B13168  18.525   3.653   6.543 -0.0544  0.3632  0.1096
  861POPE   C3B13169  18.642   3.544   6.949 -0.1319  0.2891 -0.2246
  861POPE   C4B13170  18.764   3.493   7.374  0.2529  0.2825  0.0393
  862POPE   NH313171   9.294  10.202   5.261  0.2391  0.1020  0.0071
  862POPE   PO413172   9.293  10.675   5.260 -0.2654 -0.1793 -0.2065
  862POPE   GL113173   9.276  10.496   5.616 -0.0782  0.2323 -0.1144
  862POPE   GL213174   9.202  10.679   5.822  0.2419 -0.0744 -0.1843
  862POPE   C1A13175   9.305  10.136   5.863  0.3290  0.2239  0.0069
  862POPE   D2A13176   9.402   9.962   6.256 -0.0206  0.1300 -0.0183
  862POPE   C3A13177   9.363  10.153   6.568 -0.0223 -0.2302  0.1043
  862POPE   C4A13178   9.294  10.390   7.073 -0.2834 -0.1575  0.0970
  862POPE   C1B13179   9.148  10.497   6.269 -0.1312  0.1043  0.0653
  862POPE   C2B13180   9.076  10.559   6.658 -0.2105  0.2133 -0.0458
  862POPE   C3B13181   8.762  10.788   6.906  0.1293  0.2744 -0.0884
  862POPE   C4B13182   8.759  11.146   7.207  0.2645  0.1131 -0.2184
  863POPE   NH313183  17.970   4.111   5.366 -0.1520 -0.1573 -0.2442
  863POPE   PO413184  17.658   3.974   5.579  0.2295 -0.0126  0.3300
  863POPE   GL113185  17.896   4.233   5.915  0.1068 -0.0859  0.0010
  863POPE   GL213186  18.029   4.487   5.768 -0.0363  0.1697 -0.0837
  863POPE   C1A13187  17.930   4.421   6.319  0.0383  0.0085 -0.0025
  863POPE   D2A13188  17.803   4.509   6.749 -0.2209 -0.2547 -0.0689
  863POPE   C3A13189  17.944   4.212   7.013 -0.1867  0.0116  0.0257
  863POPE   C4A13190  18.133   4.099   7.480 -0.0993  0.1537  0.1147
  863POPE   C1B13191  18.160   4.902   5.985  0.1000  0.0129  0.2165
  863POPE   C2B13192  18.182   4.949   6.523  0.1575 -0.1393  0.2519
  863POPE   C3B13193  18.094   4.818   7.013 -0.3598 -0.0364 -0.1860
  863POPE   C4B13194  18.115   5.098   7.397 -0.0639 -0.1099  0.0374
  864POPE   NH313195  18.508  11.384   4.966  0.0315  0.1567 -0.0070
  864POPE   PO413196  18.876  11.228   5.273 -0.1799 -0.1697 -0.0901
  864POPE   GL113197  18.950  11.397   5.779 -0.1232 -0.0203 -0.0663
  864POPE   GL213198  19.128  11.672   5.900 -0.1754  0.1903  0.0440
  864POPE   C1A13199  19.029  11.210   6.206 -0.2147  0.3587  0.0173
  864POPE   D2A13200  19.269  11.012   6.473  0.0002 -0.0956  0.0538
  864POPE   C3A13201  19.543  10.638   6.752 -0.2042 -0.0914 -0.1636
  864POPE   C4A13202  19.752  10.304   7.016  0.3390 -0.0903 -0.0871
  864POPE   C1B13203  18.943  11.823   6.336  0.2961 -0.0420 -0.0757
  864POPE   C2B13204  19.015  12.030   6.690 -0.3418  0.1289  0.2734
  864POPE   C3B13205  19.324  12.267   6.743 -0.1537 -0.0621  0.2884
  864POPE   C4B13206  19.150  12.653   6.693  0.0856  0.1456  0.0615
  865POPE   NH313207  10.680   9.246   5.086  0.0360 -0.1089  0.1722
  865POPE   PO413208  10.352   9.010   5.133  0.1346  0.1403  0.1504
  865POPE   GL113209  10.147   8.926   5.495 -0.3050 -0.1252 -0.0588
  865POPE   GL213210  10.030   9.227   5.456  0.3534 -0.0288  0.1208
  865POPE   C1A13211  10.210   9.017   5.844  0.0303  0.2259 -0.4131
  865POPE   D2A13212  10.356   8.885   6.242  0.0784  0.0428 -0.3458
  865POPE   C3A13213  10.570   8.977   6.521  0.0759  0.4056  0.1185
  865POPE   C4A13214  10.841   9.109   6.755 -0.2059  0.0987 -0.1938
  865POPE   C1B13215   9.778   9.350   5.782  0.0033  0.1892  0.0529
  865POPE   C2B13216   9.621   9.468   6.073 -0.0859  0.0577 -0.0245
  865POPE   C3B13217   9.345   9.487   6.400  0.4042  0.0089  0.0660
  865POPE   C4B13218   9.363   9.511   6.863  0.2682  0.2233 -0.1011
  866POPE   NH313219   3.505  10.909   5.381  0.0846  0.2018 -0.1396
  866POPE   PO413220   3.072  10.924   5.344 -0.0208 -0.0489  0.0699
  866POPE   GL113221   2.824  10.767   5.759 -0.1766 -0.0716 -0.1221
  866POPE   GL213222   2.617  10.931   5.969 -0.2216  0.1502  0.2376
  866POPE   C1A13223   2.941  10.461   6.006 -0.1467  0.0082  0.2616
  866POPE   D2A13224   3.035  10.228   6.418 -0.2482 -0.1000 -0.0396
  866POPE   C3A13225   3.458  10.190   6.615 -0.1975  0.2068 -0.1735
  866POPE   C4A13226   3.718   9.996   6.916 -0.3873  0.3234  0.1074
  866POPE   C1B13227   2.817  11.103   6.261  0.1794 -0.1312  0.0011
  866POPE   C2B13228   2.814  11.420   6.480 -0.1196  0.1229 -0.0567
  866POPE   C3B13229   2.636  11.490   6.818  0.0611  0.2527 -0.0339
  866POPE   C4B13230   2.416  11.302   7.094 -0.0146  0.2961 -0.0100
  867POPE   NH313231  16.679  12.255   5.429  0.0164 -0.2332 -0.1479
  867POPE   PO413232  16.765  11.875   5.438  0.1854  0.0950  0.3542
  867POPE   GL113233  16.993  11.808   5.713 -0.1612  0.1906 -0.0126
  867POPE   GL213234  17.018  12.134   5.809 -0.1012  0.0820  0.4513
  867POPE   C1A13235  17.117  11.610   6.111 -0.1545  0.2298 -0.1161
  867POPE   D2A13236  17.386  11.298   6.389  0.0310  0.0040 -0.0477
  867POPE   C3A13237  17.620  11.468   6.704  0.0270  0.1237  0.1717
  867POPE   C4A13238  17.722  11.721   7.045  0.1805 -0.0631 -0.0404
  867POPE   C1B13239  17.249  12.255   6.055 -0.1404  0.1749  0.0278
  867POPE   C2B13240  17.390  12.290   6.469 -0.0784  0.2652 -0.0288
  867POPE   C3B13241  17.410  12.188   6.966 -0.3579 -0.0656  0.1952
  867POPE   C4B13242  17.761  12.248   7.097  0.0082 -0.0198  0.3535
  868POPE   NH313243  14.820  17.659   5.800 -0.0517 -0.0252  0.1640
  868POPE   PO413244  14.412  17.395   5.855 -0.2418 -0.1838  0.1874
  868POPE   GL113245  14.350  17.563   6.233 -0.0411  0.0618 -0.2130
  868POPE   GL213246  14.655  17.582   6.331  0.1286 -0.2405  0.2420
  868POPE   C1A13247  14.312  17.586   6.647 -0.4497 -0.0298 -0.1079
  868POPE   D2A13248  14.388  17.439   7.015  0.2698 -0.1313  0.1380
  868POPE   C3A13249  14.155  17.644   7.328  0.3185  0.0782  0.0265
  868POPE   C4A13250  14.075  17.713   7.707  0.2008 -0.0640  0.2680
  868POPE   C1B13251  14.824  17.337   6.723  0.2171  0.1928 -0.4232
  868POPE   C2B13252  14.971  16.907   6.790  0.2010  0.0376 -0.3383
  868POPE   C3B13253  14.989  16.739   7.189 -0.2161  0.0299 -0.0885
  868POPE   C4B13254  15.268  16.525   7.412  0.2495  0.0691 -0.2949
  869POPE   NH313255   7.401  17.843   5.308  0.1472  0.0551  0.1080
  869POPE   PO413256   7.206  18.236   5.405  0.1226 -0.3916  0.0365
  869POPE   GL113257   7.084  18.001   5.802  0.3107  0.0078  0.2224
  869POPE   GL213258   7.295  18.015   6.085  0.1095 -0.1969  0.0170
  869POPE   C1A13259   6.842  17.840   6.175  0.0266  0.0550  0.1501
  869POPE   D2A13260   6.720  17.732   6.570 -0.1265 -0.0889 -0.4566
  869POPE   C3A13261   6.873  17.361   6.819  0.1951 -0.2227  0.2465
  869POPE   C4A13262   6.929  17.223   7.256 -0.0205  0.1396 -0.2431
  869POPE   C1B13263   7.387  18.084   6.439 -0.2178  0.0209  0.0044
  869POPE   C2B13264   7.549  18.011   6.859 -0.1472  0.0135 -0.0799
  869POPE   C3B13265   7.733  17.825   7.270 -0.1208  0.1230 -0.0137
  869POPE   C4B13266   7.774  17.639   7.716  0.1221 -0.0638  0.1546
  870POPE   NH313267   5.710   6.857   4.775 -0.5839 -0.0766  0.1140
  870POPE   PO413268   5.986   7.204   4.826  0.0609  0.0275  0.4131
  870POPE   GL113269   6.017   7.491   5.228 -0.3907 -0.0348  0.0259
  870POPE   GL213270   5.789   7.436   5.486  0.1344  0.0152  0.0692
  870POPE   C1A13271   6.106   7.826   5.582  0.2892  0.0013 -0.3329
  870POPE   D2A13272   6.243   7.906   5.987 -0.0554  0.2171 -0.1575
  870POPE   C3A13273   6.035   8.175   6.258 -0.2871  0.3966  0.1535
  870POPE   C4A13274   5.808   8.301   6.593  0.0768  0.1714  0.3748
  870POPE   C1B13275   5.931   7.454   5.993  0.5643  0.3721  0.1678
  870POPE   C2B13276   5.827   7.605   6.314 -0.0535  0.0523 -0.1934
  870POPE   C3B13277   5.831   7.779   6.851  0.3391  0.3037  0.3091
  870POPE   C4B13278   5.697   8.256   7.058  0.0771 -0.1168 -0.0324
  871POPE   NH313279  17.672  18.791   5.787  0.0040  0.1332 -0.3138
  871POPE   PO413280  18.000  18.566   5.601 -0.0962  0.0052 -0.2254
  871POPE   GL113281  18.070  18.479   5.998 -0.1998 -0.2267  0.1625
  871POPE   GL213282  17.973  18.633   6.226  0.1113  0.3268  0.1260
  871POPE   C1A13283  18.425  18.486   6.302 -0.3725 -0.0515 -0.1923
  871POPE   D2A13284  18.484  18.710   6.703  0.2921 -0.1309 -0.4408
  871POPE   C3A13285  18.077  18.817   6.712 -0.3951 -0.0127 -0.0280
  871POPE   C4A13286  17.843  19.225   6.563 -0.0092 -0.0188 -0.0648
  871POPE   C1B13287  17.972  18.333   6.541  0.1768 -0.5313  0.2223
  871POPE   C2B13288  17.829  17.983   6.783  0.3176 -0.3506 -0.2772
  871POPE   C3B13289  18.044  17.919   7.164 -0.1120 -0.1291 -0.1120
  871POPE   C4B13290  18.421  18.208   7.367  0.1684 -0.1125 -0.1197
  872POPE   NH313291   0.514  16.238   5.431  0.1189  0.1720 -0.1303
  872POPE   PO413292   0.162  16.209   5.415  0.0407  0.2873 -0.2763
  872POPE   GL113293   0.084  16.435   5.766  0.2103 -0.3831 -0.1480
  872POPE   GL213294   0.352  16.567   5.864  0.2382  0.0128 -0.0044
  872POPE   C1A13295  -0.130  16.646   6.042 -0.0110  0.1806 -0.2455
  872POPE   D2A13296  -0.269  17.003   6.206  0.1215 -0.2419 -0.1441
  872POPE   C3A13297  -0.322  17.102   6.559  0.3460  0.1291  0.2159
  872POPE   C4A13298  -0.219  17.470   6.827 -0.1725  0.1357  0.5356
  872POPE   C1B13299   0.334  16.242   6.210  0.0342  0.2233 -0.1017
  872POPE   C2B13300   0.426  15.972   6.566  0.0476  0.0378 -0.2808
  872POPE   C3B13301   0.243  15.914   6.927  0.1472 -0.2523 -0.2956
  872POPE   C4B13302  -0.162  15.888   7.078  0.0701 -0.0622 -0.0998
  873POPE   NH313303  16.865  15.849   5.703 -0.3394  0.0906  0.0760
  873POPE   PO413304  17.276  16.011   5.576  0.0881 -0.0782  0.0369
  873POPE   GL113305  17.432  15.921   5.954  0.0070  0.1255  0.4118
  873POPE   GL213306  17.254  15.711   5.989 -0.2303  0.2280 -0.0844
  873POPE   C1A13307  17.179  16.020   6.325  0.0883 -0.2703  0.0150
  873POPE   D2A13308  17.157  15.689   6.616 -0.0641 -0.1033  0.1691
  873POPE   C3A13309  16.781  15.786   6.778 -0.0915  0.1274 -0.2150
  873POPE   C4A13310  16.591  15.910   7.137  0.0107  0.0612  0.0461
  873POPE   C1B13311  17.622  15.641   6.318  0.0487 -0.2953  0.1993
  873POPE   C2B13312  17.888  15.627   6.684  0.0744  0.1536  0.3943
  873POPE   C3B13313  18.015  15.862   7.033  0.0601 -0.5010 -0.0562
  873POPE   C4B13314  18.161  15.849   7.416 -0.0586 -0.0750  0.1301
  874YOPE   NH313315   8.303  17.580   5.289 -0.1002  0.1942 -0.1380
  874YOPE   PO413316   7.863  17.574   5.242  0.3657 -0.1201  0.4255
  874YOPE   GL113317   7.944  17.339   5.618  0.1311  0.0029  0.0339
  874YOPE   GL213318   7.664  17.452   5.689 -0.0332 -0.1218 -0.1316
  874YOPE   C1A13319   8.083  17.270   6.012  0.2258 -0.3314  0.0756
  874YOPE   D2A13320   8.014  17.241   6.361  0.2258 -0.0346  0.1563
  874YOPE   C3A13321   7.805  16.991   6.524  0.0942 -0.0093  0.0778
  874YOPE   C4A13322   7.863  16.972   6.954  0.3391 -0.0188  0.0585
  874YOPE   C1B13323   7.579  17.214   6.119  0.0291 -0.0198 -0.0215
  874YOPE   C2B13324   7.310  17.049   6.560  0.0324  0.1658 -0.1658
  874YOPE   D3B13325   7.280  17.095   6.957 -0.1376 -0.3093 -0.0130
  874YOPE   C4B13326   7.277  17.600   7.167 -0.3309  0.1334  0.1424
  875YOPE   NH313327   7.126   3.866   5.160  0.2969 -0.3611 -0.0851
  875YOPE   PO413328   7.513   3.864   5.401 -0.4280 -0.0761  0.1782
  875YOPE   GL113329   7.716   4.307   5.534  0.0796 -0.1132 -0.1263
  875YOPE   GL213330   8.069   4.402   5.567  0.0176 -0.1387  0.2952
  875YOPE   C1A13331   7.472   4.536   5.819 -0.1590  0.0607 -0.3003
  875YOPE   D2A13332   7.413   4.568   6.323 -0.0285 -0.0527 -0.1920
  875YOPE   C3A13333   7.579   4.859   6.643  0.2584 -0.0144 -0.0888
  875YOPE   C4A13334   7.367   5.244   6.904  0.1892  0.2259  0.1761
  875YOPE   C1B13335   7.975   4.483   5.965 -0.0670 -0.4757 -0.2043
  875YOPE   C2B13336   7.910   4.534   6.387  0.0517 -0.2984 -0.1394
  875YOPE   D3B13337   7.959   4.473   6.851 -0.0337 -0.0793  0.0544
  875YOPE   C4B13338   7.754   4.469   7.115 -0.1214 -0.0237 -0.4290
  876YOPE   NH313339  18.633  12.199   5.223 -0.0582 -0.0835 -0.3323
  876YOPE   PO413340  18.539  12.497   5.042 -0.0787 -0.0054  0.4973
  876YOPE   GL113341  18.699  12.649   5.456 -0.0702  0.0493  0.1878
  876YOPE   GL213342  18.657  12.360   5.732 -0.0227  0.0489  0.0141
  876YOPE   C1A13343  18.711  12.827   5.917 -0.1797  0.1702  0.0166
  876YOPE   D2A13344  18.823  12.872   6.374  0.1604  0.0316 -0.1039
  876YOPE   C3A13345  18.589  13.013   6.629 -0.2249  0.3426 -0.1382
  876YOPE   C4A13346  18.533  13.230   7.057  0.0669 -0.0524 -0.0294
  876YOPE   C1B13347  18.444  12.189   6.109 -0.1647 -0.1295  0.5829
  876YOPE   C2B13348  18.467  12.011   6.527  0.0202 -0.0453 -0.0409
  876YOPE   D3B13349  18.193  11.907   6.776  0.2335  0.0915 -0.2184
  876YOPE   C4B13350  18.157  11.883   7.320  0.1269 -0.0427 -0.2179
  877YOPE   NH313351  16.328   0.736   5.710  0.1215  0.0716 -0.0876
  877YOPE   PO413352  16.727   0.469   5.592  0.3225 -0.0530  0.1779
  877YOPE   GL113353  16.838   0.597   5.990 -0.0420 -0.0830  0.1589
  877YOPE   GL213354  17.151   0.667   6.076 -0.0607  0.2611 -0.0085
  877YOPE   C1A13355  16.827   0.919   6.346 -0.4315  0.0534 -0.2541
  877YOPE   D2A13356  16.793   1.208   6.780  0.3241 -0.0427  0.0505
  877YOPE   C3A13357  16.577   1.156   7.128 -0.0777  0.2100  0.0717
  877YOPE   C4A13358  16.249   1.395   7.466 -0.1324  0.0061  0.1955
  877YOPE   C1B13359  17.249   0.732   6.468 -0.1046  0.2336  0.1100
  877YOPE   C2B13360  17.205   0.885   6.946  0.1800  0.4984  0.1480
  877YOPE   D3B13361  17.043   0.786   7.293 -0.1856 -0.0754 -0.1437
  877YOPE   C4B13362  16.912   0.438   7.422 -0.0851  0.0105  0.1083
  878YOPE   NH313363   4.818  15.261   4.807 -0.0142  0.2889 -0.0346
  878YOPE   PO413364   5.005  15.230   5.192  0.3242 -0.3167 -0.2002
  878YOPE   GL113365   5.112  15.136   5.580 -0.0860  0.0936  0.0072
  878YOPE   GL213366   4.937  15.036   5.875  0.0271 -0.1208  0.0510
  878YOPE   C1A13367   5.176  15.452   5.846 -0.1690  0.2765 -0.0331
  878YOPE   D2A13368   5.317  15.740   6.258 -0.3492  0.1758 -0.0511
  878YOPE   C3A13369   5.018  15.599   6.504  0.1375 -0.1603  0.1472
  878YOPE   C4A13370   4.776  15.579   6.988  0.0346 -0.0412 -0.0095
  878YOPE   C1B13371   5.036  15.106   6.295 -0.0761  0.2577 -0.2246
  878YOPE   C2B13372   5.049  15.048   6.729  0.0199 -0.1088 -0.1561
  878YOPE   D3B13373   4.937  14.825   6.970 -0.2865  0.0332 -0.1662
  878YOPE   C4B13374   4.753  14.398   7.066 -0.1455 -0.1957 -0.1897
  879YOPE   NH313375  11.342   1.401   5.445  0.0080  0.3973  0.0766
  879YOPE   PO413376  11.484   1.192   5.753 -0.1360 -0.0315  0.3730
  879YOPE   GL113377  11.586   1.222   6.173  0.1241  0.1948  0.0160
  879YOPE   GL213378  11.798   1.453   6.131 -0.3132 -0.0228 -0.1104
  879YOPE   C1A13379  11.661   1.199   6.607 -0.0739  0.3185 -0.2201
  879YOPE   D2A13380  11.739   1.417   7.015 -0.2110  0.2030 -0.1288
  879YOPE   C3A13381  11.372   1.659   7.137 -0.0324  0.1910 -0.0581
  879YOPE   C4A13382  11.182   2.072   7.073  0.1044 -0.0365 -0.0044
  879YOPE   C1B13383  11.972   1.808   6.096  0.1147  0.0418  0.1232
  879YOPE   C2B13384  11.892   2.030   6.451 -0.0716  0.1785  0.0877
  879YOPE   D3B13385  11.585   2.122   6.766  0.2430 -0.2153 -0.1058
  879YOPE   C4B13386  11.108   1.961   6.588  0.3965 -0.1815 -0.2062
  880YOPE   NH313387  13.952   7.616   5.392  0.0601  0.0973 -0.0346
  880YOPE   PO413388  14.257   7.951   5.199  0.0375 -0.1592 -0.2519
  880YOPE   GL113389  14.287   7.940   5.674 -0.2308  0.0672 -0.3399
  880YOPE   GL213390  14.314   8.363   5.817  0.1639  0.0619 -0.1057
  880YOPE   C1A13391  14.143   8.009   6.095  0.1079 -0.4268  0.0154
  880YOPE   D2A13392  13.846   8.189   6.440  0.0094 -0.0206 -0.1228
  880YOPE   C3A13393  14.044   8.613   6.512  0.1521  0.0744  0.1021
  880YOPE   C4A13394  14.093   8.976   6.763  0.0827 -0.2077 -0.1671
  880YOPE   C1B13395  13.883   8.450   5.913 -0.2286  0.1258 -0.1146
  880YOPE   C2B13396  13.610   8.830   6.096 -0.1623 -0.3210 -0.3166
  880YOPE   D3B13397  13.454   9.066   6.522 -0.1350  0.0493  0.2902
  880YOPE   C4B13398  13.599   8.937   6.926  0.1062 -0.1565  0.2222
  881YOPE   NH313399   1.140  10.787   5.107  0.2044  0.2845  0.2707
  881YOPE   PO413400   1.099  11.207   4.913  0.2375  0.1839  0.1447
  881YOPE   GL113401   0.815  11.075   5.320 -0.0569 -0.2289 -0.2669
  881YOPE   GL213402   0.528  10.954   5.589  0.1022  0.4441  0.1486
  881YOPE   C1A13403   0.948  11.221   5.838 -0.0985  0.1146 -0.1166
  881YOPE   D2A13404   0.870  11.316   6.277  0.0165 -0.1612  0.0475
  881YOPE   C3A13405   1.028  10.972   6.608 -0.3359 -0.1014 -0.1165
  881YOPE   C4A13406   1.148  11.049   7.034 -0.0840 -0.1355  0.1238
  881YOPE   C1B13407   0.571  10.932   6.032 -0.0910 -0.6264  0.2574
  881YOPE   C2B13408   0.494  11.023   6.424  0.5135  0.0032  0.3418
  881YOPE   D3B13409   0.342  11.129   6.821 -0.0112  0.4155 -0.1293
  881YOPE   C4B13410   0.063  11.338   7.112 -0.0884 -0.0370  0.1047
  882YOPE   NH313411  11.646   3.948   5.127 -0.0479 -0.0221  0.0304
  882YOPE   PO413412  11.573   4.120   5.550  0.1692 -0.2816 -0.1406
  882YOPE   GL113413  11.496   4.415   5.722  0.0743 -0.3465  0.0593
  882YOPE   GL213414  11.685   4.703   5.673  0.2994 -0.0883  0.0533
  882YOPE   C1A13415  11.478   4.502   6.170 -0.2392 -0.0158 -0.2097
  882YOPE   D2A13416  11.551   4.429   6.652 -0.0800 -0.1856 -0.2324
  882YOPE   C3A13417  11.603   4.607   7.038 -0.2933  0.0985  0.4442
  882YOPE   C4A13418  11.937   4.706   7.272 -0.0980 -0.1727  0.0494
  882YOPE   C1B13419  11.892   4.889   6.033  0.0298 -0.0002 -0.0967
  882YOPE   C2B13420  12.048   5.167   6.372 -0.0249  0.0698 -0.2319
  882YOPE   D3B13421  12.142   5.458   6.580  0.0028  0.2793 -0.0196
  882YOPE   C4B13422  12.172   5.789   6.852  0.5004  0.2371  0.0896
  883YOPE   NH313423   5.174   1.698   5.500  0.0483  0.0386 -0.1251
  883YOPE   PO413424   5.396   2.147   5.376  0.3988  0.0131 -0.0335
  883YOPE   GL113425   5.454   2.322   5.810 -0.0735  0.0644  0.1761
  883YOPE   GL213426   5.200   2.085   5.863  0.0942 -0.2887  0.2920
  883YOPE   C1A13427   5.497   2.286   6.313 -0.0511  0.3212 -0.1926
  883YOPE   D2A13428   5.210   2.435   6.718 -0.1977 -0.0966 -0.0294
  883YOPE   C3A13429   5.416   2.651   6.990 -0.0595 -0.1434  0.0082
  883YOPE   C4A13430   5.731   2.571   7.346 -0.1184  0.0748 -0.1916
  883YOPE   C1B13431   5.342   1.798   6.121  0.0577  0.0411  0.1254
  883YOPE   C2B13432   5.684   1.789   6.462  0.0565  0.0270  0.1108
  883YOPE   D3B13433   5.971   2.044   6.656 -0.0535  0.1397 -0.0868
  883YOPE   C4B13434   6.411   2.209   6.851  0.0699  0.2852  0.0642
  884YOPE   NH313435  15.571  11.962   5.343 -0.0835 -0.1584 -0.2515
  884YOPE   PO413436  15.297  11.561   5.282 -0.2709 -0.1271 -0.0691
  884YOPE   GL113437  15.273  11.636   5.653  0.1000  0.0623 -0.5171
  884YOPE   GL213438  14.960  11.623   5.716 -0.0383 -0.3647  0.0366
  884YOPE   C1A13439  15.246  11.943   5.964 -0.0581 -0.1231 -0.1464
  884YOPE   D2A13440  15.378  12.077   6.308  0.2815  0.1644  0.2610
  884YOPE   C3A13441  15.242  11.916   6.765 -0.2751 -0.4901  0.2466
  884YOPE   C4A13442  15.155  11.735   7.225  0.0138 -0.2094 -0.1212
  884YOPE   C1B13443  15.138  11.219   5.870  0.1806 -0.1418 -0.0517
  884YOPE   C2B13444  15.332  10.927   6.118  0.1024 -0.2148  0.1881
  884YOPE   D3B13445  15.246  10.751   6.430 -0.2304  0.0168 -0.3478
  884YOPE   C4B13446  15.350  10.567   6.746  0.2157  0.0908 -0.1950
  885YOPE   NH313447   6.843   0.079   5.197  0.0088  0.2112  0.0535
  885YOPE   PO413448   6.534   0.404   5.263 -0.1324 -0.2495  0.3262
  885YOPE   GL113449   6.508   0.579   5.628 -0.1006  0.2588 -0.1607
  885YOPE   GL213450   6.690   0.466   5.736  0.0131 -0.1767  0.2644
  885YOPE   C1A13451   6.187   0.603   5.903  0.0903 -0.1333  0.2019
  885YOPE   D2A13452   6.033   0.790   6.247  0.0217 -0.2266  0.0214
  885YOPE   C3A13453   5.829   0.507   6.620  0.0067 -0.0090  0.1969
  885YOPE   C4A13454   5.746   0.809   6.889  0.1267 -0.1629 -0.2871
  885YOPE   C1B13455   6.616   0.249   6.054  0.0651  0.0072 -0.0028
  885YOPE   C2B13456   6.963   0.226   6.412  0.2279  0.0785 -0.1693
  885YOPE   D3B13457   6.905   0.176   6.839  0.0958 -0.1431 -0.1909
  885YOPE   C4B13458   6.702   0.542   7.022  0.0069 -0.0703 -0.0088
  886YOPE   NH313459  13.929  13.501   5.485  0.0453  0.0628 -0.1655
  886YOPE   PO413460  13.945  13.840   5.708  0.0297  0.1695 -0.0854
  886YOPE   GL113461  14.299  13.598   5.841  0.2509 -0.1014 -0.2397
  886YOPE   GL213462  14.446  13.902   5.835 -0.0994  0.2366  0.3498
  886YOPE   C1A13463  14.367  13.311   6.119 -0.1225  0.3618 -0.1117
  886YOPE   D2A13464  14.323  13.032   6.405  0.3410  0.0695  0.0563
  886YOPE   C3A13465  14.656  13.106   6.637  0.3626 -0.0776 -0.3495
  886YOPE   C4A13466  14.995  13.423   6.841  0.1472 -0.0106 -0.2241
  886YOPE   C1B13467  14.248  13.997   6.283  0.2605 -0.1398  0.3136
  886YOPE   C2B13468  14.243  13.843   6.803 -0.0356  0.1906 -0.2821
  886YOPE   D3B13469  14.308  14.158   7.194  0.1984 -0.1368  0.1650
  886YOPE   C4B13470  14.355  14.391   7.628  0.0837 -0.1357  0.1552
  887YOPE   NH313471   3.831  13.660   5.337 -0.2395  0.0192  0.2004
  887YOPE   PO413472   4.016  14.023   5.264  0.2037 -0.4567  0.2578
  887YOPE   GL113473   4.222  13.920   5.612 -0.3860  0.2370  0.0218
  887YOPE   GL213474   4.436  13.706   5.605 -0.0826 -0.2898 -0.0622
  887YOPE   C1A13475   4.252  13.979   5.993  0.1008  0.0683  0.2794
  887YOPE   D2A13476   4.265  13.738   6.357 -0.2267  0.1542 -0.0233
  887YOPE   C3A13477   4.401  13.892   6.708 -0.3834  0.2493 -0.1756
  887YOPE   C4A13478   4.630  13.949   7.145 -0.1989  0.3712 -0.0847
  887YOPE   C1B13479   4.664  13.592   6.016  0.1444  0.0897  0.0431
  887YOPE   C2B13480   4.709  13.499   6.493 -0.2689 -0.2083 -0.1535
  887YOPE   D3B13481   4.859  13.541   6.914  0.0114 -0.0073  0.2229
  887YOPE   C4B13482   4.867  13.546   7.318 -0.1185 -0.1387  0.2205
  888YOPE   NH313483  18.932   3.849   5.359 -0.0038 -0.1488  0.0483
  888YOPE   PO413484  19.301   3.691   5.321 -0.0008 -0.2045  0.0369
  888YOPE   GL113485  19.593   3.678   5.691 -0.2605  0.1069 -0.1061
  888YOPE   GL213486  19.845   3.523   5.568 -0.1944  0.0518 -0.1853
  888YOPE   C1A13487  19.573   3.797   6.179  0.0618  0.0382  0.3324
  888YOPE   D2A13488  19.702   3.643   6.551 -0.0575 -0.0216 -0.1392
  888YOPE   C3A13489  19.560   3.668   6.941 -0.0729  0.0457 -0.1497
  888YOPE   C4A13490  19.369   3.823   7.436  0.0399  0.3234 -0.0836
  888YOPE   C1B13491  19.678   3.321   5.986 -0.0466  0.2204  0.0479
  888YOPE   C2B13492  19.658   3.182   6.391  0.1691  0.0633 -0.1516
  888YOPE   D3B13493  19.682   3.155   6.876 -0.0614 -0.2892  0.0526
  888YOPE   C4B13494  19.716   3.253   7.203  0.3547 -0.0787  0.2087
  889YOPE   NH313495  16.310   5.275   4.984 -0.0226  0.2910  0.3027
  889YOPE   PO413496  16.275   4.827   5.146  0.3638  0.0932  0.2831
  889YOPE   GL113497  16.210   4.717   5.533 -0.1323 -0.1431 -0.3130
  889YOPE   GL213498  15.971   4.861   5.736 -0.1408 -0.0281 -0.0047
  889YOPE   C1A13499  16.305   4.647   6.018  0.0406 -0.2891  0.0115
  889YOPE   D2A13500  16.212   4.735   6.465 -0.0051  0.0940 -0.0203
  889YOPE   C3A13501  16.473   4.544   6.891  0.0497 -0.1703  0.0364
  889YOPE   C4A13502  16.709   4.868   7.199  0.2329 -0.0236 -0.2365
  889YOPE   C1B13503  15.769   4.835   6.152 -0.0063 -0.0155  0.0903
  889YOPE   C2B13504  15.670   4.815   6.490  0.0884  0.2975 -0.1460
  889YOPE   D3B13505  15.874   4.652   6.880  0.0612  0.0111 -0.0281
  889YOPE   C4B13506  16.212   4.820   7.216 -0.1268  0.2624 -0.0197
  890YOPE   NH313507   3.933  18.013   4.907 -0.1848 -0.0367  0.0981
  890YOPE   PO413508   3.634  17.691   4.936  0.0990 -0.0479  0.0006
  890YOPE   GL113509   3.828  17.715   5.386 -0.1858 -0.1140 -0.0964
  890YOPE   GL213510   4.081  17.893   5.473  0.0191 -0.0615  0.4090
  890YOPE   C1A13511   3.460  17.740   5.770  0.2255  0.0261  0.1938
  890YOPE   D2A13512   3.442  17.627   6.227 -0.1456  0.0071  0.2173
  890YOPE   C3A13513   3.196  17.367   6.359  0.0736  0.2655  0.3299
  890YOPE   C4A13514   2.846  17.097   6.559 -0.1374 -0.0271  0.1209
  890YOPE   C1B13515   3.958  17.752   5.884  0.3471 -0.1201 -0.3245
  890YOPE   C2B13516   3.970  17.674   6.313 -0.2924 -0.0428  0.1307
  890YOPE   D3B13517   4.272  17.781   6.628 -0.1957  0.3340  0.1050
  890YOPE   C4B13518   4.322  17.890   7.045 -0.1495  0.4663 -0.0696
  891YOPE   NH313519  16.407   6.792   5.089  0.1306  0.1580  0.0906
  891YOPE   PO413520  16.730   6.564   5.171  0.0643 -0.0607 -0.0659
  891YOPE   GL113521  16.488   6.553   5.573 -0.4118 -0.0166 -0.0405
  891YOPE   GL213522  16.203   6.340   5.627 -0.2091 -0.1110  0.2029
  891YOPE   C1A13523  16.713   6.360   5.999 -0.0407 -0.1639 -0.0206
  891YOPE   D2A13524  16.802   6.364   6.428 -0.1219  0.0121 -0.0194
  891YOPE   C3A13525  16.844   5.916   6.585  0.1471  0.1791  0.2290
  891YOPE   C4A13526  16.672   5.601   6.898  0.0524  0.1679 -0.1650
  891YOPE   C1B13527  16.250   6.514   6.014  0.2197 -0.0568  0.0709
  891YOPE   C2B13528  16.313   6.560   6.505  0.2691  0.0017 -0.1651
  891YOPE   D3B13529  16.365   6.928   6.691  0.3643 -0.2123 -0.2384
  891YOPE   C4B13530  16.609   7.136   6.997  0.4032  0.2853 -0.0666
  892YOPE   NH313531  18.662  10.801   5.082  0.1588  0.1028 -0.0063
  892YOPE   PO413532  18.412  10.425   5.220 -0.0098 -0.0478  0.1800
  892YOPE   GL113533  18.443  10.330   5.643 -0.5080 -0.1144 -0.0527
  892YOPE   GL213534  18.339  10.085   5.789  0.1155 -0.2696 -0.0556
  892YOPE   C1A13535  18.431  10.516   6.130 -0.1276  0.1224  0.1591
  892YOPE   D2A13536  18.434  10.478   6.485 -0.6133 -0.2018 -0.2893
  892YOPE   C3A13537  18.613  10.625   6.854 -0.1337 -0.0473 -0.0964
  892YOPE   C4A13538  18.352  10.853   7.239 -0.2650 -0.2147 -0.1539
  892YOPE   C1B13539  18.126  10.002   6.177 -0.1736 -0.0129 -0.4140
  892YOPE   C2B13540  18.128  10.035   6.640  0.1662  0.1704 -0.0228
  892YOPE   D3B13541  18.033  10.427   6.919  0.3936  0.2750 -0.2293
  892YOPE   C4B13542  18.039  10.435   7.366  0.1665  0.0252 -0.2229
  893YOPE   NH313543  12.682  16.979   5.950  0.0390  0.1189 -0.1624
  893YOPE   PO413544  12.839  16.534   6.113  0.0839 -0.1639  0.1083
  893YOPE   GL113545  12.678  16.299   6.522 -0.0991 -0.0265  0.4658
  893YOPE   GL213546  12.429  16.360   6.538 -0.1058  0.1839  0.0395
  893YOPE   C1A13547  12.636  15.993   6.870 -0.0282 -0.0657  0.2488
  893YOPE   D2A13548  12.720  15.643   7.051  0.3065  0.1985  0.2676
  893YOPE   C3A13549  12.665  15.527   7.468 -0.0484 -0.0835  0.0841
  893YOPE   C4A13550  12.593  15.219   7.790  0.1751 -0.4241  0.2190
  893YOPE   C1B13551  12.106  16.031   6.817 -0.4115 -0.0022  0.2177
  893YOPE   C2B13552  11.799  15.794   7.055 -0.0320 -0.2836 -0.0360
  893YOPE   D3B13553  11.602  15.458   7.232 -0.1468  0.1517 -0.4439
  893YOPE   C4B13554  11.560  15.040   7.135  0.0893  0.0389  0.3317
  894YOPE   NH313555   8.078  18.039   5.341 -0.2615 -0.0332 -0.2762
  894YOPE   PO413556   8.472  18.443   5.353  0.1382 -0.3076  0.0521
  894YOPE   GL113557   8.463  18.730   5.689  0.0348  0.2348  0.3059
  894YOPE   GL213558   8.329  18.947   5.643 -0.1443  0.2293  0.1270
  894YOPE   C1A13559   8.562  19.047   6.100 -0.2064 -0.1728  0.3249
  894YOPE   D2A13560   8.584  19.120   6.531  0.0571 -0.3219  0.2138
  894YOPE   C3A13561   8.734  19.117   7.055  0.0636 -0.3368  0.0643
  894YOPE   C4A13562   8.668  19.035   7.523 -0.2057 -0.2001 -0.0966
  894YOPE   C1B13563   8.086  18.753   6.033 -0.0569 -0.0547  0.1793
  894YOPE   C2B13564   8.006  18.811   6.451 -0.0189  0.1985  0.0477
  894YOPE   D3B13565   7.847  18.834   6.825 -0.0299 -0.3403  0.1388
  894YOPE   C4B13566   7.418  18.510   6.903  0.0713  0.0568 -0.0985
  895YOPE   NH313567   5.580  10.728   5.163 -0.1813 -0.0987  0.4409
  895YOPE   PO413568   5.240  10.911   5.064  0.3658  0.1035 -0.2479
  895YOPE   GL113569   5.113  11.056   5.447 -0.0575  0.1010 -0.0801
  895YOPE   GL213570   4.872  11.286   5.544  0.1828 -0.2738  0.0789
  895YOPE   C1A13571   5.157  11.014   5.821 -0.0760  0.0772 -0.1305
  895YOPE   D2A13572   4.980  11.152   6.344 -0.0589 -0.2352 -0.0172
  895YOPE   C3A13573   4.905  11.049   6.722 -0.1775 -0.0698  0.0404
  895YOPE   C4A13574   4.961  10.956   7.128 -0.1408 -0.2977  0.1309
  895YOPE   C1B13575   4.705  11.191   5.892 -0.2428  0.2416 -0.0086
  895YOPE   C2B13576   4.321  11.061   6.106 -0.3709 -0.1155  0.4974
  895YOPE   D3B13577   4.206  11.049   6.573 -0.1153  0.0851 -0.1682
  895YOPE   C4B13578   4.070  10.818   6.896  0.0054 -0.3022  0.2982
  896YOPE   NH313579  15.030   4.178   5.289  0.2198  0.1721  0.1438
  896YOPE   PO413580  15.486   4.222   5.418 -0.1437  0.1763 -0.0168
  896YOPE   GL113581  15.391   4.063   5.665 -0.1007 -0.2503 -0.0603
  896YOPE   GL213582  15.124   3.937   5.773 -0.1097  0.0820 -0.1345
  896YOPE   C1A13583  15.605   3.802   6.021  0.0951 -0.2278  0.0427
  896YOPE   D2A13584  15.544   3.764   6.481 -0.0288 -0.1173  0.2206
  896YOPE   C3A13585  15.691   3.442   6.590 -0.0879  0.0115 -0.0590
  896YOPE   C4A13586  15.870   3.218   6.986  0.1028  0.1876 -0.0727
  896YOPE   C1B13587  15.173   4.102   6.138  0.3542 -0.0586  0.1409
  896YOPE   C2B13588  15.153   4.137   6.469 -0.1266  0.2279  0.2549
  896YOPE   D3B13589  15.184   4.005   6.958  0.2751  0.0095  0.0249
  896YOPE   C4B13590  15.499   3.616   7.084 -0.0110  0.1623  0.1818
  897YOPE   NH313591   4.047   5.875   5.033  0.3179 -0.1116 -0.1067
  897YOPE   PO413592   3.967   5.543   5.379  0.0071 -0.0381 -0.0728
  897YOPE   GL113593   4.080   5.601   5.811 -0.0493 -0.1591 -0.1504
  897YOPE   GL213594   4.373   5.569   5.857  0.0088  0.0064 -0.0217
  897YOPE   C1A13595   4.007   5.671   6.356 -0.0589 -0.1742  0.1240
  897YOPE   D2A13596   4.164   5.887   6.668  0.2823 -0.0647  0.1827
  897YOPE   C3A13597   4.558   5.851   6.741 -0.2374 -0.0077 -0.4999
  897YOPE   C4A13598   4.981   6.047   6.768 -0.1161  0.0901 -0.1452
  897YOPE   C1B13599   4.457   5.778   6.158  0.1454 -0.1660 -0.0571
  897YOPE   C2B13600   4.812   5.875   6.280 -0.0174 -0.1082  0.4361
  897YOPE   D3B13601   5.314   5.880   6.385 -0.3791  0.0551  0.3136
  897YOPE   C4B13602   5.754   5.776   6.541 -0.1485  0.2992 -0.0666
  898YOPE   NH313603  15.843  15.568   5.564 -0.0205 -0.1570  0.1964
  898YOPE   PO413604  16.007  15.281   5.547  0.1846  0.2974 -0.1921
  898YOPE   GL113605  15.870  15.224   5.961 -0.0406 -0.1552 -0.1790
  898YOPE   GL213606  15.849  15.526   6.108 -0.0833 -0.1452 -0.2021
  898YOPE   C1A13607  15.472  14.838   6.178  0.0046  0.1278  0.0216
  898YOPE   D2A13608  15.113  14.501   6.351  0.1360  0.1322 -0.0998
  898YOPE   C3A13609  14.920  14.489   6.738 -0.1660  0.1656  0.2312
  898YOPE   C4A13610  14.615  14.164   6.805 -0.2020 -0.0389 -0.1062
  898YOPE   C1B13611  15.680  15.173   6.448 -0.0490 -0.2942  0.3735
  898YOPE   C2B13612  15.333  14.989   6.669 -0.0768 -0.0336  0.0048
  898YOPE   D3B13613  15.193  14.812   7.000 -0.1245  0.1215 -0.2752
  898YOPE   C4B13614  15.168  14.761   7.502  0.1318  0.0595  0.2377
  899YOPE   NH313615   6.287  14.271   5.311 -0.1876  0.0622 -0.2894
  899YOPE   PO413616   6.743  14.278   5.199  0.2750  0.2363 -0.1436
  899YOPE   GL113617   6.784  14.033   5.509 -0.1881  0.0140 -0.0881
  899YOPE   GL213618   6.706  14.147   5.776  0.0484 -0.1200  0.0688
  899YOPE   C1A13619   6.622  13.656   5.819 -0.1213  0.1285 -0.2000
  899YOPE   D2A13620   6.595  13.734   6.326 -0.1223 -0.0578  0.0474
  899YOPE   C3A13621   6.858  13.506   6.604  0.1643 -0.0110 -0.1118
  899YOPE   C4A13622   7.221  13.589   6.891  0.0427  0.0277 -0.3287
  899YOPE   C1B13623   6.741  14.244   6.283 -0.1883  0.0724  0.0295
  899YOPE   C2B13624   6.812  14.378   6.656  0.2109 -0.0588  0.1388
  899YOPE   D3B13625   7.154  14.509   7.020 -0.0759 -0.1773  0.0180
  899YOPE   C4B13626   7.231  14.353   7.434  0.1332 -0.0341 -0.0501
  900YOPE   NH313627  14.638   7.631   5.373  0.1407 -0.4502 -0.0594
  900YOPE   PO413628  14.349   7.290   5.505  0.1666  0.1009 -0.0700
  900YOPE   GL113629  14.381   7.045   5.782  0.3976  0.0356 -0.2464
  900YOPE   GL213630  14.198   6.865   5.719  0.0229  0.1389  0.0494
  900YOPE   C1A13631  14.457   7.101   6.174  0.1870 -0.0295  0.2785
  900YOPE   D2A13632  14.356   7.115   6.600 -0.1788  0.0256  0.5698
  900YOPE   C3A13633  14.403   7.322   6.933 -0.3123  0.1045 -0.4437
  900YOPE   C4A13634  14.401   7.655   7.235 -0.4236 -0.1860 -0.0236
  900YOPE   C1B13635  13.829   6.669   5.886 -0.1215  0.0582  0.1227
  900YOPE   C2B13636  13.420   6.413   5.790 -0.0293  0.0490  0.1074
  900YOPE   D3B13637  13.186   6.042   5.934  0.3850  0.1061  0.1909
  900YOPE   C4B13638  12.855   5.760   6.193  0.0491 -0.1641 -0.1293
  901YOPE   NH313639  14.879  13.105   5.344 -0.3492  0.0193  0.4108
  901YOPE   PO413640  15.243  12.873   5.276  0.0058  0.1973 -0.1229
  901YOPE   GL113641  15.286  12.694   5.652 -0.1807 -0.0246 -0.1300
  901YOPE   GL213642  15.189  12.972   5.788 -0.1504  0.2365 -0.1850
  901YOPE   C1A13643  15.365  12.445   6.014 -0.0453  0.0841  0.2017
  901YOPE   D2A13644  15.597  12.542   6.352  0.0621 -0.2035 -0.0910
  901YOPE   C3A13645  15.749  12.637   6.649  0.1647  0.2173  0.0257
  901YOPE   C4A13646  15.917  12.954   6.876 -0.2212 -0.1068 -0.3446
  901YOPE   C1B13647  15.242  12.900   6.205  0.2499 -0.0452  0.0765
  901YOPE   C2B13648  15.125  12.993   6.659  0.2120  0.1048 -0.2413
  901YOPE   D3B13649  15.044  12.935   7.106  0.2049  0.0156 -0.2613
  901YOPE   C4B13650  14.820  12.973   7.508 -0.0282 -0.0381 -0.0525
  902YOPE   NH313651   9.270  17.358   5.487 -0.4422  0.3089  0.0191
  902YOPE   PO413652   9.083  17.027   5.334 -0.1603 -0.0334  0.0949
  902YOPE   GL113653   8.854  17.237   5.814  0.1806  0.0192  0.3894
  902YOPE   GL213654   8.505  17.396   5.761  0.3696  0.0727  0.0661
  902YOPE   C1A13655   8.893  17.133   6.267  0.0533 -0.1684 -0.0225
  902YOPE   D2A13656   9.241  17.089   6.551 -0.1107 -0.0848  0.1667
  902YOPE   C3A13657   9.283  16.943   6.990 -0.2674  0.3652  0.1141
  902YOPE   C4A13658   9.573  17.121   7.073  0.2391 -0.1702  0.1179
  902YOPE   C1B13659   8.731  17.737   5.829 -0.1739  0.1074  0.3206
  902YOPE   C2B13660   8.641  18.015   6.195  0.4119 -0.1658  0.0407
  902YOPE   D3B13661   8.511  18.127   6.610  0.2211  0.0619 -0.0571
  902YOPE   C4B13662   8.422  18.191   7.134 -0.2929 -0.1278  0.2643
  903YOPE   NH313663   4.104  16.284   5.325  0.2435  0.2113 -0.1375
  903YOPE   PO413664   4.069  16.727   5.069 -0.1097 -0.1939 -0.2011
  903YOPE   GL113665   3.939  16.780   5.465  0.1647 -0.5890 -0.1973
  903YOPE   GL213666   3.762  16.539   5.494 -0.1726  0.1256 -0.2132
  903YOPE   C1A13667   4.073  16.962   5.844 -0.0404 -0.3672  0.0739
  903YOPE   D2A13668   4.063  16.917   6.334  0.1605 -0.1429  0.3150
  903YOPE   C3A13669   4.299  17.315   6.436  0.2109 -0.0914  0.0730
  903YOPE   C4A13670   4.669  17.540   6.771  0.1998 -0.3049 -0.0940
  903YOPE   C1B13671   3.786  16.568   5.917  0.1511  0.0063  0.2212
  903YOPE   C2B13672   3.699  16.528   6.333 -0.2774  0.0656 -0.0159
  903YOPE   D3B13673   3.522  16.270   6.634  0.0372 -0.2546  0.0963
  903YOPE   C4B13674   3.593  15.956   6.878  0.3030  0.0937 -0.1366
  904YOPE   NH313675   2.105  14.847   5.265  0.1497 -0.3899  0.0301
  904YOPE   PO413676   2.263  15.217   5.450  0.1596  0.1962  0.1399
  904YOPE   GL113677   2.206  15.509   5.746  0.0563 -0.2095  0.2488
  904YOPE   GL213678   2.558  15.599   5.726  0.0533  0.0774  0.0814
  904YOPE   C1A13679   2.102  15.429   6.152  0.1734  0.1497 -0.1248
  904YOPE   D2A13680   2.160  15.529   6.593 -0.0939 -0.4863 -0.0078
  904YOPE   C3A13681   2.405  15.290   6.881 -0.2183  0.0003 -0.0688
  904YOPE   C4A13682   2.701  15.193   7.154 -0.1017  0.3374 -0.1149
  904YOPE   C1B13683   2.450  15.879   6.028  0.0005 -0.1205  0.0865
  904YOPE   C2B13684   2.297  16.029   6.366  0.1095  0.0617 -0.0130
  904YOPE   D3B13685   2.088  16.407   6.533 -0.3334  0.2390 -0.0529
  904YOPE   C4B13686   2.171  16.757   6.681 -0.0332 -0.1878  0.3444
  905YOPE   NH313687   2.729  14.464   5.501  0.5839 -0.0296  0.1044
  905YOPE   PO413688   2.741  14.940   5.295  0.0169 -0.1762 -0.0330
  905YOPE   GL113689   2.556  14.923   5.647  0.0370 -0.1654  0.2500
  905YOPE   GL213690   2.342  14.724   5.795  0.1398 -0.1354 -0.2855
  905YOPE   C1A13691   2.483  15.172   6.007 -0.2582 -0.0554 -0.2081
  905YOPE   D2A13692   2.563  15.272   6.424 -0.2711 -0.0711 -0.1422
  905YOPE   C3A13693   2.912  15.267   6.715 -0.3039 -0.3626  0.0916
  905YOPE   C4A13694   3.302  15.583   6.706  0.1048  0.0051 -0.0551
  905YOPE   C1B13695   2.226  14.461   6.140  0.0539 -0.2113  0.1769
  905YOPE   C2B13696   2.101  14.488   6.511  0.2932 -0.0421 -0.0708
  905YOPE   D3B13697   2.023  14.494   6.962 -0.3027 -0.1588  0.0011
  905YOPE   C4B13698   1.864  14.726   7.290 -0.2374  0.1315 -0.0379
  906YOPE   NH313699  10.755  12.294   5.510 -0.0326 -0.0604  0.1611
  906YOPE   PO413700  10.677  11.880   5.618 -0.0670 -0.0737  0.2660
  906YOPE   GL113701  10.725  12.035   5.929 -0.1778  0.0118 -0.2444
  906YOPE   GL213702  10.527  11.885   6.110 -0.0560  0.0725  0.0236
  906YOPE   C1A13703  10.887  12.181   6.343  0.3636 -0.0716 -0.0724
  906YOPE   D2A13704  11.005  12.514   6.667 -0.0317 -0.2531 -0.3779
  906YOPE   C3A13705  10.791  12.518   7.091  0.1012 -0.1464  0.2012
  906YOPE   C4A13706  10.689  12.647   7.530  0.1347  0.1099 -0.2059
  906YOPE   C1B13707  10.434  12.005   6.469 -0.2259  0.0347 -0.1214
  906YOPE   C2B13708  10.643  12.046   6.812 -0.1176  0.1353 -0.1076
  906YOPE   D3B13709  11.093  12.059   6.947 -0.0139 -0.0325 -0.0927
  906YOPE   C4B13710  11.321  11.737   6.959  0.0914  0.0906  0.0476
  907YOPE   NH313711  17.140   5.332   5.295  0.2271 -0.0423  0.0268
  907YOPE   PO413712  17.437   5.611   5.508 -0.1831  0.0191 -0.0227
  907YOPE   GL113713  17.038   5.791   5.714 -0.0835  0.0558  0.1275
  907YOPE   GL213714  16.925   5.489   5.763  0.3057 -0.2262  0.0308
  907YOPE   C1A13715  16.729   5.867   6.014 -0.0545  0.1567 -0.0515
  907YOPE   D2A13716  16.405   5.985   6.111 -0.3460  0.0127 -0.3746
  907YOPE   C3A13717  16.336   6.031   6.581  0.0291  0.1395 -0.1900
  907YOPE   C4A13718  16.126   6.210   6.888  0.0669 -0.1427 -0.0053
  907YOPE   C1B13719  16.485   5.414   5.880  0.1973 -0.0080 -0.3650
  907YOPE   C2B13720  16.240   5.169   6.140  0.0078 -0.1243 -0.0609
  907YOPE   D3B13721  16.431   5.136   6.615 -0.2542  0.0665  0.0429
  907YOPE   C4B13722  16.355   5.281   7.103 -0.1334 -0.0774  0.0563
  908YOPE   NH313723   0.937  11.537   5.246  0.3178  0.1429 -0.0803
  908YOPE   PO413724   0.447  11.375   5.300 -0.1584  0.1227 -0.2309
  908YOPE   GL113725   0.641  11.638   5.619  0.0759 -0.1178  0.0443
  908YOPE   GL213726   0.394  11.859   5.656 -0.0085 -0.2311 -0.1481
  908YOPE   C1A13727   0.788  11.785   6.006 -0.1463 -0.3467 -0.1842
  908YOPE   D2A13728   0.826  11.794   6.490  0.0129  0.2841  0.1378
  908YOPE   C3A13729   0.738  11.417   6.783  0.3365  0.0121 -0.3056
  908YOPE   C4A13730   0.746  11.351   7.200 -0.1619  0.3297  0.0721
  908YOPE   C1B13731   0.299  12.028   6.090  0.3122  0.1501 -0.3981
  908YOPE   C2B13732   0.503  12.225   6.387 -0.1032  0.2223  0.4355
  908YOPE   D3B13733   0.604  12.065   6.880 -0.1304  0.0318  0.1941
  908YOPE   C4B13734   0.489  11.795   7.280 -0.0627  0.2259  0.0472
  909YOPE   NH313735  11.922  16.953   5.846 -0.1544  0.0049 -0.3339
  909YOPE   PO413736  11.847  16.672   5.547 -0.2375 -0.2312 -0.2100
  909YOPE   GL113737  11.642  16.525   5.857 -0.0743 -0.1098 -0.0473
  909YOPE   GL213738  11.418  16.707   6.040 -0.1550  0.0362 -0.1042
  909YOPE   C1A13739  11.690  16.245   6.188 -0.1722  0.0141  0.0404
  909YOPE   D2A13740  11.701  15.947   6.507  0.2295 -0.3053  0.0822
  909YOPE   C3A13741  11.438  15.619   6.361  0.1664 -0.0697  0.1878
  909YOPE   C4A13742  11.148  15.296   6.263  0.0131 -0.1650 -0.1461
  909YOPE   C1B13743  11.531  16.598   6.445  0.1817  0.0155  0.1075
  909YOPE   C2B13744  11.524  16.363   6.746 -0.2221 -0.0973 -0.0224
  909YOPE   D3B13745  11.511  16.212   7.220  0.2260  0.0357  0.1957
  909YOPE   C4B13746  11.422  16.256   7.655 -0.0186  0.0422  0.1131
  910YOPE   NH313747  19.209   5.594   5.371  0.2444  0.0773  0.0253
  910YOPE   PO413748  18.725   5.555   5.489 -0.2648  0.3191 -0.0994
  910YOPE   GL113749  18.961   5.527   5.881  0.0139 -0.0003 -0.1635
  910YOPE   GL213750  19.075   5.176   5.680 -0.0817 -0.2731 -0.1193
  910YOPE   C1A13751  19.278   5.596   6.285  0.2978 -0.0576 -0.1563
  910YOPE   D2A13752  19.394   5.720   6.535 -0.1079 -0.3475  0.0884
  910YOPE   C3A13753  19.211   5.800   6.899  0.0267  0.4230  0.1662
  910YOPE   C4A13754  18.981   5.801   7.329 -0.0895 -0.1155 -0.0821
  910YOPE   C1B13755  19.258   5.116   6.073  0.0383 -0.0933  0.1333
  910YOPE   C2B13756  19.520   4.804   6.163  0.0167  0.0040 -0.4581
  910YOPE   D3B13757  19.737   4.396   6.352 -0.0996 -0.2789  0.0108
  910YOPE   C4B13758  19.708   4.118   6.678 -0.0877  0.2636 -0.1825
  911YOPE   NH313759   5.785   3.222   5.192  0.1607 -0.0728 -0.2590
  911YOPE   PO413760   5.493   3.155   5.540 -0.3275  0.2358  0.2808
  911YOPE   GL113761   5.673   3.047   5.861 -0.1538  0.4367  0.1061
  911YOPE   GL213762   5.501   2.782   6.055  0.2166 -0.0132 -0.1990
  911YOPE   C1A13763   5.631   3.170   6.339  0.3814  0.2671  0.2698
  911YOPE   D2A13764   5.694   3.112   6.732  0.2079 -0.0480  0.1491
  911YOPE   C3A13765   5.847   3.431   7.051 -0.1793  0.3750  0.0959
  911YOPE   C4A13766   6.152   3.738   7.061  0.2453  0.1516 -0.0946
  911YOPE   C1B13767   5.292   2.836   6.463 -0.2862  0.2413  0.1005
  911YOPE   C2B13768   4.971   2.911   6.808 -0.0624 -0.2384  0.0226
  911YOPE   D3B13769   5.126   3.113   7.042 -0.1574 -0.0259  0.2457
  911YOPE   C4B13770   5.474   3.146   7.167  0.1184  0.2151 -0.1328
  912YOPE   NH313771   7.739   1.038   5.459 -0.0036 -0.0391  0.2129
  912YOPE   PO413772   7.394   1.189   5.315  0.1759  0.0667  0.2266
  912YOPE   GL113773   7.480   1.357   5.759 -0.0950 -0.0398 -0.0184
  912YOPE   GL213774   7.352   1.118   6.099 -0.1840  0.1037  0.3343
  912YOPE   C1A13775   7.215   1.579   6.128 -0.0452 -0.0911  0.0946
  912YOPE   D2A13776   7.362   1.699   6.584  0.0617  0.1401 -0.0466
  912YOPE   C3A13777   7.254   2.099   6.686 -0.1001  0.0452 -0.2963
  912YOPE   C4A13778   7.405   2.386   6.514 -0.2505 -0.1082  0.0647
  912YOPE   C1B13779   7.465   1.149   6.567  0.1284  0.1431  0.5084
  912YOPE   C2B13780   7.558   1.000   6.940 -0.1117  0.0878 -0.1693
  912YOPE   D3B13781   7.520   1.225   7.302 -0.0917  0.0882  0.0478
  912YOPE   C4B13782   7.221   1.476   7.576  0.1145 -0.2435  0.1620
  913YOPE   NH313783  15.569  13.127   5.535 -0.0588 -0.1618 -0.1007
  913YOPE   PO413784  15.197  13.433   5.582  0.0310  0.0550 -0.0336
  913YOPE   GL113785  15.358  13.390   5.979 -0.4325  0.0047 -0.2246
  913YOPE   GL213786  15.618  13.119   6.101  0.2696  0.1130  0.0831
  913YOPE   C1A13787  15.369  13.431   6.401 -0.2800 -0.4147  0.0630
  913YOPE   D2A13788  15.469  13.505   6.773 -0.0204  0.0437  0.1117
  913YOPE   C3A13789  15.470  13.261   7.118  0.0333 -0.1256  0.1044
  913YOPE   C4A13790  15.333  13.099   7.479  0.0832 -0.0356  0.0845
  913YOPE   C1B13791  15.850  13.289   6.441 -0.2214  0.1445  0.0716
  913YOPE   C2B13792  15.987  13.496   6.708  0.0112 -0.1685  0.3360
  913YOPE   D3B13793  16.268  13.491   6.973 -0.0445 -0.1935  0.0291
  913YOPE   C4B13794  16.720  13.556   7.194 -0.2403  0.0710 -0.0137
  914YOPE   NH313795  13.636   9.185   5.329  0.3348 -0.1332  0.1049
  914YOPE   PO413796  13.980   9.245   5.358 -0.1213  0.0902  0.0395
  914YOPE   GL113797  14.250   9.325   5.629 -0.0419 -0.1631  0.0976
  914YOPE   GL213798  14.226   9.036   5.797 -0.0029 -0.0640  0.0726
  914YOPE   C1A13799  14.670   9.284   5.787  0.0749  0.2340 -0.1997
  914YOPE   D2A13800  14.985   9.402   6.009  0.0100  0.1623 -0.0241
  914YOPE   C3A13801  15.092   9.522   6.343 -0.0470  0.1074  0.0430
  914YOPE   C4A13802  15.167   9.468   6.805  0.0936 -0.1224  0.0037
  914YOPE   C1B13803  14.102   8.913   6.122  0.0871  0.0860  0.1420
  914YOPE   C2B13804  13.913   9.172   6.363 -0.0121  0.0675  0.0100
  914YOPE   D3B13805  13.812   9.420   6.819 -0.0550 -0.1913  0.3513
  914YOPE   C4B13806  14.017   9.805   6.834  0.0218  0.0873  0.1948
  915YOPE   NH313807  13.158   0.535   5.974 -0.0094  0.2563  0.2273
  915YOPE   PO413808  12.832   0.305   6.048  0.0584 -0.0136  0.0677
  915YOPE   GL113809  12.992   0.286   6.457  0.0802 -0.2308  0.0593
  915YOPE   GL213810  13.297   0.579   6.446 -0.3169  0.1630  0.1006
  915YOPE   C1A13811  12.836   0.090   6.801  0.1715 -0.0075 -0.0545
  915YOPE   D2A13812  12.763   0.141   7.254  0.2630  0.0085 -0.0553
  915YOPE   C3A13813  12.732  -0.097   7.599 -0.0691 -0.3351  0.0229
  915YOPE   C4A13814  12.547  -0.082   7.927 -0.1005  0.0279  0.1608
  915YOPE   C1B13815  13.045   0.866   6.809 -0.1659  0.0109 -0.1849
  915YOPE   C2B13816  13.043   1.340   7.027 -0.2699 -0.0715 -0.1706
  915YOPE   D3B13817  13.126   1.487   7.490  0.1956  0.3245 -0.3119
  915YOPE   C4B13818  13.374   1.596   7.625  0.0399 -0.0550  0.1577
  916YOPE   NH313819   4.544  18.922   5.038  0.0580 -0.0521 -0.1772
  916YOPE   PO413820   4.210  19.349   5.099 -0.0894  0.0486 -0.0134
  916YOPE   GL113821   4.385  19.459   5.470  0.2224  0.2470  0.3469
  916YOPE   GL213822   4.465  19.176   5.485 -0.0610  0.1857 -0.0521
  916YOPE   C1A13823   4.507  19.891   5.694 -0.2083  0.0906  0.0786
  916YOPE   D2A13824   4.668  20.342   5.890 -0.2260 -0.2517 -0.0562
  916YOPE   C3A13825   4.422  20.669   6.019 -0.2729  0.0220 -0.1590
  916YOPE   C4A13826   4.172  20.985   6.030  0.3533  0.0701  0.1294
  916YOPE   C1B13827   4.320  19.237   5.882 -0.2473  0.0128  0.0705
  916YOPE   C2B13828   4.423  19.124   6.270  0.4470  0.0145 -0.2039
  916YOPE   D3B13829   4.430  19.139   6.753  0.0270  0.0171  0.2252
  916YOPE   C4B13830   4.505  19.155   7.146  0.0237 -0.2368 -0.0125
  917YOPE   NH313831   4.113  10.351   5.266  0.2432 -0.0977  0.0208
  917YOPE   PO413832   4.014  10.871   5.479  0.0283 -0.0749  0.0161
  917YOPE   GL113833   4.160  11.248   5.660  0.0555  0.0647 -0.0757
  917YOPE   GL213834   4.353  11.480   5.550 -0.1862 -0.1394  0.1190
  917YOPE   C1A13835   3.984  11.471   5.996  0.1052  0.0411 -0.2514
  917YOPE   D2A13836   3.971  11.553   6.394  0.2262 -0.0147 -0.1320
  917YOPE   C3A13837   4.023  11.965   6.662 -0.0922  0.1073 -0.2792
  917YOPE   C4A13838   3.758  12.154   6.903  0.0932  0.0209 -0.0120
  917YOPE   C1B13839   4.458  11.578   5.982 -0.0654 -0.1549  0.0119
  917YOPE   C2B13840   4.499  11.399   6.391 -0.0777  0.0838  0.1518
  917YOPE   D3B13841   4.464  11.382   6.797  0.1659  0.1057 -0.2488
  917YOPE   C4B13842   4.429  11.016   7.122  0.0227 -0.1899  0.1300
  918YOPE   NH313843   5.657   0.677   5.080  0.2165  0.2424  0.0362
  918YOPE   PO413844   5.903   0.929   5.285  0.0384  0.1411 -0.2826
  918YOPE   GL113845   5.998   0.658   5.467 -0.0756  0.2529  0.0190
  918YOPE   GL213846   6.021   0.370   5.427 -0.0797  0.0716  0.0583
  918YOPE   C1A13847   5.720   0.489   5.844  0.1455 -0.0894  0.0757
  918YOPE   D2A13848   5.670   0.295   6.235 -0.0029 -0.0195  0.0426
  918YOPE   C3A13849   5.473   0.101   6.653 -0.0136  0.1220 -0.1114
  918YOPE   C4A13850   5.672  -0.116   6.967 -0.2203 -0.1637  0.0993
  918YOPE   C1B13851   5.911   0.017   5.509 -0.6853  0.0228 -0.0976
  918YOPE   C2B13852   5.822  -0.305   5.919 -0.0622 -0.0039 -0.0313
  918YOPE   D3B13853   5.629  -0.429   6.260  0.2627  0.0767  0.0969
  918YOPE   C4B13854   5.351  -0.364   6.474  0.3079  0.0230  0.1110
  919YOPE   NH313855  11.703  18.119   5.855 -0.4619 -0.0917 -0.1070
  919YOPE   PO413856  12.032  18.224   6.134  0.0418  0.0510 -0.0663
  919YOPE   GL113857  12.049  18.078   6.521  0.0355  0.3059 -0.4633
  919YOPE   GL213858  12.084  17.741   6.532  0.4941 -0.1678  0.0858
  919YOPE   C1A13859  11.843  17.970   6.902  0.0957 -0.1689  0.3600
  919YOPE   D2A13860  11.612  17.758   7.283 -0.0221  0.1397 -0.4021
  919YOPE   C3A13861  11.640  17.792   7.677  0.0387 -0.0186 -0.0332
  919YOPE   C4A13862  11.556  17.731   8.024  0.2270 -0.1552 -0.0903
  919YOPE   C1B13863  12.069  17.551   6.902  0.0234 -0.0192 -0.0265
  919YOPE   C2B13864  12.032  17.381   7.334 -0.1544  0.1238  0.0575
  919YOPE   D3B13865  11.632  17.231   7.623 -0.0793 -0.1456 -0.1894
  919YOPE   C4B13866  11.242  17.404   7.734  0.1074 -0.1399  0.0474
  920YOPE   NH313867   6.747   9.424   5.032 -0.0210  0.1656 -0.2934
  920YOPE   PO413868   6.503   9.052   5.086 -0.0175  0.0360 -0.3931
  920YOPE   GL113869   6.547   9.182   5.499  0.0956 -0.4098  0.0268
  920YOPE   GL213870   6.411   9.491   5.621 -0.2451  0.2065  0.4019
  920YOPE   C1A13871   6.592   8.907   5.777 -0.0133 -0.2340 -0.5371
  920YOPE   D2A13872   6.636   8.806   6.197  0.1609  0.0444 -0.0892
  920YOPE   C3A13873   6.629   8.395   6.463 -0.0125  0.2692 -0.0072
  920YOPE   C4A13874   6.284   8.079   6.659  0.2121  0.2147 -0.1679
  920YOPE   C1B13875   6.562   9.630   5.917  0.0904  0.4485 -0.1071
  920YOPE   C2B13876   6.878   9.709   6.275 -0.2205 -0.0239  0.0113
  920YOPE   D3B13877   7.220   9.851   6.456 -0.1464 -0.0546 -0.0166
  920YOPE   C4B13878   7.297  10.122   6.731 -0.1019  0.0640 -0.0015
  921YOPE   NH313879  13.987  17.777   5.908  0.0948 -0.1588 -0.0312
  921YOPE   PO413880  13.493  17.972   5.825  0.0528 -0.3355  0.0457
  921YOPE   GL113881  13.478  18.109   6.281  0.1012  0.0602 -0.0579
  921YOPE   GL213882  13.284  18.389   6.320  0.0943  0.4259 -0.0928
  921YOPE   C1A13883  13.322  17.965   6.698 -0.1687  0.1118  0.3978
  921YOPE   D2A13884  13.263  17.979   7.073  0.1026  0.0780  0.0304
  921YOPE   C3A13885  13.154  17.662   7.363 -0.2001 -0.2071  0.1910
  921YOPE   C4A13886  13.096  17.211   7.312 -0.0026 -0.2092 -0.1266
  921YOPE   C1B13887  13.022  18.407   6.730  0.0168  0.0581 -0.0840
  921YOPE   C2B13888  12.873  18.333   7.130 -0.0921 -0.2329 -0.2098
  921YOPE   D3B13889  12.864  18.169   7.557 -0.3497  0.1453 -0.1356
  921YOPE   C4B13890  12.977  17.954   7.924 -0.0624 -0.0077  0.0996
  922YOPE   NH313891  12.661  10.168   5.300 -0.1396 -0.1629  0.0655
  922YOPE   PO413892  13.126  10.082   5.171  0.1209  0.0469  0.2540
  922YOPE   GL113893  13.147   9.844   5.519  0.1195  0.1656  0.1257
  922YOPE   GL213894  13.111   9.587   5.613 -0.0408 -0.1274 -0.2643
  922YOPE   C1A13895  13.410   9.851   5.924  0.3830  0.3811 -0.2144
  922YOPE   D2A13896  13.601  10.093   6.242 -0.0234  0.1366 -0.1196
  922YOPE   C3A13897  13.995  10.287   6.329 -0.0282 -0.1979  0.0073
  922YOPE   C4A13898  14.447  10.211   6.550 -0.2082  0.1692  0.1056
  922YOPE   C1B13899  12.958   9.710   5.972 -0.0902 -0.2829 -0.1210
  922YOPE   C2B13900  12.990   9.705   6.369  0.0664  0.1653  0.0502
  922YOPE   D3B13901  12.912   9.774   6.778 -0.0105 -0.0199 -0.1084
  922YOPE   C4B13902  13.185  10.092   7.085  0.0078  0.2508 -0.0478
  923YOPE   NH313903  18.448   6.706   5.138  0.3072  0.1368  0.0056
  923YOPE   PO413904  18.519   6.910   5.533  0.2107  0.0264  0.1615
  923YOPE   GL113905  18.450   6.803   5.939 -0.1690  0.0523 -0.0324
  923YOPE   GL213906  18.709   6.955   6.100 -0.4313 -0.0412 -0.1826
  923YOPE   C1A13907  18.309   6.688   6.269  0.0838 -0.0830 -0.2315
  923YOPE   D2A13908  18.564   6.706   6.659 -0.0735 -0.0735  0.0994
  923YOPE   C3A13909  18.466   6.780   7.016 -0.1908  0.0010 -0.1448
  923YOPE   C4A13910  18.448   7.265   7.128  0.1704 -0.0866  0.0696
  923YOPE   C1B13911  19.103   6.994   6.277 -0.0399 -0.0563 -0.0813
  923YOPE   C2B13912  19.330   6.863   6.761 -0.0395 -0.0556 -0.1205
  923YOPE   D3B13913  19.504   6.681   7.058 -0.1356 -0.1155 -0.1417
  923YOPE   C4B13914  19.800   6.429   7.340 -0.1479 -0.0474  0.0608
  924YOPE   NH313915   2.727  16.558   4.864  0.0109  0.2393  0.1955
  924YOPE   PO413916   2.481  16.254   4.879  0.0933 -0.3212  0.0097
  924YOPE   GL113917   2.222  16.378   5.228 -0.1385 -0.2467  0.2697
  924YOPE   GL213918   1.919  16.338   5.276  0.0084  0.1324 -0.6712
  924YOPE   C1A13919   2.338  16.583   5.554  0.0425 -0.0483 -0.1766
  924YOPE   D2A13920   2.054  16.908   5.802 -0.0412  0.0208  0.0005
  924YOPE   C3A13921   2.279  17.211   5.984  0.0330 -0.1542 -0.0586
  924YOPE   C4A13922   2.714  17.308   6.132 -0.1138 -0.2423 -0.1544
  924YOPE   C1B13923   1.794  16.494   5.677 -0.1129  0.1521 -0.3923
  924YOPE   C2B13924   1.671  16.611   6.117 -0.0620 -0.2001  0.1591
  924YOPE   D3B13925   1.655  16.547   6.577  0.0834  0.0404 -0.2992
  924YOPE   C4B13926   1.737  16.783   6.989  0.1091 -0.0785  0.1904
  925YOPE   NH313927  19.080   9.554   5.589  0.2743 -0.0131 -0.4640
  925YOPE   PO413928  18.668   9.572   5.695  0.1398 -0.2378  0.4146
  925YOPE   GL113929  18.477   9.604   6.065  0.0176  0.0404  0.0032
  925YOPE   GL213930  18.366   9.298   6.034 -0.0488  0.0566 -0.3384
  925YOPE   C1A13931  18.209   9.589   6.483 -0.1847  0.0214  0.1218
  925YOPE   D2A13932  18.266   9.663   6.960 -0.0314  0.0304  0.3276
  925YOPE   C3A13933  18.378  10.078   7.058  0.0174  0.0106 -0.1507
  925YOPE   C4A13934  18.350  10.038   7.553  0.2029  0.1245 -0.1734
  925YOPE   C1B13935  18.406   9.162   6.488 -0.1148 -0.3268 -0.0208
  925YOPE   C2B13936  18.457   9.093   6.910  0.1361 -0.1864 -0.2044
  925YOPE   D3B13937  18.160   8.899   7.260 -0.4217  0.2312 -0.2698
  925YOPE   C4B13938  17.913   9.034   7.598 -0.0588  0.1663 -0.4480
  926YOPE   NH313939   5.272   8.236   5.057  0.0035 -0.0443  0.1357
  926YOPE   PO413940   4.945   7.884   5.070 -0.0445 -0.0042  0.1613
  926YOPE   GL113941   5.109   7.974   5.463 -0.1353 -0.1612  0.0814
  926YOPE   GL213942   5.297   8.118   5.566  0.0151  0.0688 -0.1098
  926YOPE   C1A13943   5.069   7.875   5.938  0.0217 -0.0597 -0.0402
  926YOPE   D2A13944   4.778   7.593   6.104  0.0627 -0.0714 -0.0065
  926YOPE   C3A13945   4.611   7.223   6.280 -0.1994 -0.0624  0.1726
  926YOPE   C4A13946   4.373   6.834   6.209  0.3065  0.1345 -0.2269
  926YOPE   C1B13947   5.550   7.857   5.774 -0.2897  0.0620  0.1099
  926YOPE   C2B13948   5.590   8.004   6.145 -0.0319 -0.0961 -0.2090
  926YOPE   D3B13949   5.428   7.909   6.504 -0.2587  0.2272 -0.1315
  926YOPE   C4B13950   5.373   7.888   7.009  0.3026 -0.2042 -0.0531
  927YOPE   NH313951  10.556   1.878   5.630  0.1402  0.0558  0.0747
  927YOPE   PO413952  10.986   1.780   5.648  0.0511  0.1686 -0.2588
  927YOPE   GL113953  10.910   1.897   6.017  0.2143  0.1549  0.1188
  927YOPE   GL213954  10.641   1.639   6.103 -0.0260 -0.0813  0.3174
  927YOPE   C1A13955  10.626   2.177   6.193  0.3690  0.0739 -0.0579
  927YOPE   D2A13956  10.619   1.982   6.674  0.1429 -0.1093  0.2134
  927YOPE   C3A13957  10.760   2.294   7.059  0.2173 -0.2378 -0.1286
  927YOPE   C4A13958  11.171   2.541   7.184  0.0665 -0.2689  0.1035
  927YOPE   C1B13959  10.492   1.301   6.407 -0.2767  0.0275  0.6367
  927YOPE   C2B13960  10.310   1.067   6.652 -0.0062  0.0540  0.0967
  927YOPE   D3B13961  10.274   0.832   6.928 -0.0102  0.0600 -0.1110
  927YOPE   C4B13962  10.360   0.705   7.310  0.1516 -0.1461  0.2769
  928YOPE   NH313963  15.480  15.872   5.838 -0.3027  0.2012  0.2076
  928YOPE   PO413964  15.896  16.012   5.866 -0.0804  0.0768  0.2690
  928YOPE   GL113965  16.146  16.033   6.205  0.4406  0.0096 -0.1223
  928YOPE   GL213966  16.083  16.317   6.310 -0.0707  0.1256  0.2284
  928YOPE   C1A13967  16.586  16.186   6.453 -0.1429  0.2428 -0.1571
  928YOPE   D2A13968  16.882  16.448   6.473 -0.0982 -0.3014 -0.0435
  928YOPE   C3A13969  17.084  16.225   6.814  0.1990 -0.0921  0.1997
  928YOPE   C4A13970  17.074  15.989   7.139  0.2796  0.1307  0.1545
  928YOPE   C1B13971  15.876  16.225   6.719  0.1180  0.1548 -0.0198
  928YOPE   C2B13972  16.276  16.342   6.976 -0.0879 -0.2667 -0.3181
  928YOPE   D3B13973  16.593  16.330   7.423  0.0346  0.2414 -0.2428
  928YOPE   C4B13974  16.575  16.763   7.482 -0.1472 -0.0005  0.0905
  929YOPE   NH313975  16.458  16.933   5.718 -0.0479 -0.1482 -0.5789
  929YOPE   PO413976  16.596  17.414   5.667  0.2387  0.2029 -0.1615
  929YOPE   GL113977  16.692  17.296   6.025 -0.4560  0.0199 -0.1929
  929YOPE   GL213978  17.072  17.355   6.191 -0.1369  0.1029 -0.3785
  929YOPE   C1A13979  16.688  17.369   6.458  0.0012  0.0036  0.0926
  929YOPE   D2A13980  16.916  17.553   6.827 -0.1566  0.3904  0.0580
  929YOPE   C3A13981  16.640  17.646   7.130  0.0880  0.0114 -0.0190
  929YOPE   C4A13982  16.600  17.592   7.531  0.1854  0.0039 -0.3993
  929YOPE   C1B13983  17.298  17.403   6.606  0.0868 -0.3750 -0.0806
  929YOPE   C2B13984  17.614  17.551   6.875  0.1152  0.0401 -0.0189
  929YOPE   D3B13985  17.731  17.467   7.281 -0.2535  0.0405 -0.3674
  929YOPE   C4B13986  17.888  17.314   7.482  0.0993  0.2363  0.0904
  930YOPE   NH313987  16.885  14.179   5.158 -0.1381 -0.0520 -0.0800
  930YOPE   PO413988  16.951  14.407   5.523 -0.2681  0.0175  0.1136
  930YOPE   GL113989  17.007  14.344   5.874 -0.0735 -0.2273 -0.2799
  930YOPE   GL213990  17.361  14.445   5.939  0.0201 -0.1785 -0.1882
  930YOPE   C1A13991  16.782  14.385   6.297 -0.5921 -0.1084  0.2730
  930YOPE   D2A13992  16.472  14.581   6.578  0.0902  0.1790 -0.0451
  930YOPE   C3A13993  16.531  14.880   6.774 -0.0559 -0.1768 -0.0035
  930YOPE   C4A13994  16.587  14.916   7.244 -0.0606  0.0831  0.0056
  930YOPE   C1B13995  17.277  14.320   6.286  0.0252 -0.3196  0.0100
  930YOPE   C2B13996  17.446  14.047   6.610 -0.0303  0.2093 -0.1746
  930YOPE   D3B13997  17.407  14.103   7.057  0.2391 -0.3621 -0.0646
  930YOPE   C4B13998  17.487  14.051   7.470  0.1569 -0.0761 -0.0593
  931YOPE   NH313999  14.708  15.732   5.815 -0.3250  0.0825 -0.1708
  931YOPE   PO414000  14.381  15.429   5.800 -0.0182 -0.2174 -0.1429
  931YOPE   GL114001  14.273  15.495   6.132  0.0185 -0.1508  0.2507
  931YOPE   GL214002  14.573  15.290   6.219  0.0094  0.1253 -0.1911
  931YOPE   C1A14003  13.941  15.562   6.488 -0.2476  0.1465  0.1231
  931YOPE   D2A14004  13.861  15.639   6.925  0.0531  0.1147 -0.0896
  931YOPE   C3A14005  14.235  15.867   7.108  0.0128 -0.1405  0.3580
  931YOPE   C4A14006  14.514  16.013   6.851  0.0298 -0.0619 -0.0627
  931YOPE   C1B14007  14.335  15.249   6.638  0.0736 -0.3750 -0.1680
  931YOPE   C2B14008  13.934  15.195   6.811 -0.0270 -0.1957 -0.5204
  931YOPE   D3B14009  13.738  15.251   7.216  0.1695  0.1651 -0.2645
  931YOPE   C4B14010  13.499  15.134   7.523  0.1044  0.1263 -0.2073
  932YOPE   NH314011   5.580  10.146   5.250  0.0557 -0.0404  0.1704
  932YOPE   PO414012   5.918  10.424   5.294  0.0084  0.0058  0.1842
  932YOPE   GL114013   6.028  10.261   5.724  0.2310  0.1118  0.1427
  932YOPE   GL214014   6.312  10.522   5.829 -0.1939 -0.0102 -0.0055
  932YOPE   C1A14015   6.154   9.962   6.038  0.0804 -0.0766  0.1642
  932YOPE   D2A14016   6.375   9.780   6.434  0.0777 -0.1001  0.1851
  932YOPE   C3A14017   6.495   9.312   6.384  0.2522  0.2490  0.1213
  932YOPE   C4A14018   6.560   8.926   6.659 -0.1482  0.0029  0.0472
  932YOPE   C1B14019   6.211  10.449   6.253  0.1526  0.0243  0.2841
  932YOPE   C2B14020   6.250  10.390   6.611  0.1573  0.1025 -0.0344
  932YOPE   D3B14021   6.271  10.139   6.896 -0.1036 -0.1118 -0.1424
  932YOPE   C4B14022   6.060   9.976   7.123  0.0963  0.4843 -0.4032
  933YOPE   NH314023  16.777  19.258   5.797 -0.0211 -0.1551 -0.2063
  933YOPE   PO414024  16.404  19.013   5.774 -0.3777 -0.3621  0.2532
  933YOPE   GL114025  16.356  18.759   6.126 -0.1442  0.0390  0.0271
  933YOPE   GL214026  16.623  18.629   6.300  0.2214 -0.0968  0.2283
  933YOPE   C1A14027  16.243  18.899   6.584 -0.0582  0.2272 -0.1093
  933YOPE   D2A14028  16.075  18.895   6.920  0.1707  0.1893  0.2889
  933YOPE   C3A14029  16.030  19.245   7.045  0.2154  0.0366  0.1419
  933YOPE   C4A14030  15.869  19.457   7.344 -0.2991  0.0026 -0.2097
  933YOPE   C1B14031  16.668  18.666   6.797  0.0335  0.0102 -0.0719
  933YOPE   C2B14032  16.515  18.819   7.115 -0.2994  0.1251 -0.0911
  933YOPE   D3B14033  16.568  18.947   7.448 -0.0470 -0.2312 -0.1059
  933YOPE   C4B14034  16.648  19.259   7.612 -0.2744  0.0334  0.0721
  934YOPE   NH314035  11.305   7.486   5.198 -0.0472  0.1331  0.2737
  934YOPE   PO414036  11.420   7.955   5.238  0.2684  0.0920  0.2135
  934YOPE   GL114037  11.451   7.844   5.600  0.0400  0.0534 -0.3636
  934YOPE   GL214038  11.693   7.873   5.755 -0.2349 -0.1267  0.0495
  934YOPE   C1A14039  11.256   7.690   5.977  0.2017  0.1150  0.2065
  934YOPE   D2A14040  11.157   7.614   6.332  0.0751  0.0383  0.2156
  934YOPE   C3A14041  11.210   7.873   6.594  0.1506  0.1368 -0.1105
  934YOPE   C4A14042  11.078   8.101   7.025 -0.2005 -0.1657 -0.0749
  934YOPE   C1B14043  12.016   7.549   5.997 -0.1125 -0.2191  0.2575
  934YOPE   C2B14044  12.107   7.458   6.465  0.1299  0.1758  0.2645
  934YOPE   D3B14045  12.450   7.433   6.763 -0.0940  0.0729 -0.1148
  934YOPE   C4B14046  12.701   7.613   7.156  0.0470 -0.0467  0.0230
  935YOPE   NH314047  14.640   0.711   5.392  0.2615 -0.3465  0.0707
  935YOPE   PO414048  14.362   0.838   5.707  0.0707  0.1647 -0.1757
  935YOPE   GL114049  14.538   0.822   6.043  0.0004  0.2587 -0.1790
  935YOPE   GL214050  14.607   1.134   6.218  0.0597  0.1208  0.0658
  935YOPE   C1A14051  14.441   0.675   6.521  0.0248  0.2011 -0.0342
  935YOPE   D2A14052  14.630   0.982   6.703 -0.0786  0.0495  0.0442
  935YOPE   C3A14053  14.622   1.416   6.697 -0.0216 -0.0147  0.1475
  935YOPE   C4A14054  14.698   1.786   6.923  0.5248 -0.1628  0.1166
  935YOPE   C1B14055  14.215   1.135   6.523 -0.0653  0.0906 -0.0998
  935YOPE   C2B14056  14.187   1.171   6.943  0.1624 -0.1940 -0.0165
  935YOPE   D3B14057  14.517   1.047   7.140  0.2793  0.1610  0.4675
  935YOPE   C4B14058  14.863   0.896   7.214 -0.0363  0.0075  0.3143
  936YOPE   NH314059  12.344   6.983   4.667  0.0668  0.1036 -0.0130
  936YOPE   PO414060  12.636   6.778   4.856  0.1768 -0.1737 -0.1700
  936YOPE   GL114061  12.551   6.493   5.262  0.0491 -0.0122  0.0584
  936YOPE   GL214062  12.319   6.573   5.628  0.0878  0.1936 -0.1317
  936YOPE   C1A14063  12.866   6.529   5.656 -0.1430 -0.3225  0.4978
  936YOPE   D2A14064  13.027   6.631   6.065  0.0028 -0.1195  0.0313
  936YOPE   C3A14065  12.823   6.982   6.310  0.1534  0.0980  0.0306
  936YOPE   C4A14066  12.467   7.231   6.168  0.2249 -0.1626 -0.1213
  936YOPE   C1B14067  12.090   6.410   5.944 -0.3625 -0.1525  0.2718
  936YOPE   C2B14068  11.946   6.454   6.318 -0.2144  0.2189  0.1687
  936YOPE   D3B14069  11.742   6.597   6.656  0.0184 -0.1972 -0.0327
  936YOPE   C4B14070  11.594   6.743   7.045 -0.0175 -0.0086  0.1401
  937YOPE   NH314071   7.945  14.714   4.998  0.0391  0.0709 -0.2661
  937YOPE   PO414072   7.787  15.166   4.964 -0.2524  0.0166  0.0002
  937YOPE   GL114073   7.837  15.006   5.368 -0.2827 -0.3357  0.2587
  937YOPE   GL214074   7.603  15.209   5.508  0.0040  0.1766 -0.0113
  937YOPE   C1A14075   7.984  14.883   5.729  0.1814 -0.1112 -0.0103
  937YOPE   D2A14076   8.102  14.799   6.103 -0.0777 -0.4374  0.0648
  937YOPE   C3A14077   7.987  14.634   6.392 -0.3244 -0.1620 -0.2971
  937YOPE   C4A14078   7.588  14.828   6.603 -0.0321  0.0925 -0.1783
  937YOPE   C1B14079   7.408  15.223   5.942  0.1392 -0.0659 -0.5301
  937YOPE   C2B14080   7.496  15.432   6.308 -0.4277  0.0907 -0.1574
  937YOPE   D3B14081   7.698  15.549   6.712 -0.0400  0.3323 -0.1726
  937YOPE   C4B14082   8.097  15.776   6.801  0.2970 -0.1968  0.0264
  938YOPE   NH314083   3.474   8.181   5.236  0.1111  0.1460 -0.3406
  938YOPE   PO414084   3.542   8.639   5.348 -0.0623 -0.0183 -0.0507
  938YOPE   GL114085   3.450   8.428   5.684 -0.2755  0.2637 -0.1369
  938YOPE   GL214086   3.430   8.059   5.700 -0.1717 -0.1586 -0.3129
  938YOPE   C1A14087   3.548   8.277   6.184 -0.0327  0.1825  0.0298
  938YOPE   D2A14088   3.563   8.093   6.539 -0.1300 -0.1296 -0.0861
  938YOPE   C3A14089   3.929   7.832   6.597  0.0009  0.1091  0.0560
  938YOPE   C4A14090   4.043   7.767   6.911 -0.2570  0.1758 -0.0414
  938YOPE   C1B14091   3.676   7.820   6.095  0.0192 -0.0555  0.2428
  938YOPE   C2B14092   3.604   7.520   6.326 -0.3373  0.1177 -0.1494
  938YOPE   D3B14093   3.679   7.398   6.695  0.1460 -0.1909  0.1969
  938YOPE   C4B14094   3.485   7.259   7.094  0.2514 -0.0236 -0.0901
  939YOPE   NH314095   7.894   5.544   5.023  0.1574  0.1244 -0.0696
  939YOPE   PO414096   8.077   5.223   5.108 -0.1211  0.2499 -0.1033
  939YOPE   GL114097   8.150   5.282   5.502  0.0865 -0.0991 -0.1520
  939YOPE   GL214098   8.227   5.656   5.408  0.0869 -0.1807  0.1085
  939YOPE   C1A14099   8.024   5.358   5.899  0.0775  0.0676  0.2812
  939YOPE   D2A14100   8.051   5.516   6.248 -0.0045  0.3273 -0.0780
  939YOPE   C3A14101   8.125   5.848   6.441 -0.1746  0.0451  0.0577
  939YOPE   C4A14102   7.845   6.165   6.621 -0.1031 -0.4443  0.0813
  939YOPE   C1B14103   8.628   5.645   5.686  0.4248 -0.0392 -0.0611
  939YOPE   C2B14104   8.499   5.266   5.961  0.2184  0.0608  0.2023
  939YOPE   D3B14105   8.137   5.010   6.192  0.3090 -0.0927  0.3427
  939YOPE   C4B14106   7.711   4.931   6.105  0.2483  0.0572 -0.1881
  940YOPE   NH314107   9.851   3.874   4.920  0.2033 -0.1007  0.4037
  940YOPE   PO414108   9.543   3.698   5.183 -0.3391  0.0801 -0.2359
  940YOPE   GL114109   9.521   3.635   5.501 -0.1156 -0.3396 -0.1217
  940YOPE   GL214110   9.423   3.343   5.635 -0.0106  0.0110  0.0056
  940YOPE   C1A14111   9.588   3.821   5.929  0.0497 -0.2856 -0.0859
  940YOPE   D2A14112   9.597   3.756   6.351 -0.1004 -0.0821  0.0057
  940YOPE   C3A14113   9.807   3.371   6.443  0.2163 -0.0273 -0.1701
  940YOPE   C4A14114   9.862   3.141   6.749 -0.0505 -0.4443  0.1373
  940YOPE   C1B14115   9.142   3.517   5.936 -0.1311 -0.0915  0.1813
  940YOPE   C2B14116   9.075   3.604   6.439 -0.1129 -0.3863 -0.0369
  940YOPE   D3B14117   8.858   3.430   6.779  0.2823  0.0954 -0.2360
  940YOPE   C4B14118   8.746   3.274   7.172  0.4519  0.0364 -0.2910
  941YOPE   NH314119   2.000   0.525   5.534 -0.0031 -0.1088  0.1408
  941YOPE   PO414120   1.613   0.879   5.646 -0.2485 -0.0416  0.0210
  941YOPE   GL114121   1.409   1.073   5.941  0.0475  0.2959  0.2135
  941YOPE   GL214122   1.060   1.211   5.905 -0.1529  0.0035 -0.4838
  941YOPE   C1A14123   1.285   1.012   6.314  0.2490 -0.1174 -0.1110
  941YOPE   D2A14124   1.228   1.024   6.761  0.2370 -0.0165 -0.2003
  941YOPE   C3A14125   1.286   1.324   7.034  0.1346 -0.2870  0.0855
  941YOPE   C4A14126   0.923   1.509   7.117  0.2385  0.0725 -0.0263
  941YOPE   C1B14127   0.760   1.218   6.265 -0.2022 -0.0777 -0.0144
  941YOPE   C2B14128   0.780   1.185   6.622 -0.1484 -0.1547  0.1506
  941YOPE   D3B14129   0.633   1.067   7.030 -0.0828 -0.0302 -0.1093
  941YOPE   C4B14130   0.318   1.090   7.247 -0.1786  0.5155 -0.0836
  942YOPE   NH314131   3.692  11.526   4.872 -0.1178 -0.1229 -0.1473
  942YOPE   PO414132   3.352  11.824   4.947  0.0817 -0.2645 -0.1688
  942YOPE   GL114133   3.246  11.922   5.414  0.2051 -0.3378  0.2203
  942YOPE   GL214134   2.944  12.060   5.594  0.2276 -0.2498  0.2211
  942YOPE   C1A14135   3.508  12.177   5.646 -0.1081  0.2128 -0.1460
  942YOPE   D2A14136   3.264  12.464   5.851 -0.1103  0.0977 -0.2142
  942YOPE   C3A14137   3.297  12.793   6.146 -0.1282  0.0862 -0.1397
  942YOPE   C4A14138   3.607  13.056   6.173 -0.1519  0.2802  0.2235
  942YOPE   C1B14139   2.988  12.111   6.044  0.0697 -0.1463  0.2955
  942YOPE   C2B14140   3.087  12.318   6.388 -0.1570  0.0003  0.1442
  942YOPE   D3B14141   3.297  12.269   6.776  0.0834 -0.1420  0.2902
  942YOPE   C4B14142   3.136  11.977   7.118  0.3266  0.1158 -0.0771
  943YOPE   NH314143   8.774   7.440   5.035 -0.1206  0.2083 -0.0511
  943YOPE   PO414144   8.450   7.903   4.881 -0.2941 -0.2420 -0.0910
  943YOPE   GL114145   8.320   8.039   5.289  0.1680  0.0271 -0.3553
  943YOPE   GL214146   8.407   7.746   5.545  0.0368  0.0809  0.1894
  943YOPE   C1A14147   8.209   8.242   5.627 -0.1184  0.1833  0.0609
  943YOPE   D2A14148   8.362   8.261   6.002  0.0539  0.1484 -0.0503
  943YOPE   C3A14149   8.450   7.861   6.248 -0.1135  0.0269  0.1731
  943YOPE   C4A14150   8.766   7.647   6.371  0.0614  0.2073 -0.1370
  943YOPE   C1B14151   8.111   7.754   5.916  0.2254  0.0171 -0.1234
  943YOPE   C2B14152   8.056   7.583   6.360 -0.1256 -0.1234 -0.1941
  943YOPE   D3B14153   7.941   7.563   6.822 -0.2648 -0.2234 -0.2654
  943YOPE   C4B14154   7.974   7.875   7.310 -0.0973 -0.0421  0.2137
  944POPC   NC314155   4.224   9.541   5.198 -0.0603 -0.0684  0.2595
  944POPC   PO414156   4.349   9.170   5.153  0.0070 -0.0096  0.1148
  944POPC   GL114157   4.438   9.283   5.567 -0.1425  0.1334 -0.0570
  944POPC   GL214158   4.154   9.214   5.703 -0.0307  0.2413  0.3364
  944POPC   C1A14159   4.490   9.590   5.811 -0.0763 -0.2465 -0.2827
  944POPC   D2A14160   4.534   9.542   6.250 -0.2345 -0.0633  0.0588
  944POPC   C3A14161   4.662   9.669   6.715  0.3222 -0.2619  0.0303
  944POPC   C4A14162   4.601  10.006   6.961 -0.2758  0.1053 -0.0744
  944POPC   C1B14163   4.292   8.957   5.997  0.2741 -0.0323  0.0264
  944POPC   C2B14164   4.446   9.047   6.392  0.0466 -0.1194 -0.2073
  944POPC   C3B14165   4.327   9.318   6.685  0.0873 -0.1715  0.2469
  944POPC   C4B14166   4.333   9.195   7.088  0.1630  0.2003  0.0895
  945POPC   NC314167   2.899   1.635   5.380  0.1319  0.0066  0.1435
  945POPC   PO414168   2.417   1.521   5.381 -0.0201 -0.3319  0.5327
  945POPC   GL114169   2.140   1.353   5.702  0.1386  0.0661  0.1551
  945POPC   GL214170   1.897   1.269   5.862 -0.0360 -0.1208  0.0926
  945POPC   C1A14171   2.246   1.507   6.150  0.1117 -0.1395 -0.0276
  945POPC   D2A14172   2.335   1.897   6.377 -0.3394 -0.0773  0.2997
  945POPC   C3A14173   2.123   1.616   6.696 -0.1647  0.0481 -0.1517
  945POPC   C4A14174   2.051   1.160   6.874 -0.2198  0.0428 -0.2846
  945POPC   C1B14175   1.822   1.273   6.333 -0.1539  0.0485 -0.2312
  945POPC   C2B14176   1.613   1.419   6.683 -0.1818 -0.0132  0.1628
  945POPC   C3B14177   1.721   1.514   7.075  0.1865 -0.2473  0.3282
  945POPC   C4B14178   1.963   1.319   7.337  0.2051 -0.1662  0.0617
  946POPC   NC314179  10.128  15.606   5.004  0.1020  0.1781  0.0670
  946POPC   PO414180   9.761  15.736   5.266  0.0059  0.1654  0.2974
  946POPC   GL114181   9.727  15.694   5.755 -0.1620 -0.3058  0.0053
  946POPC   GL214182   9.745  15.972   5.985  0.0721 -0.1526 -0.0016
  946POPC   C1A14183   9.955  15.478   6.086 -0.1769  0.1432 -0.0702
  946POPC   D2A14184  10.224  15.401   6.315 -0.0669 -0.0207 -0.1792
  946POPC   C3A14185  10.505  15.658   6.348 -0.1443 -0.0689 -0.2583
  946POPC   C4A14186  10.950  15.661   6.548  0.1273  0.0250  0.3514
  946POPC   C1B14187   9.526  15.889   6.293 -0.0405 -0.1227  0.0536
  946POPC   C2B14188   9.529  15.643   6.468 -0.1670  0.0760 -0.1853
  946POPC   C3B14189   9.827  15.518   6.625  0.0773 -0.0480  0.0850
  946POPC   C4B14190  10.107  15.320   6.958  0.2104  0.0476  0.2150
  947POPC   NC314191   0.301  10.447   5.463  0.0277  0.4148 -0.2827
  947POPC   PO414192  -0.147  10.518   5.345  0.2431  0.0543  0.0150
  947POPC   GL114193  -0.369  10.633   5.576 -0.3181  0.1656  0.1729
  947POPC   GL214194  -0.329  10.911   5.702  0.2092  0.0164  0.1562
  947POPC   C1A14195  -0.236  10.564   6.042 -0.2758  0.1318  0.2663
  947POPC   D2A14196  -0.367  10.657   6.405  0.1298  0.0514  0.1236
  947POPC   C3A14197  -0.183  10.505   6.626 -0.0945 -0.0582  0.0957
  947POPC   C4A14198  -0.124  10.324   7.015  0.0290  0.0479 -0.0359
  947POPC   C1B14199   0.112  10.874   5.877 -0.0801  0.2165 -0.0187
  947POPC   C2B14200   0.212  10.472   6.124 -0.0091  0.1773  0.0728
  947POPC   C3B14201  -0.035  10.145   6.296 -0.0721 -0.1741  0.0848
  947POPC   C4B14202   0.002   9.951   6.708  0.1141  0.1944  0.1473
  948POPC   NC314203   7.444   3.399   4.696  0.0122 -0.1122 -0.0626
  948POPC   PO414204   7.454   3.474   5.049 -0.4733  0.1627 -0.1863
  948POPC   GL114205   7.174   3.452   5.484 -0.0638  0.0016 -0.5745
  948POPC   GL214206   7.155   3.674   5.654  0.4009 -0.3435 -0.1324
  948POPC   C1A14207   7.179   3.193   5.934 -0.0984  0.0105  0.1832
  948POPC   D2A14208   7.308   2.692   5.913  0.2274 -0.0627 -0.0588
  948POPC   C3A14209   7.773   2.533   6.152  0.3086  0.1932  0.0107
  948POPC   C4A14210   8.251   2.475   6.049 -0.1901  0.1166 -0.5023
  948POPC   C1B14211   7.161   3.772   6.001  0.0558 -0.0684 -0.2147
  948POPC   C2B14212   7.191   3.468   6.339 -0.1729 -0.0643  0.1748
  948POPC   C3B14213   7.159   3.080   6.537 -0.1309  0.0517  0.0287
  948POPC   C4B14214   7.024   2.706   6.319 -0.2093  0.2257 -0.1461
  949POPC   NC314215  11.311  10.678   5.182 -0.3314 -0.0231 -0.1518
  949POPC   PO414216  10.921  10.605   4.875 -0.2985 -0.1919 -0.3742
  949POPC   GL114217  10.848  10.667   5.335  0.3117 -0.1424 -0.1236
  949POPC   GL214218  10.688  11.002   5.524 -0.3845 -0.2740  0.3073
  949POPC   C1A14219  10.882  10.611   5.738 -0.2798 -0.0813 -0.6602
  949POPC   D2A14220  10.966  10.657   6.150  0.2682  0.0065  0.3822
  949POPC   C3A14221  10.948  10.620   6.579 -0.1194 -0.0716  0.0352
  949POPC   C4A14222  11.275  10.353   6.564 -0.0826  0.0737 -0.0516
  949POPC   C1B14223  10.774  11.074   5.945  0.0122 -0.0258  0.1396
  949POPC   C2B14224  10.854  11.157   6.384  0.0532 -0.1069 -0.1793
  949POPC   C3B14225  10.608  11.102   6.789 -0.0154  0.2389  0.1635
  949POPC   C4B14226  10.427  11.274   7.151 -0.0676 -0.3656  0.2913
  950POPC   NC314227   7.146  17.505   4.464  0.0222  0.0953  0.3251
  950POPC   PO414228   7.005  17.055   4.523  0.3057 -0.0106  0.0075
  950POPC   GL114229   7.073  17.265   4.942  0.0038 -0.0543  0.0399
  950POPC   GL214230   7.368  17.295   5.217 -0.0358 -0.1498 -0.0348
  950POPC   C1A14231   6.952  16.997   5.339  0.1294 -0.2429 -0.2071
  950POPC   D2A14232   6.854  16.684   5.695  0.0408 -0.0428 -0.1556
  950POPC   C3A14233   6.747  16.224   5.821  0.1296  0.0549 -0.0891
  950POPC   C4A14234   6.671  15.832   6.029 -0.2662  0.0609 -0.0787
  950POPC   C1B14235   7.318  17.049   5.697  0.0329 -0.1320 -0.0361
  950POPC   C2B14236   7.150  16.914   6.131  0.1942  0.2519 -0.1341
  950POPC   C3B14237   7.332  16.615   6.300  0.1295  0.0808  0.1420
  950POPC   C4B14238   7.446  16.507   6.685 -0.1514  0.0577  0.0743
  951POPC   NC314239  17.398   7.463   5.630  0.2903 -0.1996  0.3855
  951POPC   PO414240  17.047   7.625   5.322 -0.0216  0.0056  0.3351
  951POPC   GL114241  16.918   7.349   5.648 -0.3072 -0.2344 -0.0433
  951POPC   GL214242  16.649   7.061   5.549 -0.1313  0.2745  0.1349
  951POPC   C1A14243  16.653   7.424   5.969 -0.2860 -0.0016  0.1365
  951POPC   D2A14244  16.612   7.328   6.454  0.2921 -0.0916  0.2749
  951POPC   C3A14245  16.848   7.491   6.818  0.0412 -0.0466 -0.0930
  951POPC   C4A14246  17.117   7.887   6.673  0.3228  0.1594 -0.2710
  951POPC   C1B14247  16.769   6.925   5.937  0.1519 -0.4059 -0.1241
  951POPC   C2B14248  16.844   6.882   6.432  0.0522 -0.1482 -0.3164
  951POPC   C3B14249  16.790   6.697   6.814 -0.1542 -0.1559  0.0998
  951POPC   C4B14250  16.766   6.705   7.252  0.2638  0.0112  0.0483
  952POPC   NC314251   5.550   1.309   5.444 -0.4184  0.2287  0.2564
  952POPC   PO414252   5.275   1.061   5.239  0.3739 -0.0982  0.0843
  952POPC   GL114253   5.439   0.857   5.523  0.0807  0.0054 -0.0143
  952POPC   GL214254   5.260   0.543   5.625  0.3270  0.0700  0.0685
  952POPC   C1A14255   5.436   0.826   6.055 -0.0709  0.1631  0.0996
  952POPC   D2A14256   5.513   0.813   6.404  0.0713  0.2183  0.0004
  952POPC   C3A14257   5.303   0.648   6.725 -0.0103  0.0608  0.0813
  952POPC   C4A14258   5.092   0.772   7.017 -0.1904 -0.2419  0.2497
  952POPC   C1B14259   5.005   0.535   5.915  0.0730 -0.1094 -0.1746
  952POPC   C2B14260   4.953   0.718   6.272  0.0959  0.1780  0.0454
  952POPC   C3B14261   4.680   0.653   6.632 -0.3432  0.0988  0.2213
  952POPC   C4B14262   4.618   0.319   6.872  0.3811 -0.2105 -0.1300
  953POPC   NC314263  16.202   2.003   5.423 -0.4461 -0.2585  0.3236
  953POPC   PO414264  16.614   2.383   5.473  0.0020  0.0006  0.0106
  953POPC   GL114265  16.343   2.322   5.852  0.3549  0.4085  0.0086
  953POPC   GL214266  16.447   2.600   5.923  0.1404 -0.2400 -0.2698
  953POPC   C1A14267  16.413   2.378   6.395  0.0937  0.2582  0.0673
  953POPC   D2A14268  16.414   2.246   6.826 -0.0101  0.0825  0.0549
  953POPC   C3A14269  16.165   2.187   7.071 -0.0153  0.2349  0.0043
  953POPC   C4A14270  16.224   1.894   7.367 -0.0349  0.1828 -0.1505
  953POPC   C1B14271  16.672   2.823   6.236  0.0004  0.0248 -0.1189
  953POPC   C2B14272  16.661   2.983   6.605 -0.0158  0.0010  0.1680
  953POPC   C3B14273  16.877   3.020   7.000 -0.2088 -0.0278 -0.3882
  953POPC   C4B14274  17.118   3.166   7.409  0.1745 -0.2425  0.2287
  954POPC   NC314275   1.639  10.060   5.137 -0.1143  0.1074 -0.1795
  954POPC   PO414276   1.774   9.705   5.330  0.1350  0.3896 -0.1647
  954POPC   GL114277   1.463   9.551   5.624  0.0293 -0.1987  0.1005
  954POPC   GL214278   1.284   9.748   5.472  0.1909 -0.2002 -0.0611
  954POPC   C1A14279   1.301   9.352   5.960  0.0376  0.0634  0.0817
  954POPC   D2A14280   1.190   9.180   6.315 -0.0436  0.0009  0.3541
  954POPC   C3A14281   0.975   9.460   6.551  0.0246  0.0410  0.3351
  954POPC   C4A14282   0.945   9.561   6.959 -0.1258  0.1448  0.0491
  954POPC   C1B14283   1.175   9.837   5.864 -0.0741  0.1065  0.1650
  954POPC   C2B14284   0.914  10.003   6.073 -0.0587  0.2207  0.0660
  954POPC   C3B14285   0.512  10.012   6.194 -0.1155 -0.0001 -0.0457
  954POPC   C4B14286   0.415  10.185   6.534  0.0039  0.1305  0.0756
  955POPC   NC314287   2.981   8.697   5.214 -0.0706  0.1638 -0.2454
  955POPC   PO414288   3.046   8.298   5.417 -0.1776 -0.2499 -0.0520
  955POPC   GL114289   2.938   8.095   5.828  0.0346 -0.1985 -0.0774
  955POPC   GL214290   2.669   7.853   5.813 -0.1813  0.0508  0.1744
  955POPC   C1A14291   2.836   8.117   6.194  0.2868 -0.0846  0.4866
  955POPC   D2A14292   2.704   8.058   6.472  0.0507  0.3502 -0.0630
  955POPC   C3A14293   2.570   8.271   6.749 -0.0099 -0.1178  0.0882
  955POPC   C4A14294   2.424   8.171   7.216 -0.1576 -0.3312 -0.1484
  955POPC   C1B14295   2.628   7.634   6.140  0.0514  0.0124 -0.0745
  955POPC   C2B14296   2.424   7.198   6.331  0.0543  0.1880 -0.0733
  955POPC   C3B14297   2.330   6.900   6.518 -0.2337  0.0957  0.2154
  955POPC   C4B14298   2.174   6.893   6.941 -0.1999  0.2516  0.1987
  956POPC   NC314299  11.518   2.047   5.431  0.3521  0.0016 -0.0981
  956POPC   PO414300  11.109   2.183   5.361 -0.1281 -0.0299  0.1106
  956POPC   GL114301  11.088   2.294   5.754 -0.0288 -0.2159  0.1761
  956POPC   GL214302  11.258   2.478   5.812  0.0531  0.1840 -0.1329
  956POPC   C1A14303  11.158   2.285   6.245  0.1485 -0.0121 -0.1401
  956POPC   D2A14304  10.798   2.448   6.565  0.0344  0.0494 -0.0364
  956POPC   C3A14305  10.810   2.742   6.855  0.0774  0.0737 -0.0182
  956POPC   C4A14306  11.007   3.044   7.219 -0.1748 -0.0223  0.1521
  956POPC   C1B14307  11.006   2.946   5.939  0.0882 -0.1236 -0.2515
  956POPC   C2B14308  10.957   3.287   6.331 -0.0799  0.1571 -0.0600
  956POPC   C3B14309  10.815   3.240   6.749 -0.3492  0.0569  0.2381
  956POPC   C4B14310  10.417   3.136   6.948  0.4692 -0.1139  0.0431
  957POPC   NC314311  17.413  12.680   5.243 -0.1668  0.0641  0.0143
  957POPC   PO414312  17.954  12.812   5.227  0.1484  0.0242 -0.2474
  957POPC   GL114313  17.817  12.754   5.611 -0.2035  0.2441 -0.3332
  957POPC   GL214314  17.545  12.468   5.639  0.2673 -0.3736  0.1459
  957POPC   C1A14315  17.738  12.941   6.042 -0.0195  0.2176  0.1141
  957POPC   D2A14316  17.804  13.052   6.387  0.0973 -0.1039  0.0153
  957POPC   C3A14317  18.117  12.973   6.714  0.3140  0.2298  0.1781
  957POPC   C4A14318  18.114  12.883   7.116 -0.2329  0.2189 -0.0836
  957POPC   C1B14319  17.691  12.447   6.078 -0.0471 -0.0896 -0.0234
  957POPC   C2B14320  17.805  12.538   6.522  0.0336  0.4264  0.2680
  957POPC   C3B14321  17.611  12.697   6.951 -0.0739 -0.3275  0.4495
  957POPC   C4B14322  17.759  12.708   7.423  0.1177  0.3694  0.0791
  958POPC   NC314323  15.468   6.827   5.029  0.0225 -0.0178 -0.1095
  958POPC   PO414324  15.382   6.790   5.408 -0.0880  0.1348 -0.2697
  958POPC   GL114325  15.217   6.877   5.847  0.0035 -0.1330  0.1700
  958POPC   GL214326  14.918   7.041   5.951  0.2694  0.2755  0.2408
  958POPC   C1A14327  15.276   6.864   6.327  0.2786 -0.2177 -0.2267
  958POPC   D2A14328  15.022   7.101   6.512  0.1306  0.1390  0.1840
  958POPC   C3A14329  14.849   7.051   6.895 -0.4020  0.1791  0.1808
  958POPC   C4A14330  14.614   7.005   7.352  0.1971  0.4479  0.1002
  958POPC   C1B14331  14.806   6.658   6.290  0.0664 -0.2148  0.1175
  958POPC   C2B14332  14.714   6.637   6.657  0.1396  0.0444 -0.2518
  958POPC   C3B14333  14.720   6.523   7.076 -0.0973  0.1225  0.3787
  958POPC   C4B14334  14.654   6.099   7.359  0.3593 -0.1124 -0.0467
  959POPC   NC314335  17.061   8.111   5.177 -0.1341  0.1741 -0.1139
  959POPC   PO414336  16.732   8.447   5.305  0.2252  0.1565  0.0174
  959POPC   GL114337  16.598   8.432   5.696  0.2523 -0.1058  0.0669
  959POPC   GL214338  16.850   8.572   5.951 -0.0780  0.1309  0.4474
  959POPC   C1A14339  16.336   8.344   5.918  0.1593  0.0139  0.0613
  959POPC   D2A14340  16.005   8.159   6.178 -0.0237 -0.1160 -0.1199
  959POPC   C3A14341  16.101   8.166   6.613 -0.2695 -0.0831 -0.2302
  959POPC   C4A14342  16.381   8.383   6.813  0.1817 -0.1847  0.3022
  959POPC   C1B14343  16.783   8.505   6.416  0.1659  0.2410  0.0370
  959POPC   C2B14344  16.813   8.292   6.796 -0.1319 -0.2681  0.1358
  959POPC   C3B14345  16.650   8.033   7.029  0.0367  0.0018  0.0557
  959POPC   C4B14346  16.468   7.974   7.502  0.1468  0.0956  0.0277
  960POPC   NC314347   7.171   2.516   5.145  0.0752  0.0614  0.1820
  960POPC   PO414348   6.825   2.762   5.257 -0.0356 -0.0401 -0.4286
  960POPC   GL114349   6.795   3.079   5.497 -0.1012  0.2485 -0.0239
  960POPC   GL214350   6.816   2.947   5.787  0.2067 -0.0567 -0.0782
  960POPC   C1A14351   6.758   3.449   5.838 -0.0047  0.1316  0.0906
  960POPC   D2A14352   6.687   3.690   6.182 -0.2017 -0.0415  0.0660
  960POPC   C3A14353   6.865   3.601   6.628  0.2169 -0.0442 -0.0150
  960POPC   C4A14354   7.093   3.937   6.896 -0.1276  0.1934 -0.0884
  960POPC   C1B14355   6.721   3.137   6.228 -0.1682 -0.1915 -0.0471
  960POPC   C2B14356   6.729   3.101   6.723 -0.0265  0.2014  0.0191
  960POPC   C3B14357   6.945   3.244   7.001  0.0534  0.1893  0.1204
  960POPC   C4B14358   7.149   3.204   7.359 -0.0661  0.0265 -0.0735
  961POPC   NC314359  14.735   3.044   5.398 -0.0433  0.0673  0.0116
  961POPC   PO414360  14.776   3.493   5.294  0.0968  0.0418 -0.2389
  961POPC   GL114361  14.606   3.727   5.601  0.1150 -0.3418 -0.5303
  961POPC   GL214362  14.346   3.817   5.678  0.2076  0.1894  0.1315
  961POPC   C1A14363  14.587   3.515   5.974 -0.0402 -0.2908  0.0102
  961POPC   D2A14364  14.466   3.380   6.398 -0.1423  0.0455 -0.1060
  961POPC   C3A14365  14.529   3.371   6.826  0.2281  0.1973 -0.2610
  961POPC   C4A14366  14.575   3.246   7.193 -0.0114  0.1199 -0.3101
  961POPC   C1B14367  14.252   4.218   5.925 -0.2964  0.4336  0.3317
  961POPC   C2B14368  14.297   4.331   6.418 -0.3899  0.1566  0.1830
  961POPC   C3B14369  14.173   4.395   6.873  0.1489  0.1021  0.2993
  961POPC   C4B14370  14.283   4.687   7.247 -0.4170  0.1381  0.0002
  962POPC   NC314371   0.578   0.441   4.980  0.2158  0.1006 -0.2201
  962POPC   PO414372   0.281   0.328   5.320 -0.3328 -0.1183  0.0168
  962POPC   GL114373   0.451   0.359   5.726  0.1019  0.1092 -0.0452
  962POPC   GL214374   0.279   0.146   5.890  0.0606  0.3644 -0.3912
  962POPC   C1A14375   0.708   0.375   6.197 -0.0962 -0.2777 -0.0866
  962POPC   D2A14376   1.069   0.476   6.333 -0.1471 -0.2108 -0.0511
  962POPC   C3A14377   1.363   0.205   6.507  0.0562  0.2329 -0.0369
  962POPC   C4A14378   1.723   0.113   6.673  0.0613 -0.2139  0.3684
  962POPC   C1B14379   0.398  -0.053   6.302 -0.3878 -0.0468 -0.0154
  962POPC   C2B14380   0.581   0.288   6.675  0.1052  0.0644 -0.3084
  962POPC   C3B14381   0.907   0.682   6.765 -0.0582 -0.0034  0.2166
  962POPC   C4B14382   1.247   0.527   6.887 -0.2386  0.0302  0.0192
  963POPC   NC314383  12.225   2.735   5.317  0.2580 -0.2742  0.2229
  963POPC   PO414384  12.605   2.682   5.335 -0.1602  0.0238 -0.1116
  963POPC   GL114385  12.564   2.541   5.731 -0.2552  0.0845  0.2427
  963POPC   GL214386  12.389   2.359   5.658  0.0429  0.3289 -0.0533
  963POPC   C1A14387  12.640   2.486   6.209 -0.1895  0.0037  0.1120
  963POPC   D2A14388  12.651   2.505   6.662 -0.0448 -0.0067 -0.2191
  963POPC   C3A14389  12.438   2.177   6.858 -0.2105  0.2495 -0.0293
  963POPC   C4A14390  12.080   1.831   7.017 -0.2030 -0.2553  0.1939
  963POPC   C1B14391  12.157   2.309   6.048  0.4490 -0.2594  0.0468
  963POPC   C2B14392  12.222   2.381   6.457 -0.3282  0.0137  0.0907
  963POPC   C3B14393  12.131   2.558   6.812 -0.0056 -0.0851 -0.0543
  963POPC   C4B14394  12.383   2.814   7.090 -0.2156  0.3159 -0.0925
  964POPC   NC314395   6.151   3.988   5.012 -0.1292 -0.0380  0.1644
  964POPC   PO414396   6.564   3.989   4.905 -0.1547 -0.1943  0.4607
  964POPC   GL114397   6.537   3.957   5.373 -0.1047 -0.3050 -0.3448
  964POPC   GL214398   6.252   4.131   5.560  0.3206  0.0129  0.3670
  964POPC   C1A14399   6.758   3.958   5.670  0.2613 -0.0106  0.0710
  964POPC   D2A14400   7.087   4.219   5.748  0.1292 -0.2758  0.1860
  964POPC   C3A14401   6.879   4.551   6.150  0.0842  0.1331  0.1186
  964POPC   C4A14402   6.496   4.793   6.321  0.0104 -0.0433  0.3790
  964POPC   C1B14403   5.926   4.150   5.828  0.1204 -0.0325  0.0193
  964POPC   C2B14404   5.841   4.129   6.192  0.3002 -0.1828  0.1435
  964POPC   C3B14405   5.967   4.056   6.665 -0.1088  0.0552 -0.3466
  964POPC   C4B14406   5.719   3.977   7.026 -0.1423  0.0518  0.0344
  965POPC   NC314407  18.267  14.960   5.221  0.2996 -0.2796 -0.5014
  965POPC   PO414408  18.169  14.650   5.548  0.1747 -0.2300  0.0682
  965POPC   GL114409  18.032  14.807   5.901  0.3046 -0.0860  0.1605
  965POPC   GL214410  17.741  14.764   5.873  0.0819  0.1305 -0.0158
  965POPC   C1A14411  17.929  15.081   6.396  0.1203 -0.0115  0.0446
  965POPC   D2A14412  17.967  15.240   6.884 -0.1434  0.1684 -0.0166
  965POPC   C3A14413  18.320  14.992   7.123  0.0029  0.5436  0.1987
  965POPC   C4A14414  18.662  15.033   7.253  0.1138  0.2567 -0.0547
  965POPC   C1B14415  17.491  14.826   6.271 -0.3155 -0.2376 -0.1557
  965POPC   C2B14416  17.550  14.566   6.575 -0.0579 -0.0002  0.1383
  965POPC   C3B14417  17.801  14.299   6.833 -0.1353 -0.0186 -0.1586
  965POPC   C4B14418  18.053  13.967   7.070 -0.2299 -0.2356 -0.0850
  966POPC   NC314419  10.832   6.870   5.059  0.0266 -0.0089  0.1361
  966POPC   PO414420  10.852   7.253   5.216  0.1353 -0.0394 -0.1254
  966POPC   GL114421  11.069   7.268   5.693  0.1672  0.1991 -0.3373
  966POPC   GL214422  10.789   7.397   5.733  0.0536  0.0186 -0.0389
  966POPC   C1A14423  10.990   7.210   6.118  0.0707 -0.0270  0.1998
  966POPC   D2A14424  10.965   7.184   6.528  0.1970 -0.0982  0.0204
  966POPC   C3A14425  11.013   7.316   6.929 -0.0837 -0.0572  0.2408
  966POPC   C4A14426  11.062   7.589   7.273  0.1461  0.1213  0.0488
  966POPC   C1B14427  10.623   7.535   6.048  0.1741 -0.0405 -0.2543
  966POPC   C2B14428  10.529   7.537   6.408  0.1274 -0.0219  0.1005
  966POPC   C3B14429  10.637   7.525   6.738  0.2484 -0.5019  0.1626
  966POPC   C4B14430  10.645   7.805   7.131 -0.1360 -0.0037 -0.1302
  967POPC   NC314431   1.663  14.573   4.656  0.0361 -0.2036  0.1588
  967POPC   PO414432   1.858  14.540   4.995  0.1029 -0.0169  0.4196
  967POPC   GL114433   1.699  14.591   5.306 -0.0844 -0.2518  0.2395
  967POPC   GL214434   1.751  14.474   5.623 -0.0489  0.1730 -0.2897
  967POPC   C1A14435   1.243  14.545   5.594 -0.0632  0.1944  0.0369
  967POPC   D2A14436   1.221  14.591   6.019 -0.0722 -0.1551 -0.1675
  967POPC   C3A14437   1.124  14.561   6.447  0.1304  0.1049  0.1070
  967POPC   C4A14438   0.972  14.925   6.497  0.1044  0.0281 -0.0957
  967POPC   C1B14439   1.750  14.504   6.144  0.1075  0.0441  0.3015
  967POPC   C2B14440   1.616  14.523   6.576 -0.0024 -0.1078 -0.1207
  967POPC   C3B14441   1.440  14.658   6.937  0.1034  0.0337  0.1209
  967POPC   C4B14442   1.219  14.910   7.077  0.0823 -0.1292  0.0552
  968POPC   NC314443  13.526   3.409   5.504 -0.2203  0.2693  0.1543
  968POPC   PO414444  13.299   3.797   5.408 -0.0726  0.5329  0.2148
  968POPC   GL114445  12.947   3.773   5.727 -0.2268 -0.2692 -0.1823
  968POPC   GL214446  12.656   3.647   5.743  0.4221 -0.2080 -0.0418
  968POPC   C1A14447  13.016   4.041   6.013  0.0534  0.0340 -0.0330
  968POPC   D2A14448  13.048   4.356   6.341  0.0071 -0.3046  0.0665
  968POPC   C3A14449  13.168   4.409   6.788 -0.0378  0.1460  0.1402
  968POPC   C4A14450  12.924   4.732   7.131 -0.0340 -0.4083 -0.2807
  968POPC   C1B14451  12.684   3.797   6.211 -0.3318 -0.0354  0.1995
  968POPC   C2B14452  12.707   4.041   6.505  0.1858  0.0559 -0.1477
  968POPC   C3B14453  12.680   4.427   6.739 -0.3186 -0.0008 -0.1161
  968POPC   C4B14454  12.732   4.826   6.657  0.1923 -0.0554  0.0653
  969POPC   NC314455  18.028   7.006   5.394  0.0930  0.1011 -0.0761
  969POPC   PO414456  17.883   6.592   5.272 -0.1520 -0.0771 -0.0693
  969POPC   GL114457  17.861   6.349   5.666 -0.3859  0.0334 -0.0624
  969POPC   GL214458  18.003   6.680   5.803  0.0676 -0.0109  0.0461
  969POPC   C1A14459  18.147   6.177   6.019 -0.3919 -0.1058  0.2412
  969POPC   D2A14460  18.133   5.816   6.221  0.1164 -0.0973 -0.0386
  969POPC   C3A14461  18.057   5.789   6.697 -0.0614 -0.1767 -0.0657
  969POPC   C4A14462  18.161   5.667   7.066  0.0720  0.1338  0.0650
  969POPC   C1B14463  17.833   6.561   6.149  0.0066  0.0877 -0.1250
  969POPC   C2B14464  17.839   6.587   6.532 -0.4002  0.0051  0.2374
  969POPC   C3B14465  18.081   6.624   6.769 -0.0738  0.0917  0.0238
  969POPC   C4B14466  18.451   6.261   6.944  0.2806 -0.2092 -0.2629
  970POPC   NC314467   1.909   7.053   5.133  0.3343  0.0678 -0.1384
  970POPC   PO414468   1.810   7.402   5.369  0.0433  0.0539  0.3322
  970POPC   GL114469   1.873   7.543   5.813 -0.0304  0.0887  0.1013
  970POPC   GL214470   2.143   7.277   5.859  0.1651  0.3469  0.2059
  970POPC   C1A14471   1.705   7.513   6.179  0.1362  0.0169 -0.0751
  970POPC   D2A14472   1.941   7.684   6.421  0.2046 -0.1015 -0.1987
  970POPC   C3A14473   1.698   7.820   6.750  0.1783 -0.4299  0.3410
  970POPC   C4A14474   1.481   8.164   6.706  0.0020  0.3683  0.0418
  970POPC   C1B14475   1.920   6.968   6.273 -0.0105 -0.2603  0.0222
  970POPC   C2B14476   1.964   7.253   6.618 -0.0465  0.0607  0.3272
  970POPC   C3B14477   2.010   7.527   6.953 -0.1810 -0.0627 -0.0135
  970POPC   C4B14478   2.060   7.875   7.107  0.1248 -0.2920 -0.0479
  971POPC   NC314479   2.687   0.286   5.105  0.2923 -0.0805 -0.1904
  971POPC   PO414480   2.465   0.415   5.532 -0.0388  0.1809 -0.0511
  971POPC   GL114481   2.392   0.658   5.917  0.0275 -0.1913  0.0412
  971POPC   GL214482   2.110   0.814   5.993 -0.0058  0.2717  0.1673
  971POPC   C1A14483   2.625   0.595   6.321 -0.0006  0.1796  0.0824
  971POPC   D2A14484   2.837   0.835   6.588 -0.3203  0.0949 -0.0254
  971POPC   C3A14485   3.224   0.806   6.814 -0.1876  0.0396 -0.2040
  971POPC   C4A14486   3.318   0.961   7.103 -0.1094  0.2412 -0.2157
  971POPC   C1B14487   2.206   0.893   6.443 -0.0021  0.1302  0.0992
  971POPC   C2B14488   2.416   0.836   6.878 -0.1087 -0.1205  0.2005
  971POPC   C3B14489   2.403   1.051   7.396  0.1531  0.3285  0.2060
  971POPC   C4B14490   2.317   1.206   7.846  0.2056 -0.1413  0.0866
  972POPC   NC314491   4.652   3.297   5.068  0.0999  0.1423  0.0762
  972POPC   PO414492   4.279   3.343   5.241  0.0945 -0.0412 -0.1359
  972POPC   GL114493   4.276   3.330   5.622  0.1211  0.0466  0.0512
  972POPC   GL214494   4.479   3.074   5.649  0.2194  0.0762 -0.1154
  972POPC   C1A14495   4.231   3.416   6.087 -0.2143 -0.2328  0.1165
  972POPC   D2A14496   4.330   3.295   6.510  0.0725  0.0699 -0.0175
  972POPC   C3A14497   4.040   3.302   6.899 -0.1743  0.1326 -0.0328
  972POPC   C4A14498   3.982   3.698   7.245 -0.0998 -0.2723 -0.0106
  972POPC   C1B14499   4.472   2.924   6.143 -0.1673  0.0075  0.7111
  972POPC   C2B14500   4.581   2.762   6.442 -0.3207 -0.0152 -0.1960
  972POPC   C3B14501   4.605   2.434   6.626 -0.2939 -0.1884  0.0738
  972POPC   C4B14502   4.601   2.321   7.051  0.0097 -0.0551  0.1197
  973POPC   NC314503  12.368   9.413   4.850 -0.0960 -0.1303 -0.1172
  973POPC   PO414504  12.608   9.517   5.291  0.1309 -0.0914  0.0318
  973POPC   GL114505  12.469   9.378   5.660 -0.1136  0.0434  0.0084
  973POPC   GL214506  12.616   9.362   5.816  0.0603  0.0245 -0.0817
  973POPC   C1A14507  12.092   9.426   5.850 -0.2670 -0.1770  0.1124
  973POPC   D2A14508  11.763   9.196   5.965 -0.1980 -0.1318  0.1800
  973POPC   C3A14509  11.767   9.168   6.416  0.0391  0.0297  0.4420
  973POPC   C4A14510  11.810   9.319   6.868  0.2417  0.0658  0.1023
  973POPC   C1B14511  12.864   9.273   6.199  0.0213 -0.1449 -0.1252
  973POPC   C2B14512  12.886   9.228   6.626  0.3306 -0.2245  0.1056
  973POPC   C3B14513  12.697   9.429   6.997  0.0933  0.2099 -0.0142
  973POPC   C4B14514  12.328   9.482   7.210 -0.1384 -0.0133  0.0032
  974POPC   NC314515  11.732   6.912   4.747 -0.1458  0.0501 -0.1567
  974POPC   PO414516  11.717   7.209   5.134 -0.0809 -0.0091 -0.0900
  974POPC   GL114517  11.994   6.964   5.488  0.1658  0.1700  0.0473
  974POPC   GL214518  11.686   6.705   5.704 -0.0406  0.0648 -0.5352
  974POPC   C1A14519  12.104   6.997   5.914 -0.0849  0.0822 -0.2718
  974POPC   D2A14520  12.095   6.917   6.345  0.1656 -0.0237  0.1302
  974POPC   C3A14521  12.479   6.896   6.637  0.0787  0.0021  0.0380
  974POPC   C4A14522  12.580   7.085   7.037  0.0888 -0.2026 -0.0854
  974POPC   C1B14523  11.231   6.803   5.818 -0.0819 -0.1104 -0.5502
  974POPC   C2B14524  10.944   6.678   6.190  0.1360  0.1022 -0.2852
  974POPC   C3B14525  10.743   6.491   6.607  0.0699 -0.1237 -0.3220
  974POPC   C4B14526  10.394   6.542   6.859  0.1123 -0.2805  0.1690
  975POPC   NC314527  15.562   0.022   5.655 -0.1000  0.3000  0.0937
  975POPC   PO414528  15.861   0.262   5.609 -0.1644  0.0686 -0.2960
  975POPC   GL114529  15.973   0.591   6.056  0.1195 -0.4388  0.1084
  975POPC   GL214530  15.945   0.871   6.094  0.2145 -0.2033  0.2626
  975POPC   C1A14531  16.066   0.558   6.507  0.1149 -0.0339 -0.0537
  975POPC   D2A14532  16.170   0.466   6.893 -0.1024 -0.0278  0.2588
  975POPC   C3A14533  16.262   0.779   7.248  0.0524 -0.0564  0.1557
  975POPC   C4A14534  16.103   0.798   7.716 -0.1603 -0.3597 -0.0913
  975POPC   C1B14535  16.280   0.959   6.361 -0.1057 -0.0013  0.0255
  975POPC   C2B14536  16.392   0.875   6.775 -0.2242  0.0606 -0.1571
  975POPC   C3B14537  16.737   0.621   6.960 -0.1023  0.0192  0.4204
  975POPC   C4B14538  17.140   0.340   6.929  0.0280 -0.0164 -0.0675
  976POPC   NC314539   8.871   2.037   5.506  0.0667 -0.0756  0.1688
  976POPC   PO414540   9.226   1.797   5.268  0.0798 -0.0380  0.1783
  976POPC   GL114541   9.151   1.633   5.714 -0.0481 -0.1230 -0.0912
  976POPC   GL214542   9.523   1.487   5.816 -0.2979  0.0230 -0.0871
  976POPC   C1A14543   9.129   1.244   6.001  0.0786  0.0713  0.1366
  976POPC   D2A14544   8.806   1.122   6.242  0.0856 -0.3513 -0.3024
  976POPC   C3A14545   8.740   1.131   6.705  0.0476  0.3067 -0.1189
  976POPC   C4A14546   8.808   1.519   6.968  0.2131  0.0821 -0.3613
  976POPC   C1B14547   9.669   1.510   6.259  0.2829 -0.1904  0.1121
  976POPC   C2B14548   9.779   1.329   6.697 -0.2388  0.1814 -0.1167
  976POPC   C3B14549  10.023   1.355   7.171 -0.4068 -0.1226 -0.4276
  976POPC   C4B14550   9.840   1.391   7.647  0.0362 -0.0062 -0.1961
  977POPC   NC314551  17.504   4.890   5.243  0.0552  0.0439  0.2813
  977POPC   PO414552  17.749   5.237   5.277 -0.1134  0.1265 -0.3147
  977POPC   GL114553  17.915   5.329   5.723 -0.1956 -0.0265 -0.1011
  977POPC   GL214554  18.217   5.517   5.734  0.5842  0.2329 -0.1922
  977POPC   C1A14555  17.710   5.347   6.136 -0.0608  0.3035  0.0238
  977POPC   D2A14556  17.844   5.396   6.482  0.1866 -0.1601 -0.1572
  977POPC   C3A14557  17.424   5.377   6.584  0.2509 -0.1860  0.0127
  977POPC   C4A14558  17.013   5.300   6.656  0.0214 -0.3067  0.3003
  977POPC   C1B14559  18.280   5.320   6.138 -0.0335  0.1223 -0.0025
  977POPC   C2B14560  18.367   5.381   6.610  0.1536 -0.1709 -0.2564
  977POPC   C3B14561  18.583   5.796   6.854 -0.1847 -0.1891 -0.1870
  977POPC   C4B14562  18.889   6.158   6.723  0.0946 -0.0142  0.2335
  978POPC   NC314563  15.467   2.356   5.576 -0.2055  0.1077  0.0241
  978POPC   PO414564  15.113   2.602   5.374 -0.0695 -0.0475 -0.2532
  978POPC   GL114565  14.920   2.795   5.805  0.1384 -0.0420 -0.0922
  978POPC   GL214566  15.093   2.643   6.038  0.1769 -0.1636 -0.1425
  978POPC   C1A14567  14.825   3.089   6.119 -0.1968  0.0176  0.0438
  978POPC   D2A14568  14.855   3.158   6.585 -0.0616  0.0533 -0.0248
  978POPC   C3A14569  15.265   3.107   6.788 -0.0261 -0.0412 -0.0819
  978POPC   C4A14570  15.456   2.978   7.224 -0.1110 -0.0358  0.2784
  978POPC   C1B14571  15.156   2.750   6.374 -0.0204 -0.0207  0.1330
  978POPC   C2B14572  15.116   2.649   6.785  0.1218  0.0138  0.0355
  978POPC   C3B14573  15.217   2.389   7.142 -0.0747  0.1414  0.0997
  978POPC   C4B14574  15.053   2.051   7.318  0.0811 -0.3985  0.4557
  979POPC   NC314575   6.246  16.751   4.875 -0.0136  0.2553  0.0164
  979POPC   PO414576   5.811  16.818   4.932 -0.0555  0.3192 -0.2415
  979POPC   GL114577   5.708  16.646   5.322 -0.3418 -0.1977 -0.0310
  979POPC   GL214578   5.449  16.399   5.442  0.0312 -0.1713 -0.1137
  979POPC   C1A14579   6.008  16.586   5.635  0.0479  0.1857  0.0235
  979POPC   D2A14580   5.945  16.606   6.068 -0.1208  0.0498 -0.1698
  979POPC   C3A14581   6.155  16.667   6.400 -0.0513 -0.1320  0.2062
  979POPC   C4A14582   6.152  16.570   6.768 -0.3266 -0.0675 -0.2495
  979POPC   C1B14583   5.447  16.619   5.797  0.1994  0.0334 -0.1546
  979POPC   C2B14584   5.481  16.780   6.178  0.2783 -0.0615 -0.2155
  979POPC   C3B14585   5.281  17.032   6.551  0.5139  0.1350 -0.2267
  979POPC   C4B14586   4.883  17.012   6.795  0.0489  0.3807  0.4541
  980POPC   NC314587  11.488   3.188   5.107  0.2352 -0.1198  0.1167
  980POPC   PO414588  11.397   3.568   5.362  0.0054 -0.1809  0.1283
  980POPC   GL114589  11.519   3.622   5.743 -0.0820  0.2189 -0.0347
  980POPC   GL214590  11.459   3.279   5.918 -0.0278 -0.0988 -0.2987
  980POPC   C1A14591  11.886   3.630   5.946  0.2235 -0.0518  0.1484
  980POPC   D2A14592  12.147   3.828   6.116 -0.2461 -0.1090  0.0906
  980POPC   C3A14593  12.290   3.766   6.557  0.1667 -0.1297 -0.2243
  980POPC   C4A14594  11.986   3.675   6.952  0.0436 -0.2279 -0.0308
  980POPC   C1B14595  11.375   3.603   6.226 -0.0802 -0.2614  0.0985
  980POPC   C2B14596  11.401   3.937   6.525 -0.1270 -0.1092 -0.0642
  980POPC   C3B14597  11.145   4.212   6.867  0.0007 -0.1988 -0.0064
  980POPC   C4B14598  11.152   4.272   7.374 -0.1432  0.1751  0.5790
  981POPC   NC314599  18.248   5.057   5.284  0.0915 -0.1771  0.0501
  981POPC   PO414600  18.032   4.645   5.298 -0.0238  0.3333  0.3451
  981POPC   GL114601  17.641   4.824   5.684  0.0104 -0.1982 -0.3223
  981POPC   GL214602  17.369   5.143   5.719 -0.0177  0.0046 -0.0914
  981POPC   C1A14603  17.685   4.828   6.108  0.1870  0.1416 -0.1292
  981POPC   D2A14604  17.623   4.934   6.498 -0.1585 -0.0768  0.2442
  981POPC   C3A14605  17.387   4.918   6.896 -0.2801 -0.1181  0.2178
  981POPC   C4A14606  17.209   4.873   7.303 -0.1180  0.2715  0.0488
  981POPC   C1B14607  17.211   5.308   6.057 -0.1729  0.1766  0.0254
  981POPC   C2B14608  17.161   5.679   6.324  0.0272  0.1615  0.0015
  981POPC   C3B14609  17.169   6.075   6.273  0.3022 -0.2152  0.1645
  981POPC   C4B14610  17.283   6.329   6.101  0.1307 -0.0067  0.1218
  982POPC   NC314611  18.427  18.282   5.654 -0.2285  0.0751 -0.3516
  982POPC   PO414612  18.273  17.948   5.579 -0.0495  0.3056  0.4057
  982POPC   GL114613  18.221  17.930   5.976 -0.2281 -0.0956 -0.1827
  982POPC   GL214614  17.860  17.935   6.211 -0.2247  0.5214  0.0987
  982POPC   C1A14615  18.285  18.005   6.441  0.3843  0.0754  0.1694
  982POPC   D2A14616  18.358  18.187   6.857  0.1391 -0.3549 -0.0768
  982POPC   C3A14617  18.064  18.448   7.099 -0.3449 -0.0220  0.2319
  982POPC   C4A14618  17.990  18.722   7.498 -0.2528 -0.2504  0.4983
  982POPC   C1B14619  17.936  17.526   6.459  0.1352 -0.2315 -0.4023
  982POPC   C2B14620  18.138  17.467   6.905  0.0579 -0.2653  0.3128
  982POPC   C3B14621  18.377  17.412   7.298 -0.0408 -0.4518  0.2323
  982POPC   C4B14622  18.701  17.172   7.532 -0.0447 -0.2491 -0.2796
  983POPC   NC314623  15.729   8.832   4.888  0.1827  0.0217  0.2032
  983POPC   PO414624  16.024   9.113   5.193 -0.2679  0.1781 -0.0137
  983POPC   GL114625  15.989   9.406   5.504 -0.0301  0.0846 -0.1839
  983POPC   GL214626  16.205   9.239   5.663  0.0058  0.2687 -0.0822
  983POPC   C1A14627  15.689   9.729   5.578 -0.2261  0.1509  0.2526
  983POPC   D2A14628  15.485  10.027   5.822  0.2416  0.0344 -0.0005
  983POPC   C3A14629  15.156   9.937   6.011  0.0458  0.0299  0.1132
  983POPC   C4A14630  14.765   9.950   6.268  0.3282 -0.1107  0.2282
  983POPC   C1B14631  16.050   9.546   5.965  0.2302  0.0943  0.0126
  983POPC   C2B14632  16.115   9.712   6.348  0.0476  0.0352 -0.1112
  983POPC   C3B14633  16.418   9.685   6.722  0.0138  0.0570 -0.3272
  983POPC   C4B14634  16.751  10.008   6.741  0.1259  0.0798  0.2196
  984YOPC   NC314635   0.398  15.776   5.056 -0.0824 -0.1219  0.0490
  984YOPC   PO414636   0.856  15.863   5.188 -0.2042  0.0192 -0.1090
  984YOPC   GL114637   0.697  15.755   5.605  0.1907 -0.0556 -0.0101
  984YOPC   GL214638   0.336  15.704   5.574 -0.0691 -0.2464  0.2682
  984YOPC   C1A14639   0.709  16.017   5.987 -0.1175 -0.0818 -0.0728
  984YOPC   D2A14640   0.837  16.324   6.319 -0.1855  0.1615  0.2713
  984YOPC   C3A14641   0.967  16.521   6.643  0.1339 -0.4114  0.0285
  984YOPC   C4A14642   1.141  16.477   6.938  0.1447  0.2604 -0.1146
  984YOPC   C1B14643   0.316  15.713   6.096  0.1883  0.2447 -0.1916
  984YOPC   C2B14644  -0.003  15.607   6.439 -0.1000  0.0782 -0.1823
  984YOPC   D3B14645   0.101  15.491   6.849 -0.1722  0.1673 -0.3856
  984YOPC   C4B14646   0.336  15.311   7.179  0.1516 -0.2115 -0.1587
  985YOPC   NC314647  10.489   3.351   5.449 -0.3503  0.3911  0.0338
  985YOPC   PO414648  10.369   2.954   5.361  0.0454 -0.3588 -0.1331
  985YOPC   GL114649  10.237   2.701   5.658 -0.4970 -0.0692  0.1784
  985YOPC   GL214650  10.388   2.409   5.757 -0.1038 -0.1494  0.2457
  985YOPC   C1A14651  10.035   2.906   6.082 -0.1889  0.1898  0.0136
  985YOPC   D2A14652  10.205   2.854   6.487 -0.0977  0.0840  0.0816
  985YOPC   C3A14653   9.840   2.555   6.698  0.2020  0.2652 -0.2123
  985YOPC   C4A14654   9.741   2.269   7.129  0.1035 -0.1151 -0.1099
  985YOPC   C1B14655  10.351   2.529   6.183 -0.0746 -0.2989  0.1691
  985YOPC   C2B14656  10.685   2.875   6.349  0.0576 -0.2025  0.0818
  985YOPC   D3B14657  11.123   2.766   6.384  0.2007  0.0322  0.0655
  985YOPC   C4B14658  11.330   2.518   6.658 -0.2199  0.0226  0.3201
  986YOPC   NC314659  12.285   5.932   5.101 -0.0609  0.1686 -0.1058
  986YOPC   PO414660  12.592   5.801   5.336 -0.0656  0.0676  0.2161
  986YOPC   GL114661  12.610   5.998   5.655 -0.0625 -0.1181  0.1275
  986YOPC   GL214662  12.327   5.983   5.775 -0.1959  0.2533  0.3373
  986YOPC   C1A14663  12.710   6.246   6.013 -0.1103 -0.2653 -0.0956
  986YOPC   D2A14664  12.947   6.275   6.325 -0.1242  0.1049 -0.1361
  986YOPC   C3A14665  13.140   5.916   6.605  0.1007  0.3374 -0.1315
  986YOPC   C4A14666  13.033   5.692   6.877 -0.2058  0.1629  0.0155
  986YOPC   C1B14667  11.925   5.942   5.942 -0.1153  0.1661  0.0612
  986YOPC   C2B14668  11.821   5.733   6.276  0.2726  0.1416 -0.1994
  986YOPC   D3B14669  11.757   5.946   6.651 -0.1196  0.2343 -0.1498
  986YOPC   C4B14670  11.860   6.305   6.997  0.0969  0.0317 -0.3065
  987YOPC   NC314671   8.408   4.272   5.249 -0.2232 -0.3005  0.0444
  987YOPC   PO414672   8.556   3.819   5.209 -0.4240 -0.1039 -0.1641
  987YOPC   GL114673   8.139   3.849   5.455 -0.2311  0.3219  0.1681
  987YOPC   GL214674   8.314   3.768   5.688  0.0663 -0.0503  0.2538
  987YOPC   C1A14675   7.930   3.986   5.905  0.0631 -0.0508 -0.0601
  987YOPC   D2A14676   7.571   4.116   6.134 -0.0719  0.2716 -0.0346
  987YOPC   C3A14677   7.534   4.258   6.716  0.1428  0.1213 -0.2633
  987YOPC   C4A14678   7.159   4.457   6.782  0.0410 -0.2849  0.1470
  987YOPC   C1B14679   8.246   3.671   6.098 -0.1316  0.1296 -0.0184
  987YOPC   C2B14680   8.148   3.515   6.432  0.0920 -0.0495 -0.0523
  987YOPC   D3B14681   7.806   3.297   6.643  0.3315  0.0306  0.1724
  987YOPC   C4B14682   7.444   3.444   6.952  0.1674 -0.1560  0.4226
  988YOPC   NC314683  12.073  11.335   5.134  0.0753 -0.1470 -0.1070
  988YOPC   PO414684  12.190  10.976   5.248 -0.0172 -0.0403 -0.1901
  988YOPC   GL114685  12.281  10.703   5.657 -0.0047 -0.1480  0.0843
  988YOPC   GL214686  12.428  10.390   5.815  0.1101  0.1601  0.0367
  988YOPC   C1A14687  11.963  10.664   5.987  0.1087 -0.1689 -0.3239
  988YOPC   D2A14688  12.012  10.648   6.472 -0.0935  0.3271 -0.4675
  988YOPC   C3A14689  11.951  11.167   6.692 -0.1199  0.1650 -0.1067
  988YOPC   C4A14690  11.684  11.550   6.710 -0.0194 -0.1229  0.4128
  988YOPC   C1B14691  12.408  10.420   6.223 -0.2509 -0.1574  0.1297
  988YOPC   C2B14692  12.239  10.217   6.553  0.3485  0.0726 -0.0625
  988YOPC   D3B14693  11.857  10.206   6.804 -0.1533 -0.2364  0.0441
  988YOPC   C4B14694  11.443  10.085   7.081 -0.0159 -0.2082  0.0919
  989YOPC   NC314695   5.358   3.812   5.413  0.1720 -0.2505 -0.1685
  989YOPC   PO414696   5.741   3.736   5.151 -0.2636 -0.3269 -0.0298
  989YOPC   GL114697   6.010   3.768   5.482  0.2355  0.5302 -0.0078
  989YOPC   GL214698   5.991   3.468   5.679 -0.0035 -0.2539  0.0597
  989YOPC   C1A14699   6.318   3.758   5.873 -0.4180  0.0479  0.0721
  989YOPC   D2A14700   6.246   3.877   6.198  0.0241  0.0736 -0.5247
  989YOPC   C3A14701   6.418   3.843   6.643  0.1011 -0.1878 -0.1466
  989YOPC   C4A14702   6.571   4.107   6.895 -0.0670 -0.2612  0.0686
  989YOPC   C1B14703   5.750   3.601   6.083 -0.0874  0.2225 -0.2710
  989YOPC   C2B14704   5.688   3.596   6.596 -0.2332 -0.1864 -0.1692
  989YOPC   D3B14705   5.356   3.523   6.827 -0.2444  0.1548 -0.0049
  989YOPC   C4B14706   5.240   3.805   7.182  0.2220 -0.1896  0.3848
  990YOPC   NC314707   4.091  13.119   4.893 -0.0322  0.1415 -0.1856
  990YOPC   PO414708   3.817  13.172   5.216  0.0071  0.1858  0.1138
  990YOPC   GL114709   3.689  13.232   5.681 -0.0001 -0.2597  0.1863
  990YOPC   GL214710   3.943  13.462   5.786 -0.0670 -0.0143 -0.0867
  990YOPC   C1A14711   3.276  13.240   5.876 -0.0209  0.2162 -0.2783
  990YOPC   D2A14712   3.112  13.290   6.205  0.0045  0.2115  0.1342
  990YOPC   C3A14713   3.240  13.113   6.579  0.2854  0.0798 -0.3587
  990YOPC   C4A14714   3.303  12.750   6.644  0.2485 -0.0805 -0.2572
  990YOPC   C1B14715   4.259  13.268   5.942  0.1127 -0.4141  0.3934
  990YOPC   C2B14716   4.409  12.999   6.195 -0.2024 -0.0670 -0.5140
  990YOPC   D3B14717   4.262  12.853   6.538 -0.1589  0.0538 -0.0339
  990YOPC   C4B14718   4.093  12.580   6.798  0.0512  0.1814  0.0252
  991YOPC   NC314719   2.193  14.203   4.855  0.1727 -0.0781  0.1444
  991YOPC   PO414720   2.146  13.739   4.901 -0.0779 -0.2457 -0.1239
  991YOPC   GL114721   2.100  13.670   5.449  0.0340  0.1429  0.0936
  991YOPC   GL214722   2.064  13.293   5.427  0.4108 -0.0465 -0.2946
  991YOPC   C1A14723   1.985  13.582   5.908  0.1307 -0.3114 -0.1238
  991YOPC   D2A14724   1.935  13.561   6.379  0.1514  0.0391 -0.1918
  991YOPC   C3A14725   2.214  13.473   6.695  0.3258  0.1467 -0.0832
  991YOPC   C4A14726   2.125  13.373   7.159  0.0252 -0.0926 -0.2392
  991YOPC   C1B14727   2.135  13.106   5.872 -0.1810  0.1411  0.3198
  991YOPC   C2B14728   2.125  13.128   6.281 -0.1818  0.0665 -0.1864
  991YOPC   D3B14729   2.408  12.992   6.578 -0.0649 -0.0032 -0.0572
  991YOPC   C4B14730   2.733  12.807   6.911 -0.2489  0.0669  0.1636
  992YOPC   NC314731   2.063  16.044   4.714 -0.0960 -0.2293 -0.1607
  992YOPC   PO414732   1.686  15.965   4.996  0.0925  0.2046 -0.1047
  992YOPC   GL114733   1.477  16.095   5.421  0.0319 -0.1363  0.0001
  992YOPC   GL214734   1.286  15.860   5.572  0.1524  0.0772 -0.1711
  992YOPC   C1A14735   1.353  16.284   5.850  0.2307  0.0355  0.0486
  992YOPC   D2A14736   1.274  16.368   6.252 -0.3562  0.1527 -0.0009
  992YOPC   C3A14737   1.354  16.175   6.527  0.2546 -0.2888 -0.0558
  992YOPC   C4A14738   1.311  15.855   6.738 -0.1398 -0.3302 -0.4126
  992YOPC   C1B14739   1.207  15.801   6.081  0.1421  0.0952 -0.2811
  992YOPC   C2B14740   1.195  15.416   6.288  0.0166 -0.1603 -0.0936
  992YOPC   D3B14741   1.060  15.088   6.025  0.1603 -0.2532  0.0900
  992YOPC   C4B14742   0.830  14.813   5.797 -0.2455  0.1284 -0.1514
  993YOPC   NC314743  16.005  16.512   5.862  0.1233  0.1422  0.0689
  993YOPC   PO414744  15.516  16.375   5.961  0.0917 -0.0478 -0.2004
  993YOPC   GL114745  15.621  16.110   6.283  0.1666 -0.0256  0.1255
  993YOPC   GL214746  15.392  16.065   6.451  0.0867  0.1344  0.1603
  993YOPC   C1A14747  15.817  15.739   6.521  0.2980 -0.2075  0.0283
  993YOPC   D2A14748  15.982  15.377   6.733  0.0139 -0.1960  0.1071
  993YOPC   C3A14749  16.394  15.356   6.869  0.0449 -0.1909 -0.0935
  993YOPC   C4A14750  16.651  15.343   7.130 -0.2166 -0.0843 -0.1556
  993YOPC   C1B14751  15.492  15.928   6.949  0.2501  0.0868 -0.2212
  993YOPC   C2B14752  15.569  15.618   7.175  0.0580 -0.0464  0.0958
  993YOPC   D3B14753  15.597  15.168   7.046  0.0557 -0.0573  0.0467
  993YOPC   C4B14754  15.665  14.682   7.114 -0.1448 -0.0602  0.3037
  994YOPC   NC314755   5.500  12.174   4.950  0.4343 -0.0498 -0.0291
  994YOPC   PO414756   5.527  11.780   5.166 -0.0268 -0.1491 -0.1539
  994YOPC   GL114757   5.753  11.770   5.425  0.0651 -0.0179 -0.1026
  994YOPC   GL214758   5.909  11.564   5.540 -0.1559 -0.0196  0.1442
  994YOPC   C1A14759   5.540  12.051   5.787 -0.1189 -0.1826 -0.0336
  994YOPC   D2A14760   5.829  12.254   6.168  0.1247 -0.5229  0.1124
  994YOPC   C3A14761   5.648  12.391   6.653 -0.0093  0.1083 -0.0902
  994YOPC   C4A14762   5.471  12.297   6.948  0.2114 -0.2135 -0.0975
  994YOPC   C1B14763   5.889  11.713   6.033  0.0696 -0.0411  0.1196
  994YOPC   C2B14764   5.832  11.867   6.466  0.4315 -0.2516  0.1120
  994YOPC   D3B14765   6.194  11.750   6.798 -0.0566 -0.0128  0.0325
  994YOPC   C4B14766   6.328  11.739   7.123 -0.2452  0.0495 -0.4418
  995YOPC   NC314767   6.112  15.846   4.905 -0.1522  0.0880  0.2643
  995YOPC   PO414768   6.354  16.271   5.037 -0.0489 -0.3337  0.1002
  995YOPC   GL114769   6.305  16.110   5.474  0.1617 -0.0876  0.0110
  995YOPC   GL214770   6.000  16.087   5.467 -0.1865  0.0533 -0.2312
  995YOPC   C1A14771   6.266  16.231   5.957 -0.1381  0.1269  0.0741
  995YOPC   D2A14772   6.072  16.184   6.386 -0.1364  0.0242 -0.4139
  995YOPC   C3A14773   5.746  15.981   6.394 -0.1745 -0.0511 -0.0833
  995YOPC   C4A14774   5.338  16.068   6.669 -0.0233  0.1136 -0.2071
  995YOPC   C1B14775   5.746  16.154   5.864 -0.2209 -0.0804 -0.1158
  995YOPC   C2B14776   5.317  16.246   6.159  0.0088 -0.3131 -0.0978
  995YOPC   D3B14777   5.657  16.436   6.489  0.1386  0.0467 -0.0057
  995YOPC   C4B14778   5.722  16.856   6.674 -0.0595 -0.2707  0.2798
  996YOPC   NC314779   9.414  18.491   5.777  0.0265  0.0172  0.1910
  996YOPC   PO414780   9.667  18.098   5.684 -0.2327 -0.0191 -0.1054
  996YOPC   GL114781   9.545  18.010   6.191 -0.0143 -0.2742 -0.2035
  996YOPC   GL214782   9.306  18.086   6.148  0.1348 -0.3432 -0.0914
  996YOPC   C1A14783   9.456  18.020   6.636  0.0462  0.0904 -0.1998
  996YOPC   D2A14784   9.352  18.046   6.990  0.3157 -0.0239  0.0220
  996YOPC   C3A14785   9.594  17.843   7.360 -0.0505 -0.3227  0.0697
  996YOPC   C4A14786   9.697  17.672   7.678  0.1493  0.0391 -0.0434
  996YOPC   C1B14787   9.009  18.211   6.401  0.0124  0.0258 -0.0191
  996YOPC   C2B14788   8.928  18.230   6.829 -0.1668 -0.1456 -0.0021
  996YOPC   D3B14789   8.912  17.957   7.225 -0.0673  0.2603 -0.1229
  996YOPC   C4B14790   8.730  17.993   7.522  0.1242 -0.0153 -0.3201
  997YOPC   NC314791  10.894  18.514   5.520 -0.2468  0.2285  0.1154
  997YOPC   PO414792  10.461  18.530   5.515  0.4073 -0.0806  0.1719
  997YOPC   GL114793  10.337  18.380   5.859 -0.0826 -0.2502  0.0814
  997YOPC   GL214794  10.334  18.642   6.089 -0.1183 -0.0677 -0.1852
  997YOPC   C1A14795  10.422  18.195   6.257 -0.0112 -0.1281 -0.2735
  997YOPC   D2A14796  10.507  18.126   6.576 -0.1262  0.0114  0.1752
  997YOPC   C3A14797  10.543  18.305   6.925 -0.0485  0.0139 -0.1102
  997YOPC   C4A14798  10.335  18.706   7.092  0.0885  0.1135  0.2539
  997YOPC   C1B14799  10.427  18.635   6.533  0.3638 -0.0906  0.0376
  997YOPC   C2B14800  10.445  19.053   6.681  0.2118  0.3098  0.2527
  997YOPC   D3B14801  10.753  19.205   6.617  0.1967 -0.0748  0.0759
  997YOPC   C4B14802  11.218  19.149   6.494 -0.2593  0.0275  0.0171
  998YOPC   NC314803   0.968   4.655   5.168 -0.1649  0.0406 -0.0952
  998YOPC   PO414804   0.636   4.349   5.274 -0.2892 -0.2663  0.1369
  998YOPC   GL114805   0.865   4.476   5.649 -0.3161  0.1542 -0.2124
  998YOPC   GL214806   1.236   4.542   5.659 -0.2192 -0.2568  0.1129
  998YOPC   C1A14807   0.928   4.469   6.115  0.2606 -0.2904  0.3829
  998YOPC   D2A14808   0.887   4.414   6.581 -0.1233 -0.0299  0.0638
  998YOPC   C3A14809   0.957   4.740   6.816 -0.0507 -0.1353 -0.0495
  998YOPC   C4A14810   0.941   4.984   7.093  0.0477 -0.0242 -0.1934
  998YOPC   C1B14811   1.171   4.856   5.926  0.1528  0.0459  0.3280
  998YOPC   C2B14812   1.458   5.099   5.974 -0.2162 -0.3431  0.2453
  998YOPC   D3B14813   1.928   5.029   5.868  0.1301  0.1554  0.1337
  998YOPC   C4B14814   2.065   4.612   6.085  0.2046  0.2178 -0.1218
  999YOPC   NC314815   7.447  16.321   4.724  0.0706 -0.0150  0.0481
  999YOPC   PO414816   7.698  16.014   4.955 -0.2829  0.1403  0.2252
  999YOPC   GL114817   7.519  15.987   5.362 -0.0067  0.4332 -0.1832
  999YOPC   GL214818   7.596  15.766   5.602 -0.2526  0.1118  0.1249
  999YOPC   C1A14819   7.188  16.085   5.540  0.4152  0.0436 -0.2670
  999YOPC   D2A14820   7.211  16.380   5.880  0.0890 -0.0536 -0.2099
  999YOPC   C3A14821   6.998  16.249   6.223  0.0580  0.0444 -0.0129
  999YOPC   C4A14822   6.645  16.140   6.399  0.4213 -0.1101  0.2043
  999YOPC   C1B14823   7.783  15.667   5.867  0.1793  0.0311  0.0960
  999YOPC   C2B14824   7.985  15.718   6.294 -0.3227  0.0300  0.2171
  999YOPC   D3B14825   8.203  16.100   6.353  0.0213  0.1582 -0.0711
  999YOPC   C4B14826   8.406  16.341   6.582 -0.0961 -0.1456 -0.0366
 1000YOPC   NC314827   3.977   1.771   5.278 -0.0620 -0.0972 -0.0609
 1000YOPC   PO414828   4.392   1.544   5.225  0.2260 -0.0603  0.3571
 1000YOPC   GL114829   4.703   1.754   5.544 -0.0522 -0.0547  0.0273
 1000YOPC   GL214830   4.698   2.042   5.740 -0.0625  0.1473  0.0996
 1000YOPC   C1A14831   4.823   1.629   5.992 -0.0232  0.0373 -0.2893
 1000YOPC   D2A14832   4.809   1.576   6.415  0.1616  0.0705 -0.1406
 1000YOPC   C3A14833   4.375   1.520   6.522 -0.0278 -0.0781  0.2842
 1000YOPC   C4A14834   4.241   1.469   6.950 -0.0386  0.1706 -0.2161
 1000YOPC   C1B14835   4.497   1.957   6.247  0.0079  0.0862 -0.2210
 1000YOPC   C2B14836   4.524   1.937   6.687 -0.4689  0.0901  0.0791
 1000YOPC   D3B14837   4.679   1.708   7.020 -0.0858 -0.1580 -0.1382
 1000YOPC   C4B14838   5.037   1.429   7.022 -0.1923  0.0050 -0.1178
 1001YOPC   NC314839  19.021  14.354   5.174  0.1941  0.0108  0.0913
 1001YOPC   PO414840  18.863  14.004   5.377 -0.1303  0.0559  0.2131
 1001YOPC   GL114841  18.909  14.175   5.716 -0.1998  0.2832 -0.2677
 1001YOPC   GL214842  18.653  14.424   5.750  0.2340  0.2307  0.3055
 1001YOPC   C1A14843  19.276  14.399   5.939  0.0923  0.4449 -0.3912
 1001YOPC   D2A14844  19.409  14.781   5.860 -0.0629 -0.3710 -0.0299
 1001YOPC   C3A14845  19.768  14.862   6.165 -0.0522 -0.0704  0.3185
 1001YOPC   C4A14846  19.880  15.271   6.392  0.2449  0.4397 -0.1598
 1001YOPC   C1B14847  18.425  14.507   6.142  0.2187 -0.3415  0.0391
 1001YOPC   C2B14848  18.499  14.610   6.591 -0.2271  0.3409 -0.1274
 1001YOPC   D3B14849  18.893  14.764   6.735 -0.0410 -0.1420  0.0866
 1001YOPC   C4B14850  18.945  15.143   6.525 -0.0465 -0.1760 -0.2780
 1002YOPC   NC314851   3.776   3.380   5.534  0.2158  0.1454 -0.0217
 1002YOPC   PO414852   3.486   3.656   5.704 -0.1402  0.4742  0.3391
 1002YOPC   GL114853   3.672   3.470   6.042  0.0821  0.0777 -0.0335
 1002YOPC   GL214854   3.890   3.831   6.047 -0.2930 -0.2141  0.1639
 1002YOPC   C1A14855   3.873   3.535   6.453  0.3398 -0.0504  0.2464
 1002YOPC   D2A14856   3.988   3.839   6.751  0.2470  0.0213 -0.0970
 1002YOPC   C3A14857   4.339   3.744   6.935  0.0287  0.1491  0.0220
 1002YOPC   C4A14858   4.611   3.843   7.289 -0.0987 -0.2336 -0.0008
 1002YOPC   C1B14859   3.929   4.187   6.382 -0.2731  0.0394 -0.0307
 1002YOPC   C2B14860   3.884   4.507   6.757 -0.3399  0.2986  0.2251
 1002YOPC   D3B14861   3.541   4.827   6.812  0.0075  0.2925 -0.2087
 1002YOPC   C4B14862   3.037   4.851   6.768  0.1497 -0.0154 -0.4700
 1003YOPC   NC314863   8.621   5.156   5.316  0.0051  0.1344  0.3110
 1003YOPC   PO414864   8.667   4.718   5.488  0.1549  0.0606  0.2088
 1003YOPC   GL114865   8.902   4.332   5.674 -0.0710  0.0879  0.1072
 1003YOPC   GL214866   8.724   4.005   5.629 -0.4430 -0.1408  0.0724
 1003YOPC   C1A14867   9.114   4.056   5.932  0.1469 -0.3919  0.2716
 1003YOPC   D2A14868   9.272   4.098   6.388  0.3644 -0.1835 -0.0702
 1003YOPC   C3A14869   9.432   4.044   6.787 -0.0494 -0.2562  0.1633
 1003YOPC   C4A14870   9.673   3.885   7.204 -0.3311 -0.0561  0.1129
 1003YOPC   C1B14871   8.382   4.182   5.921 -0.1220 -0.2422 -0.2958
 1003YOPC   C2B14872   8.278   4.154   6.282 -0.2127  0.1554 -0.0124
 1003YOPC   D3B14873   7.944   4.020   6.523 -0.1269 -0.4090 -0.0421
 1003YOPC   C4B14874   7.798   3.900   6.965 -0.0763 -0.1374  0.1675
 1004YOPC   NC314875   7.940   7.888   4.709  0.2534 -0.0882 -0.0446
 1004YOPC   PO414876   8.035   7.604   5.056 -0.2834  0.2191 -0.0187
 1004YOPC   GL114877   7.631   7.484   5.167 -0.1254 -0.1798 -0.0915
 1004YOPC   GL214878   7.613   7.151   5.378  0.1987 -0.1646  0.0328
 1004YOPC   C1A14879   7.276   7.522   5.316 -0.0310 -0.3808  0.2057
 1004YOPC   D2A14880   7.132   7.573   5.659 -0.0338 -0.2870 -0.1053
 1004YOPC   C3A14881   7.189   7.949   5.793  0.0382  0.0185  0.1860
 1004YOPC   C4A14882   7.228   8.008   6.194  0.4799  0.0702  0.0429
 1004YOPC   C1B14883   7.785   7.473   5.645  0.0373 -0.1180  0.2445
 1004YOPC   C2B14884   7.632   7.624   6.024 -0.3395  0.2158  0.2954
 1004YOPC   D3B14885   7.565   7.732   6.468  0.0521  0.2341 -0.1479
 1004YOPC   C4B14886   7.351   7.675   6.925  0.0723  0.2409  0.0548
 1005YOPC   NC314887   2.704  10.743   5.052 -0.3087  0.0899 -0.3113
 1005YOPC   PO414888   2.519  10.508   5.397  0.0767 -0.1242 -0.0623
 1005YOPC   GL114889   2.583  10.245   5.712  0.1275 -0.1714 -0.1035
 1005YOPC   GL214890   2.371  10.038   5.736 -0.0435  0.0913 -0.2549
 1005YOPC   C1A14891   2.657   9.991   6.133 -0.0514 -0.3172  0.0586
 1005YOPC   D2A14892   2.669   9.935   6.559  0.0686  0.1313 -0.3297
 1005YOPC   C3A14893   3.021   9.841   6.768  0.2380 -0.1223 -0.2197
 1005YOPC   C4A14894   3.294   9.836   7.056  0.1130  0.0601 -0.3528
 1005YOPC   C1B14895   2.169   9.955   6.128  0.1010  0.1796  0.3101
 1005YOPC   C2B14896   2.253   9.586   6.370  0.2353 -0.0472 -0.3630
 1005YOPC   D3B14897   2.427   9.467   6.757 -0.1272 -0.0528  0.1177
 1005YOPC   C4B14898   2.255   9.566   7.131 -0.1776  0.0149 -0.1288
 1006YOPC   NC314899  13.483   1.567   5.218  0.0061 -0.0178 -0.1951
 1006YOPC   PO414900  13.724   1.799   5.578  0.3776  0.1159  0.0681
 1006YOPC   GL114901  14.017   1.745   5.972 -0.2418  0.1312 -0.3314
 1006YOPC   GL214902  13.930   2.018   6.194 -0.3268  0.0037 -0.2373
 1006YOPC   C1A14903  13.684   1.560   6.396 -0.0370 -0.2262 -0.0635
 1006YOPC   D2A14904  13.246   1.734   6.464 -0.0260  0.1174 -0.3332
 1006YOPC   C3A14905  12.852   1.470   6.349  0.2480 -0.3507 -0.1312
 1006YOPC   C4A14906  12.427   1.438   6.233 -0.0424 -0.0300 -0.1278
 1006YOPC   C1B14907  13.616   2.054   6.429 -0.0858 -0.1111 -0.0807
 1006YOPC   C2B14908  13.244   2.141   6.798  0.1761  0.1594 -0.2591
 1006YOPC   D3B14909  12.808   2.020   6.527  0.0598  0.3608  0.2553
 1006YOPC   C4B14910  12.364   1.945   6.358 -0.0056 -0.1892  0.1309
 1007YOPC   NC314911  16.953   3.355   5.348 -0.1474  0.0196  0.3551
 1007YOPC   PO414912  16.468   3.239   5.150  0.3389  0.0210 -0.0356
 1007YOPC   GL114913  16.580   3.508   5.616 -0.1943 -0.1633  0.0899
 1007YOPC   GL214914  16.413   3.438   5.952 -0.0109 -0.1575  0.3660
 1007YOPC   C1A14915  16.938   3.691   5.956  0.0393  0.0429  0.0136
 1007YOPC   D2A14916  17.520   3.686   6.023 -0.0163  0.2984 -0.1520
 1007YOPC   C3A14917  17.737   3.922   6.324  0.3030  0.2880 -0.0291
 1007YOPC   C4A14918  17.667   3.986   6.687  0.1760  0.0043 -0.0991
 1007YOPC   C1B14919  16.553   3.707   6.266 -0.2895  0.5340  0.1449
 1007YOPC   C2B14920  16.459   3.772   6.747 -0.1608  0.0140 -0.5470
 1007YOPC   D3B14921  16.737   3.999   7.003  0.0817 -0.0606  0.1348
 1007YOPC   C4B14922  17.244   3.974   7.043 -0.0975 -0.3320  0.1308
 1008YOPC   NC314923   2.896  16.287   4.482 -0.0102 -0.2547  0.0796
 1008YOPC   PO414924   2.814  15.877   4.867  0.3347 -0.0330  0.1593
 1008YOPC   GL114925   2.762  16.056   5.257 -0.3403  0.3020  0.2764
 1008YOPC   GL214926   2.966  15.959   5.407  0.0844  0.2220 -0.2982
 1008YOPC   C1A14927   2.404  16.069   5.566 -0.4361 -0.3401  0.1802
 1008YOPC   D2A14928   2.241  16.288   5.917 -0.4316 -0.2012  0.4061
 1008YOPC   C3A14929   2.277  16.587   6.122 -0.0516 -0.1006 -0.0299
 1008YOPC   C4A14930   2.623  16.806   6.264  0.1326  0.4030  0.2096
 1008YOPC   C1B14931   2.956  15.884   5.792  0.0493  0.0069  0.2006
 1008YOPC   C2B14932   2.893  15.659   6.201 -0.2153  0.1232 -0.0942
 1008YOPC   D3B14933   2.681  15.713   6.576 -0.2513  0.3313  0.1031
 1008YOPC   C4B14934   2.472  15.989   6.816  0.1168  0.2657 -0.0325
 1009YOPC   NC314935   9.106  16.385   5.378  0.0742 -0.2589  0.1235
 1009YOPC   PO414936   8.729  16.540   5.517 -0.2410  0.1666  0.2381
 1009YOPC   GL114937   9.075  16.748   5.792  0.0851  0.1327 -0.0315
 1009YOPC   GL214938   8.989  16.631   6.106  0.0149 -0.1627 -0.2413
 1009YOPC   C1A14939   9.401  16.873   6.018  0.2929 -0.0787 -0.0295
 1009YOPC   D2A14940   9.684  16.940   6.280 -0.2248  0.1435  0.0008
 1009YOPC   C3A14941   9.806  16.832   6.643  0.1486  0.0101 -0.0471
 1009YOPC   C4A14942   9.810  16.698   7.090 -0.1111  0.2141 -0.0758
 1009YOPC   C1B14943   8.883  16.710   6.654 -0.4396  0.1976  0.0525
 1009YOPC   C2B14944   8.974  16.598   6.954 -0.1646 -0.0316  0.0111
 1009YOPC   D3B14945   8.751  16.246   7.213  0.1295 -0.0340 -0.1439
 1009YOPC   C4B14946   8.506  16.197   7.512 -0.1225  0.0607 -0.0890
 1010YOPC   NC314947   9.046  12.422   5.355  0.2179 -0.1381 -0.0171
 1010YOPC   PO414948   8.656  12.505   5.448 -0.0619  0.1495 -0.2321
 1010YOPC   GL114949   8.388  12.618   5.810  0.0412  0.0732  0.0418
 1010YOPC   GL214950   8.502  12.824   5.890  0.0077  0.2387 -0.1255
 1010YOPC   C1A14951   8.206  12.526   6.202 -0.0777  0.0268 -0.0345
 1010YOPC   D2A14952   8.151  12.560   6.670  0.1381  0.0556  0.0027
 1010YOPC   C3A14953   7.995  12.451   7.024  0.1386 -0.1435 -0.3378
 1010YOPC   C4A14954   7.878  12.003   7.208  0.1300 -0.1230  0.0033
 1010YOPC   C1B14955   8.538  12.890   6.307  0.1920 -0.1844  0.1544
 1010YOPC   C2B14956   8.597  12.757   6.645 -0.0928  0.0893  0.1564
 1010YOPC   D3B14957   8.794  12.978   6.907 -0.0128 -0.2243  0.0910
 1010YOPC   C4B14958   8.968  12.940   7.400  0.3267 -0.2693 -0.0275
 1011YOPC   NC314959   3.169  18.435   5.032 -0.0758 -0.1229 -0.1549
 1011YOPC   PO414960   2.823  18.537   5.358  0.0482  0.2262  0.0500
 1011YOPC   GL114961   2.964  18.685   5.801  0.1030 -0.5048  0.3672
 1011YOPC   GL214962   2.709  18.971   5.957 -0.0880  0.0162  0.3169
 1011YOPC   C1A14963   3.075  18.412   6.099 -0.2335 -0.0415 -0.2384
 1011YOPC   D2A14964   3.313  18.523   6.375 -0.1804  0.3062  0.0940
 1011YOPC   C3A14965   3.610  18.417   6.722 -0.0297  0.1689  0.0327
 1011YOPC   C4A14966   3.868  18.141   6.996 -0.1104  0.4056 -0.1976
 1011YOPC   C1B14967   2.821  18.795   6.402 -0.0530  0.0615 -0.1083
 1011YOPC   C2B14968   2.740  18.749   6.850 -0.2112 -0.0775  0.0324
 1011YOPC   D3B14969   3.086  18.624   7.030 -0.1820  0.3144  0.2302
 1011YOPC   C4B14970   3.312  18.698   7.424  0.0119  0.2495  0.2039
 1012YOPC   NC314971   4.388   1.091   4.912 -0.2456 -0.1425  0.0092
 1012YOPC   PO414972   3.925   0.884   5.002 -0.0388 -0.1054 -0.0691
 1012YOPC   GL114973   3.874   0.794   5.419 -0.0368 -0.1542 -0.2049
 1012YOPC   GL214974   3.720   1.002   5.676  0.1728 -0.3355 -0.0427
 1012YOPC   C1A14975   4.155   0.918   5.819  0.1515  0.1544  0.1937
 1012YOPC   D2A14976   4.101   1.075   6.217 -0.0301 -0.1274 -0.1866
 1012YOPC   C3A14977   4.169   0.989   6.693 -0.2457  0.1632  0.0099
 1012YOPC   C4A14978   4.300   0.678   6.991  0.0920 -0.0081 -0.0149
 1012YOPC   C1B14979   3.655   0.835   6.084 -0.0688 -0.3670 -0.1565
 1012YOPC   C2B14980   3.662   0.782   6.592  0.2015 -0.0920 -0.0814
 1012YOPC   D3B14981   3.781   0.625   6.969 -0.2843 -0.0775 -0.0811
 1012YOPC   C4B14982   3.756   0.350   7.343 -0.0231 -0.1242 -0.1606
 1013YOPC   NC314983   3.171   2.766   5.556  0.1390  0.1325  0.2182
 1013YOPC   PO414984   3.509   2.978   5.492 -0.1570 -0.0049 -0.0563
 1013YOPC   GL114985   3.335   3.126   5.900 -0.2161 -0.0355 -0.1156
 1013YOPC   GL214986   3.534   2.843   5.978  0.2185 -0.0738  0.0836
 1013YOPC   C1A14987   3.387   3.207   6.342  0.3633  0.1793  0.1081
 1013YOPC   D2A14988   3.518   3.191   6.685 -0.1869  0.0767  0.0399
 1013YOPC   C3A14989   3.585   2.882   6.985  0.1462  0.1500  0.0054
 1013YOPC   C4A14990   3.793   2.981   7.366  0.1146 -0.1731  0.2242
 1013YOPC   C1B14991   4.014   2.595   5.977 -0.2394  0.3509  0.2879
 1013YOPC   C2B14992   4.225   2.410   6.131 -0.0611 -0.1365 -0.2330
 1013YOPC   D3B14993   4.145   2.267   6.469  0.0169 -0.3198 -0.2212
 1013YOPC   C4B14994   4.026   1.927   6.593  0.1106 -0.0489 -0.2088
 1014YOPC   NC314995   5.061  18.235   4.850  0.1340 -0.2910 -0.2456
 1014YOPC   PO414996   5.415  18.365   5.259  0.1194  0.1296 -0.1316
 1014YOPC   GL114997   5.297  18.520   5.604 -0.2553  0.0237 -0.0228
 1014YOPC   GL214998   4.939  18.463   5.681 -0.0633 -0.1815  0.0235
 1014YOPC   C1A14999   5.235  18.653   6.013  0.3184  0.2325  0.0927
 1014YOPC   D2A15000   4.922  18.577   6.304 -0.0531  0.0119  0.1493
 1014YOPC   C3A15001   4.830  18.984   6.503  0.0311 -0.3680 -0.4804
 1014YOPC   C4A15002   4.993  19.052   6.941 -0.0828  0.1970  0.1452
 1014YOPC   C1B15003   4.687  18.307   5.877  0.0035  0.3320 -0.2471
 1014YOPC   C2B15004   4.717  18.125   6.204  0.3386 -0.0317 -0.0112
 1014YOPC   D3B15005   4.509  17.714   6.138 -0.1731  0.1215 -0.2388
 1014YOPC   C4B15006   4.301  17.413   5.894  0.5608 -0.0493  0.0816
 1015YOPC   NC315007  11.906   5.109   4.756 -0.2147 -0.3824  0.1892
 1015YOPC   PO415008  11.782   5.257   5.163 -0.2646 -0.2005 -0.0261
 1015YOPC   GL115009  11.595   5.416   5.531 -0.2188  0.3152  0.0861
 1015YOPC   GL215010  11.483   5.329   5.780  0.2531 -0.1497  0.3708
 1015YOPC   C1A15011  11.562   5.817   5.579 -0.3531 -0.0371  0.2896
 1015YOPC   D2A15012  11.515   6.210   5.717 -0.0536 -0.1217 -0.0672
 1015YOPC   C3A15013  11.170   6.278   6.018  0.3395  0.4198  0.2289
 1015YOPC   C4A15014  10.950   6.165   6.320 -0.0250  0.0018 -0.6102
 1015YOPC   C1B15015  11.574   5.315   6.236 -0.0599 -0.0730  0.2743
 1015YOPC   C2B15016  11.595   5.394   6.591  0.0427 -0.2276  0.0937
 1015YOPC   D3B15017  11.294   5.695   6.653  0.0522  0.0243  0.1319
 1015YOPC   C4B15018  10.921   5.977   6.800  0.0369  0.1355  0.2328
 1016YOPC   NC315019   7.835   3.437   5.411 -0.1919  0.2714  0.1056
 1016YOPC   PO415020   8.004   2.954   5.398 -0.0329  0.0054 -0.0270
 1016YOPC   GL115021   7.701   3.073   5.756 -0.0478  0.0989  0.2234
 1016YOPC   GL215022   7.617   3.403   5.840  0.2129 -0.0880 -0.2024
 1016YOPC   C1A15023   7.597   3.045   6.212  0.1675  0.0247  0.1602
 1016YOPC   D2A15024   7.629   2.817   6.614  0.1096  0.3019 -0.0061
 1016YOPC   C3A15025   7.277   2.834   6.926  0.1099  0.0558 -0.1413
 1016YOPC   C4A15026   7.281   2.699   7.299  0.0745  0.3441 -0.1268
 1016YOPC   C1B15027   7.716   3.579   6.243 -0.0518  0.1667  0.0356
 1016YOPC   C2B15028   7.493   3.779   6.548  0.1894  0.0078  0.1533
 1016YOPC   D3B15029   7.216   4.080   6.433  0.1495 -0.0252  0.0437
 1016YOPC   C4B15030   6.775   4.106   6.415  0.0425 -0.0569 -0.2243
 1017YOPC   NC315031   7.452  18.735   5.442  0.1320  0.1711 -0.0186
 1017YOPC   PO415032   7.435  19.147   5.383  0.0196 -0.3178 -0.0063
 1017YOPC   GL115033   7.117  19.214   5.649 -0.1739 -0.1774  0.1992
 1017YOPC   GL215034   7.194  19.420   5.868  0.1999  0.0214 -0.0576
 1017YOPC   C1A15035   6.944  19.079   6.132  0.0908 -0.1186  0.0628
 1017YOPC   D2A15036   6.749  18.970   6.520 -0.2924 -0.1680 -0.3634
 1017YOPC   C3A15037   6.362  19.110   6.746  0.4198 -0.2094 -0.0452
 1017YOPC   C4A15038   6.083  19.454   6.847 -0.2466 -0.1409  0.2841
 1017YOPC   C1B15039   7.636  19.502   5.996 -0.2839  0.0659 -0.2013
 1017YOPC   C2B15040   7.937  19.255   6.137 -0.0413 -0.0423  0.0993
 1017YOPC   D3B15041   8.175  19.438   6.515  0.0604 -0.2360 -0.2191
 1017YOPC   C4B15042   8.254  19.204   6.906  0.1341  0.0120  0.3159
 1018YOPC   NC315043   2.531   4.365   5.243  0.0566 -0.3442  0.2557
 1018YOPC   PO415044   2.554   3.913   5.540  0.1169  0.0410 -0.2957
 1018YOPC   GL115045   2.775   3.941   5.954 -0.1652 -0.0527 -0.2037
 1018YOPC   GL215046   3.084   3.693   6.016 -0.0127  0.5180  0.1647
 1018YOPC   C1A15047   2.794   3.982   6.417  0.2194 -0.1904 -0.0189
 1018YOPC   D2A15048   2.774   3.964   6.941 -0.0581 -0.0267 -0.1599
 1018YOPC   C3A15049   2.445   4.072   7.183 -0.3943  0.1236 -0.2133
 1018YOPC   C4A15050   2.144   4.348   7.099  0.2505 -0.1824  0.0226
 1018YOPC   C1B15051   3.034   3.566   6.420  0.1341  0.3160 -0.1092
 1018YOPC   C2B15052   2.895   3.494   6.786  0.0933 -0.1495 -0.1363
 1018YOPC   D3B15053   3.114   3.244   7.060  0.1123 -0.1701 -0.2190
 1018YOPC   C4B15054   3.209   2.808   7.339 -0.2236  0.3621 -0.1935
 1019YOPC   NC315055   6.183   1.642   4.944  0.1707  0.1406  0.2271
 1019YOPC   PO415056   5.985   1.470   5.222  0.2515  0.0999 -0.2125
 1019YOPC   GL115057   6.013   1.460   5.654  0.0919 -0.0256  0.2961
 1019YOPC   GL215058   5.990   1.125   5.726 -0.4642 -0.1022 -0.0372
 1019YOPC   C1A15059   5.872   1.725   6.014  0.3098  0.2833  0.0739
 1019YOPC   D2A15060   5.961   2.144   6.124 -0.1862  0.1465 -0.2228
 1019YOPC   C3A15061   6.252   2.383   6.273 -0.1619  0.1315  0.1103
 1019YOPC   C4A15062   6.426   2.770   6.453 -0.0436  0.0311  0.2611
 1019YOPC   C1B15063   6.337   1.151   6.065  0.2367 -0.2761 -0.2433
 1019YOPC   C2B15064   6.502   1.203   6.521  0.0898 -0.1507  0.1024
 1019YOPC   D3B15065   6.756   1.643   6.469  0.0439 -0.1662  0.4354
 1019YOPC   C4B15066   6.835   1.828   6.816  0.0102 -0.1781 -0.1043
 1020YOPC   NC315067  13.919  16.818   5.865 -0.1977 -0.0878 -0.3079
 1020YOPC   PO415068  13.692  17.189   5.985  0.1398  0.1691  0.0334
 1020YOPC   GL115069  13.624  17.048   6.343  0.1242  0.1256  0.0026
 1020YOPC   GL215070  13.686  16.746   6.329  0.0746  0.2017  0.0431
 1020YOPC   C1A15071  13.393  16.884   6.831 -0.1749  0.1135 -0.1253
 1020YOPC   D2A15072  13.452  16.937   7.247 -0.1149 -0.2158  0.0353
 1020YOPC   C3A15073  13.382  16.525   7.459 -0.1269  0.0367  0.0151
 1020YOPC   C4A15074  13.391  16.159   7.777 -0.1095  0.0981 -0.0620
 1020YOPC   C1B15075  13.830  16.690   6.635 -0.1350 -0.2356 -0.2371
 1020YOPC   C2B15076  13.770  16.633   7.051  0.1949  0.2599  0.2028
 1020YOPC   D3B15077  13.865  16.212   7.085  0.0805 -0.3651  0.0070
 1020YOPC   C4B15078  13.685  16.013   7.438  0.0003 -0.0963  0.3284
 1021YOPC   NC315079   8.657   9.791   5.256 -0.0095 -0.0991  0.2482
 1021YOPC   PO415080   8.330  10.155   5.233  0.1445 -0.1100 -0.0436
 1021YOPC   GL115081   8.522  10.181   5.659  0.1514 -0.0804  0.1025
 1021YOPC   GL215082   8.828  10.137   5.681  0.0384 -0.0261  0.1570
 1021YOPC   C1A15083   8.351  10.120   6.097 -0.2174  0.2271  0.5218
 1021YOPC   D2A15084   8.382   9.891   6.491  0.0546  0.0515  0.1851
 1021YOPC   C3A15085   8.237   9.495   6.573  0.0607  0.1587  0.3087
 1021YOPC   C4A15086   8.274   9.263   6.900 -0.1533 -0.1654 -0.1721
 1021YOPC   C1B15087   8.840  10.093   6.153 -0.4541  0.2054  0.0542
 1021YOPC   C2B15088   8.863  10.114   6.569  0.1369  0.0932 -0.1064
 1021YOPC   D3B15089   8.470  10.177   6.910  0.1550 -0.1372  0.0922
 1021YOPC   C4B15090   8.112  10.153   7.299 -0.0485 -0.0378  0.1803
 1022YOPC   NC315091  13.036   5.555   5.399 -0.2952  0.0283  0.0628
 1022YOPC   PO415092  13.427   5.368   5.465  0.0988  0.1387 -0.1404
 1022YOPC   GL115093  13.398   5.046   5.743 -0.0595 -0.0110 -0.1991
 1022YOPC   GL215094  13.717   5.141   5.919  0.0410  0.1330  0.0532
 1022YOPC   C1A15095  13.305   4.647   5.927 -0.0329  0.2214 -0.2722
 1022YOPC   D2A15096  13.476   4.235   6.082 -0.2425 -0.0148  0.0526
 1022YOPC   C3A15097  13.536   4.252   6.513  0.0666 -0.2078  0.1458
 1022YOPC   C4A15098  13.706   4.101   6.941  0.0027 -0.0205 -0.3319
 1022YOPC   C1B15099  13.518   4.962   6.246  0.3015  0.0682  0.0674
 1022YOPC   C2B15100  13.308   4.775   6.481 -0.2005 -0.0437 -0.1551
 1022YOPC   D3B15101  13.296   4.953   6.920  0.0053 -0.1648  0.1333
 1022YOPC   C4B15102  13.229   5.280   7.126 -0.1872  0.1913  0.2682
 1023YOPC   NC315103  13.008  15.494   5.415 -0.0158 -0.1990 -0.0781
 1023YOPC   PO415104  13.413  15.582   5.541  0.0671  0.0585 -0.2803
 1023YOPC   GL115105  13.411  15.478   5.969 -0.1426 -0.0464 -0.1589
 1023YOPC   GL215106  13.045  15.542   5.915 -0.0802 -0.0218 -0.1787
 1023YOPC   C1A15107  13.504  15.352   6.355  0.0330 -0.1737  0.4207
 1023YOPC   D2A15108  13.426  15.344   6.816 -0.3410  0.0751  0.0940
 1023YOPC   C3A15109  13.411  14.932   6.986  0.1323 -0.2160 -0.0956
 1023YOPC   C4A15110  13.406  14.679   7.403  0.0935  0.2207  0.2057
 1023YOPC   C1B15111  13.036  15.536   6.365 -0.1445 -0.2268 -0.0211
 1023YOPC   C2B15112  13.022  15.748   6.681  0.2592 -0.1089 -0.1848
 1023YOPC   D3B15113  13.119  16.102   6.745  0.1098  0.5063 -0.1180
 1023YOPC   C4B15114  13.364  16.355   6.985  0.1523 -0.1950  0.0196
 1024YOPC   NC315115  13.740   4.000   5.226 -0.2098 -0.0775 -0.0665
 1024YOPC   PO415116  13.929   3.661   5.352  0.0927  0.0382  0.0919
 1024YOPC   GL115117  13.950   3.500   5.786  0.2504 -0.2336  0.1900
 1024YOPC   GL215118  13.928   3.215   5.822  0.4076  0.0988 -0.2622
 1024YOPC   C1A15119  14.135   3.767   6.140 -0.1378  0.1016  0.0204
 1024YOPC   D2A15120  13.981   3.857   6.458 -0.0013 -0.0414 -0.0031
 1024YOPC   C3A15121  14.041   3.688   6.878  0.3397  0.0231 -0.2149
 1024YOPC   C4A15122  14.115   3.893   7.128 -0.2537 -0.0680 -0.0265
 1024YOPC   C1B15123  13.798   3.424   6.276  0.1360 -0.2486  0.0405
 1024YOPC   C2B15124  13.631   3.443   6.607 -0.1167  0.2812  0.1206
 1024YOPC   D3B15125  13.612   3.011   6.778 -0.1357 -0.0313  0.1650
 1024YOPC   C4B15126  13.542   2.593   6.652 -0.0571  0.0934  0.2805
 1025YOPC   NC315127  15.655  14.964   5.600  0.3318 -0.0939 -0.0276
 1025YOPC   PO415128  16.082  14.700   5.687  0.1104 -0.3362  0.2832
 1025YOPC   GL115129  16.161  14.764   6.167 -0.0542  0.1476 -0.1075
 1025YOPC   GL215130  15.933  14.597   6.237  0.0037  0.1788  0.1113
 1025YOPC   C1A15131  16.196  15.216   6.290  0.0294  0.0603 -0.1489
 1025YOPC   D2A15132  16.374  15.659   6.415  0.2597 -0.1549  0.1023
 1025YOPC   C3A15133  16.269  15.885   6.726 -0.0302 -0.1078  0.1149
 1025YOPC   C4A15134  15.964  15.860   7.019  0.0121  0.2020 -0.1258
 1025YOPC   C1B15135  15.970  14.742   6.712 -0.0250  0.1041 -0.1761
 1025YOPC   C2B15136  16.278  14.558   7.025 -0.3336  0.0821 -0.0274
 1025YOPC   D3B15137  16.713  14.449   7.017  0.1388 -0.1317  0.2225
 1025YOPC   C4B15138  17.076  14.438   7.374 -0.0473 -0.1403  0.2333
 1026YOPC   NC315139   0.437   3.333   5.113 -0.0439 -0.0755 -0.3856
 1026YOPC   PO415140   0.962   3.195   5.183  0.0241  0.0243 -0.0921
 1026YOPC   GL115141   1.038   3.278   5.643  0.0181 -0.3827  0.2130
 1026YOPC   GL215142   1.270   3.297   5.783  0.0050 -0.0367 -0.1959
 1026YOPC   C1A15143   0.844   3.422   6.081 -0.5663 -0.0290 -0.0529
 1026YOPC   D2A15144   0.838   3.285   6.464 -0.0609  0.0786 -0.2228
 1026YOPC   C3A15145   0.798   3.467   6.857  0.1680 -0.3364  0.1464
 1026YOPC   C4A15146   0.818   3.574   7.330  0.1595 -0.0467 -0.2519
 1026YOPC   C1B15147   1.341   3.594   6.112 -0.3768 -0.2034 -0.3072
 1026YOPC   C2B15148   1.406   3.764   6.537 -0.4507 -0.1168  0.0474
 1026YOPC   D3B15149   1.409   3.458   6.901  0.2348  0.2484 -0.0770
 1026YOPC   C4B15150   1.162   3.192   7.126 -0.2741 -0.0172 -0.0024
 1027YOPC   NC315151   2.719   5.500   5.107 -0.1631 -0.1031 -0.0927
 1027YOPC   PO415152   3.131   5.336   4.990  0.1253  0.0740 -0.1090
 1027YOPC   GL115153   3.098   5.421   5.481 -0.0083 -0.2679 -0.3855
 1027YOPC   GL215154   3.486   5.471   5.652  0.0255  0.0877  0.1234
 1027YOPC   C1A15155   2.969   5.162   5.799 -0.1447 -0.0554  0.1550
 1027YOPC   D2A15156   2.762   4.923   6.112  0.4091  0.1634  0.1810
 1027YOPC   C3A15157   2.746   5.116   6.486 -0.4143 -0.2720  0.3098
 1027YOPC   C4A15158   2.588   5.029   6.947 -0.1672 -0.1163 -0.3706
 1027YOPC   C1B15159   3.585   5.280   6.121 -0.0876 -0.0445  0.0377
 1027YOPC   C2B15160   3.745   5.012   6.392 -0.1149  0.1141 -0.0314
 1027YOPC   D3B15161   3.910   5.104   6.809 -0.3205 -0.1975 -0.1333
 1027YOPC   C4B15162   3.957   5.451   7.061  0.3112  0.0996  0.1705
 1028YOPC   NC315163  16.699  10.950   5.374  0.2414 -0.0130 -0.2116
 1028YOPC   PO415164  16.489  10.440   5.419  0.1415  0.0072  0.1724
 1028YOPC   GL115165  16.481  10.671   5.758  0.1915 -0.0019  0.0918
 1028YOPC   GL215166  16.210  10.624   5.929  0.2747  0.1782 -0.1413
 1028YOPC   C1A15167  16.512  10.986   6.105  0.1317  0.0885  0.0813
 1028YOPC   D2A15168  16.227  11.006   6.489 -0.1542  0.0865  0.0032
 1028YOPC   C3A15169  16.454  11.190   6.823 -0.0853 -0.0012  0.2370
 1028YOPC   C4A15170  16.586  11.652   6.888 -0.0937  0.0207  0.1045
 1028YOPC   C1B15171  16.164  10.591   6.321  0.0817  0.1339  0.2112
 1028YOPC   C2B15172  15.847  10.520   6.579 -0.2006  0.3148 -0.0638
 1028YOPC   D3B15173  15.999  10.521   6.927 -0.1204  0.0591 -0.1993
 1028YOPC   C4B15174  16.106  10.889   7.056  0.1060  0.0171  0.1597
 1029YOPC   NC315175   2.745  17.655   5.111  0.0205 -0.0234 -0.0416
 1029YOPC   PO415176   2.966  18.042   5.228  0.3502 -0.0975  0.2166
 1029YOPC   GL115177   2.958  18.008   5.619  0.2383 -0.4845  0.0816
 1029YOPC   GL215178   2.759  18.233   5.735 -0.1186  0.0555  0.1123
 1029YOPC   C1A15179   3.083  17.877   6.069  0.4228  0.2648  0.0945
 1029YOPC   D2A15180   3.165  17.995   6.468 -0.1718  0.3446 -0.0543
 1029YOPC   C3A15181   3.272  17.679   6.762 -0.2366 -0.2629 -0.0187
 1029YOPC   C4A15182   3.324  17.245   6.782 -0.0725 -0.1883  0.1723
 1029YOPC   C1B15183   2.546  18.421   6.127 -0.1751 -0.1273  0.1889
 1029YOPC   C2B15184   2.798  18.331   6.543  0.0810  0.0039  0.4391
 1029YOPC   D3B15185   2.716  18.283   6.929  0.0970  0.0746  0.0991
 1029YOPC   C4B15186   2.828  18.362   7.347 -0.2893 -0.1004 -0.1026
 1030YOPC   NC315187  13.257  11.220   4.707  0.1026  0.0182 -0.1858
 1030YOPC   PO415188  13.110  11.603   4.860 -0.0498 -0.1364 -0.2134
 1030YOPC   GL115189  13.042  11.594   5.389 -0.0020 -0.3274 -0.2376
 1030YOPC   GL215190  13.291  11.750   5.682 -0.0183 -0.0243 -0.0217
 1030YOPC   C1A15191  12.829  11.635   5.764 -0.2486  0.0618  0.1716
 1030YOPC   D2A15192  12.767  11.828   6.198  0.0125  0.0992 -0.1551
 1030YOPC   C3A15193  12.834  11.468   6.351 -0.1162  0.1881  0.0931
 1030YOPC   C4A15194  12.832  11.358   6.818 -0.1076  0.4720 -0.1296
 1030YOPC   C1B15195  13.222  11.982   6.048  0.0659  0.2552  0.0063
 1030YOPC   C2B15196  13.171  12.154   6.456 -0.1352  0.0335 -0.1550
 1030YOPC   D3B15197  13.208  11.788   6.648  0.2098  0.2798 -0.0100
 1030YOPC   C4B15198  13.159  11.575   7.081 -0.3203 -0.0577  0.0313
 1031YOPC   NC315199  13.395   8.285   5.267 -0.0108 -0.2453  0.0336
 1031YOPC   PO415200  13.640   7.964   5.204  0.2014  0.2561 -0.0475
 1031YOPC   GL115201  13.407   7.798   5.598  0.0648 -0.1737  0.1643
 1031YOPC   GL215202  13.648   7.993   5.707  0.1660  0.2223 -0.3223
 1031YOPC   C1A15203  13.183   7.758   5.978 -0.1173 -0.0525 -0.1875
 1031YOPC   D2A15204  13.031   7.543   6.304  0.0256 -0.1346 -0.0750
 1031YOPC   C3A15205  13.039   7.687   6.726 -0.2009 -0.3293 -0.2267
 1031YOPC   C4A15206  13.173   7.960   6.974 -0.0165  0.0640 -0.2350
 1031YOPC   C1B15207  13.675   7.879   6.100 -0.0876  0.0068  0.0369
 1031YOPC   C2B15208  13.384   7.887   6.429  0.1867 -0.1091 -0.2431
 1031YOPC   D3B15209  13.558   7.723   6.762  0.0521  0.2817  0.2184
 1031YOPC   C4B15210  13.493   7.743   7.245 -0.0069  0.1120 -0.3054
 1032YOPC   NC315211  17.341   6.562   5.246 -0.1840  0.0454 -0.1861
 1032YOPC   PO415212  17.551   7.026   5.407 -0.0206  0.1763  0.0193
 1032YOPC   GL115213  17.616   7.093   5.829 -0.0895  0.0854  0.0967
 1032YOPC   GL215214  17.251   7.070   5.917 -0.2556  0.0630 -0.0551
 1032YOPC   C1A15215  17.893   7.054   6.151  0.0787  0.0402 -0.1198
 1032YOPC   D2A15216  17.618   7.091   6.624 -0.3197 -0.0441 -0.2103
 1032YOPC   C3A15217  17.639   6.746   6.946  0.1748  0.2935 -0.0037
 1032YOPC   C4A15218  17.732   6.667   7.315 -0.1458 -0.0827  0.2082
 1032YOPC   C1B15219  17.366   6.810   6.194  0.2263 -0.0256  0.2236
 1032YOPC   C2B15220  17.343   6.642   6.524 -0.2197 -0.4787 -0.1542
 1032YOPC   D3B15221  17.164   6.338   6.830 -0.1109 -0.0212  0.0844
 1032YOPC   C4B15222  17.200   5.897   6.894  0.1091  0.0631  0.0758
 1033YOPC   NC315223  10.667  18.999   5.303 -0.0507  0.0710 -0.0379
 1033YOPC   PO415224  10.528  19.421   5.461  0.3134  0.0535 -0.2891
 1033YOPC   GL115225  10.456  19.544   5.873 -0.2601  0.0990  0.2988
 1033YOPC   GL215226  10.206  19.413   5.972 -0.1778 -0.1661  0.0694
 1033YOPC   C1A15227  10.582  19.596   6.287  0.0793 -0.0478  0.3131
 1033YOPC   D2A15228  10.651  19.742   6.734 -0.0739  0.2694 -0.1008
 1033YOPC   C3A15229  10.467  19.512   7.043 -0.0264  0.1382  0.1601
 1033YOPC   C4A15230  10.332  19.438   7.459 -0.2546 -0.0222  0.0247
 1033YOPC   C1B15231  10.133  19.090   6.265  0.0224 -0.1129  0.1397
 1033YOPC   C2B15232   9.858  18.839   6.459 -0.0975  0.0552  0.2099
 1033YOPC   D3B15233   9.979  18.961   6.829  0.0521  0.0763  0.1497
 1033YOPC   C4B15234  10.153  19.158   7.164  0.0089  0.0562  0.4168
 1034YOPC   NC315235   2.292   7.436   5.438  0.0772 -0.1020 -0.1495
 1034YOPC   PO415236   2.662   7.420   5.489  0.0291 -0.2573 -0.2013
 1034YOPC   GL115237   2.733   7.231   5.750  0.2879 -0.4652 -0.0242
 1034YOPC   GL215238   3.009   7.119   5.790  0.2511  0.0202  0.0017
 1034YOPC   C1A15239   2.580   6.873   5.911 -0.3970 -0.0826 -0.1378
 1034YOPC   D2A15240   2.204   6.682   5.911  0.4433  0.1227 -0.3172
 1034YOPC   C3A15241   2.170   6.263   5.848 -0.0211 -0.0440  0.0623
 1034YOPC   C4A15242   2.399   5.913   5.979 -0.1417 -0.0629  0.0376
 1034YOPC   C1B15243   2.925   7.121   6.194  0.0410 -0.0797  0.0859
 1034YOPC   C2B15244   2.807   7.068   6.641  0.0050  0.0940  0.1270
 1034YOPC   D3B15245   2.557   7.492   6.679 -0.3307 -0.0213  0.0033
 1034YOPC   C4B15246   2.397   7.798   6.724  0.4828 -0.0785  0.1942
 1035YOPC   NC315247  16.282   8.313   5.291 -0.4569 -0.0779 -0.1019
 1035YOPC   PO415248  15.978   8.510   5.186 -0.0220 -0.2230 -0.0095
 1035YOPC   GL115249  15.960   8.486   5.624 -0.4558  0.0854  0.0118
 1035YOPC   GL215250  16.082   8.799   5.852 -0.3867 -0.2099  0.0742
 1035YOPC   C1A15251  15.668   8.517   6.000 -0.0011  0.4763 -0.2567
 1035YOPC   D2A15252  15.545   8.886   6.184  0.0294  0.0960 -0.1131
 1035YOPC   C3A15253  14.961   8.930   6.272  0.0878  0.0200  0.2881
 1035YOPC   C4A15254  14.576   8.667   6.230 -0.2752 -0.2722 -0.0999
 1035YOPC   C1B15255  15.777   9.077   5.779  0.0043 -0.2184 -0.0500
 1035YOPC   C2B15256  15.550   9.347   6.032 -0.0261  0.0030  0.0721
 1035YOPC   D3B15257  15.622   9.762   6.264 -0.0550  0.0231 -0.2310
 1035YOPC   C4B15258  15.890  10.144   6.185 -0.1956  0.0702 -0.0008
 1036YOPC   NC315259   5.791   6.049   5.043  0.1040 -0.0029 -0.2113
 1036YOPC   PO415260   5.578   6.491   5.077  0.1736 -0.0118  0.0588
 1036YOPC   GL115261   5.820   6.447   5.420 -0.2603  0.2688 -0.1126
 1036YOPC   GL215262   5.606   6.484   5.616  0.1760  0.0887  0.1079
 1036YOPC   C1A15263   6.079   6.249   5.741  0.1481  0.1076 -0.2390
 1036YOPC   D2A15264   6.373   6.217   6.175 -0.0775  0.0724 -0.1822
 1036YOPC   C3A15265   6.406   6.557   6.509  0.5818 -0.1293 -0.1293
 1036YOPC   C4A15266   6.650   6.985   6.430 -0.0401  0.0579  0.1063
 1036YOPC   C1B15267   5.418   6.724   6.015  0.0396 -0.0508  0.0902
 1036YOPC   C2B15268   5.497   6.744   6.444  0.0652  0.0405 -0.1429
 1036YOPC   D3B15269   5.917   6.813   6.629 -0.2730  0.1395  0.1740
 1036YOPC   C4B15270   6.193   6.667   6.973  0.2829  0.0878  0.0032
 1037YOPC   NC315271   9.889   7.316   4.711  0.5427 -0.1599 -0.0348
 1037YOPC   PO415272   9.980   7.713   4.818  0.0913 -0.2078  0.3522
 1037YOPC   GL115273  10.037   7.419   5.187 -0.0150 -0.0646 -0.2300
 1037YOPC   GL215274  10.313   7.133   5.250  0.1755  0.0224  0.1647
 1037YOPC   C1A15275   9.858   7.455   5.624  0.3876  0.0096 -0.3006
 1037YOPC   D2A15276  10.125   7.330   5.939  0.0903  0.0039  0.1662
 1037YOPC   C3A15277  10.005   7.490   6.266  0.2157  0.0253  0.0687
 1037YOPC   C4A15278   9.777   7.729   6.524  0.0920  0.0161 -0.2054
 1037YOPC   C1B15279  10.071   6.931   5.693  0.0721 -0.0010 -0.2321
 1037YOPC   C2B15280  10.122   6.508   5.881 -0.1608 -0.0298  0.2852
 1037YOPC   D3B15281   9.850   6.308   5.852  0.0587  0.3225  0.1397
 1037YOPC   C4B15282   9.672   5.921   5.563  0.0644 -0.2155  0.1717
 1038YOPC   NC315283   8.992   6.783   4.969  0.1104  0.0419 -0.2361
 1038YOPC   PO415284   8.526   6.874   4.999  0.1102 -0.1886 -0.0126
 1038YOPC   GL115285   8.669   7.016   5.433 -0.1326  0.3823 -0.0494
 1038YOPC   GL215286   8.759   7.324   5.503 -0.0852 -0.1534 -0.0952
 1038YOPC   C1A15287   8.569   6.713   5.671  0.0805 -0.1769  0.1349
 1038YOPC   D2A15288   8.305   6.779   6.055  0.1517 -0.0314 -0.0295
 1038YOPC   C3A15289   8.533   6.656   6.414  0.0764 -0.1537 -0.6011
 1038YOPC   C4A15290   8.795   6.318   6.657  0.0663  0.0926 -0.1474
 1038YOPC   C1B15291   8.443   7.344   5.813 -0.0829  0.0359  0.0113
 1038YOPC   C2B15292   8.434   7.310   6.234  0.0823  0.0459  0.1732
 1038YOPC   D3B15293   8.435   7.464   6.689 -0.1194  0.2514 -0.3206
 1038YOPC   C4B15294   8.421   7.833   6.969  0.0476 -0.2342 -0.2724
 1039YOPC   NC315295  10.029   6.372   4.768  0.4682  0.1269 -0.1443
 1039YOPC   PO415296   9.854   6.860   4.932  0.1595  0.4556  0.2643
 1039YOPC   GL115297   9.962   6.646   5.276 -0.2074  0.0908  0.0977
 1039YOPC   GL215298   9.899   6.252   5.254  0.0930 -0.3060  0.0559
 1039YOPC   C1A15299  10.369   6.611   5.456 -0.2667 -0.0177  0.0786
 1039YOPC   D2A15300  10.685   6.340   5.724  0.2039  0.2990 -0.1155
 1039YOPC   C3A15301  10.505   6.319   6.114  0.4997 -0.2624 -0.3476
 1039YOPC   C4A15302  10.197   6.376   6.391  0.0989 -0.6660  0.2035
 1039YOPC   C1B15303   9.561   6.368   5.462  0.1797  0.0023 -0.0137
 1039YOPC   C2B15304   9.258   6.766   5.425 -0.1394 -0.0135 -0.0465
 1039YOPC   D3B15305   9.071   6.779   5.780 -0.0366 -0.0292  0.1638
 1039YOPC   C4B15306   8.791   7.005   6.103  0.0122 -0.3419  0.0370
 1040YOPC   NC315307  13.340  13.006   5.108  0.2923  0.0067 -0.0479
 1040YOPC   PO415308  12.897  12.798   5.255 -0.0861 -0.0605 -0.0770
 1040YOPC   GL115309  12.783  12.807   5.720 -0.0855  0.2574 -0.0324
 1040YOPC   GL215310  12.377  12.795   5.589  0.1111 -0.2734 -0.1059
 1040YOPC   C1A15311  13.023  12.996   6.042  0.0719 -0.4161 -0.0467
 1040YOPC   D2A15312  13.136  12.835   6.441 -0.3537 -0.1883  0.0704
 1040YOPC   C3A15313  12.969  12.519   6.716 -0.0627  0.0734  0.0485
 1040YOPC   C4A15314  12.871  12.165   6.906 -0.2552  0.1565  0.1317
 1040YOPC   C1B15315  12.419  12.656   6.070  0.1046  0.0089 -0.0335
 1040YOPC   C2B15316  12.683  12.659   6.303  0.1011  0.1680 -0.0119
 1040YOPC   D3B15317  12.859  12.380   6.140 -0.1476  0.0927  0.2394
 1040YOPC   C4B15318  12.837  12.154   5.738  0.1565 -0.1689 -0.0074
 1041YOPC   NC315319  16.690   7.383   5.112  0.2535  0.2648 -0.3025
 1041YOPC   PO415320  16.345   7.353   4.975  0.1831 -0.1445 -0.0877
 1041YOPC   GL115321  16.205   7.202   5.336  0.0063  0.2126  0.0281
 1041YOPC   GL215322  15.881   7.030   5.338 -0.2093 -0.0445 -0.0283
 1041YOPC   C1A15323  16.231   7.223   5.764  0.2626  0.1263 -0.1461
 1041YOPC   D2A15324  16.249   7.086   6.112  0.0307  0.1763  0.3059
 1041YOPC   C3A15325  15.959   6.877   6.380 -0.2252  0.1365  0.0744
 1041YOPC   C4A15326  15.708   6.673   6.665 -0.3360  0.0640  0.1066
 1041YOPC   C1B15327  15.920   6.777   5.703 -0.0096 -0.0554  0.1114
 1041YOPC   C2B15328  15.752   6.600   6.094 -0.2729 -0.1416  0.2012
 1041YOPC   D3B15329  15.385   6.361   6.228  0.1250 -0.0443  0.1106
 1041YOPC   C4B15330  15.109   6.085   6.441 -0.3385 -0.0986  0.5167
 1042YOPC   NC315331  10.729  15.013   4.948 -0.0475  0.2836 -0.0124
 1042YOPC   PO415332  10.889  14.622   5.019 -0.1883  0.1198  0.0810
 1042YOPC   GL115333  11.101  14.481   5.467 -0.1348 -0.1887  0.1244
 1042YOPC   GL215334  11.420  14.651   5.568 -0.0702 -0.1557 -0.0209
 1042YOPC   C1A15335  10.965  14.303   5.810 -0.0041  0.1100  0.2141
 1042YOPC   D2A15336  11.015  14.215   6.274 -0.0895 -0.3381  0.1545
 1042YOPC   C3A15337  10.663  14.115   6.348  0.0040  0.0669  0.2432
 1042YOPC   C4A15338  10.273  14.005   6.329  0.0208 -0.1113  0.3621
 1042YOPC   C1B15339  11.303  14.628   6.037 -0.3821  0.1424 -0.0032
 1042YOPC   C2B15340  11.436  14.463   6.458  0.1921  0.0118  0.0085
 1042YOPC   D3B15341  11.215  14.524   6.780  0.0459  0.2909  0.1330
 1042YOPC   C4B15342  11.197  14.585   7.119 -0.0491  0.3886  0.0443
 1043YOPC   NC315343   8.172   6.462   4.969 -0.0174  0.1309 -0.3614
 1043YOPC   PO415344   8.090   5.983   4.939  0.1143  0.1402 -0.0914
 1043YOPC   GL115345   7.789   6.230   5.208 -0.2572 -0.0589 -0.0746
 1043YOPC   GL215346   7.394   6.190   5.242  0.1375 -0.2158 -0.1868
 1043YOPC   C1A15347   7.807   6.312   5.587 -0.1553  0.1461 -0.0572
 1043YOPC   D2A15348   7.832   6.448   6.068 -0.0856  0.0555 -0.4241
 1043YOPC   C3A15349   8.247   6.316   6.300 -0.0927  0.1102 -0.2094
 1043YOPC   C4A15350   8.323   6.261   6.705  0.0644  0.2669 -0.2378
 1043YOPC   C1B15351   7.113   6.005   5.470 -0.2046 -0.1024  0.0288
 1043YOPC   C2B15352   6.801   5.746   5.597  0.0415 -0.2973  0.0139
 1043YOPC   D3B15353   6.980   5.570   5.966  0.1056  0.2516  0.1368
 1043YOPC   C4B15354   7.132   5.524   6.361 -0.1675  0.2868 -0.2366
 1044YOPC   NC315355   5.369   2.669   5.471  0.1465  0.4592  0.3686
 1044YOPC   PO415356   5.844   2.776   5.435  0.0674  0.1608 -0.0730
 1044YOPC   GL115357   6.114   2.739   5.835  0.0047 -0.3446 -0.3743
 1044YOPC   GL215358   6.387   2.708   5.891 -0.0398 -0.1544  0.2765
 1044YOPC   C1A15359   5.910   2.765   6.221 -0.0906  0.0231 -0.0472
 1044YOPC   D2A15360   5.739   2.593   6.563 -0.0467 -0.0552 -0.1996
 1044YOPC   C3A15361   5.961   2.679   6.924 -0.3732 -0.0794 -0.0910
 1044YOPC   C4A15362   5.942   2.994   7.300 -0.0022  0.3436  0.2581
 1044YOPC   C1B15363   6.671   2.357   6.098  0.1085 -0.0548 -0.1285
 1044YOPC   C2B15364   6.817   2.163   6.412  0.0044 -0.0212  0.0538
 1044YOPC   D3B15365   6.890   2.455   6.808  0.0595 -0.1654 -0.0366
 1044YOPC   C4B15366   6.894   2.452   7.240 -0.0807  0.2882  0.0654
 1045YOPC   NC315367  10.651   3.897   4.888 -0.1119  0.0415  0.0244
 1045YOPC   PO415368  10.309   3.763   5.161  0.1555  0.1545  0.0543
 1045YOPC   GL115369  10.360   3.796   5.655  0.0729  0.3944 -0.1089
 1045YOPC   GL215370  10.083   3.894   5.848  0.3012 -0.2398 -0.3318
 1045YOPC   C1A15371  10.612   3.784   6.036  0.0467 -0.0867 -0.3424
 1045YOPC   D2A15372  10.963   3.806   6.306 -0.1340  0.1168 -0.0005
 1045YOPC   C3A15373  10.932   3.769   6.843  0.3542 -0.1018 -0.1558
 1045YOPC   C4A15374  11.311   3.739   7.076 -0.0695  0.0251 -0.4411
 1045YOPC   C1B15375  10.081   3.769   6.172 -0.0583  0.0115 -0.2593
 1045YOPC   C2B15376  10.048   3.879   6.561 -0.2061  0.0937  0.0021
 1045YOPC   D3B15377   9.946   3.681   6.891 -0.0346 -0.0640  0.1503
 1045YOPC   C4B15378  10.032   3.431   7.190 -0.1657  0.2858  0.3085
 1046YOPC   NC315379  18.805  16.647   5.026 -0.5028  0.1657 -0.2506
 1046YOPC   PO415380  18.539  16.422   5.392 -0.5214 -0.0871  0.2149
 1046YOPC   GL115381  18.861  16.241   5.718  0.2906  0.2031  0.1322
 1046YOPC   GL215382  19.038  15.995   5.662 -0.1321  0.2050  0.1773
 1046YOPC   C1A15383  19.108  16.049   6.139  0.1690  0.2122 -0.1512
 1046YOPC   D2A15384  19.184  16.062   6.628  0.1288 -0.3373  0.0926
 1046YOPC   C3A15385  18.917  16.308   6.895  0.2383 -0.2574 -0.3865
 1046YOPC   C4A15386  18.762  16.249   7.319  0.2311 -0.1189  0.4193
 1046YOPC   C1B15387  19.192  15.565   5.832  0.0288 -0.0333  0.1085
 1046YOPC   C2B15388  18.975  15.100   5.934 -0.0138  0.1729 -0.2448
 1046YOPC   D3B15389  18.894  14.716   6.167 -0.1677  0.0438  0.0022
 1046YOPC   C4B15390  19.164  14.419   6.470 -0.1608 -0.0925 -0.2293
 1047YOPC   NC315391   5.011  19.136   4.439 -0.2489 -0.0935 -0.3454
 1047YOPC   PO415392   4.997  19.196   4.877 -0.0738  0.1374  0.1574
 1047YOPC   GL115393   4.985  19.229   5.291 -0.0846  0.1414 -0.0274
 1047YOPC   GL215394   4.919  19.533   5.465 -0.1241 -0.0444 -0.0002
 1047YOPC   C1A15395   4.958  18.965   5.567  0.2567  0.1631 -0.1033
 1047YOPC   D2A15396   4.789  18.933   5.947  0.0165  0.1103  0.1646
 1047YOPC   C3A15397   4.395  18.704   5.935  0.2343  0.1601  0.1122
 1047YOPC   C4A15398   3.899  18.752   5.837 -0.2421  0.0008  0.0361
 1047YOPC   C1B15399   4.756  19.431   5.867 -0.0474 -0.2025 -0.2831
 1047YOPC   C2B15400   4.594  19.597   6.136  0.2518 -0.2624 -0.1741
 1047YOPC   D3B15401   4.490  20.011   6.206 -0.0320  0.3670  0.1533
 1047YOPC   C4B15402   4.587  20.426   6.416 -0.0151 -0.0742  0.2565
 1048YOPC   NC315403   9.206   9.337   4.648  0.2430  0.0401  0.1679
 1048YOPC   PO415404   9.247   9.082   5.029 -0.0885 -0.2569  0.0754
 1048YOPC   GL115405   9.301   8.970   5.341 -0.2773  0.0536 -0.4629
 1048YOPC   GL215406   9.634   8.973   5.320 -0.3098 -0.0142  0.0879
 1048YOPC   C1A15407   9.263   8.617   5.738 -0.2378  0.1119  0.1073
 1048YOPC   D2A15408   9.158   8.438   6.116 -0.1007 -0.0469 -0.0139
 1048YOPC   C3A15409   8.966   8.074   6.145  0.0877 -0.2380 -0.4415
 1048YOPC   C4A15410   8.879   7.670   5.910 -0.0113  0.3473  0.0499
 1048YOPC   C1B15411   9.710   8.855   5.785  0.1038  0.3727  0.0020
 1048YOPC   C2B15412   9.847   9.001   6.194 -0.0884 -0.0085 -0.2814
 1048YOPC   D3B15413   9.706   9.191   6.556 -0.0048 -0.3681 -0.0641
 1048YOPC   C4B15414   9.750   9.289   6.987 -0.2174 -0.2404 -0.2060
 1049YOPC   NC315415   3.297  10.575   5.066  0.0303 -0.1357 -0.1159
 1049YOPC   PO415416   3.597  10.397   5.306  0.1767 -0.0959 -0.1397
 1049YOPC   GL115417   3.525  10.506   5.755  0.0131  0.0678 -0.0430
 1049YOPC   GL215418   3.703  10.786   5.870  0.2109  0.1049  0.0955
 1049YOPC   C1A15419   3.468  10.399   6.154 -0.0773 -0.1261 -0.1232
 1049YOPC   D2A15420   3.446  10.680   6.566  0.2416 -0.1726 -0.0180
 1049YOPC   C3A15421   3.684  10.508   6.912  0.0622  0.3313 -0.0864
 1049YOPC   C4A15422   3.655  10.312   7.347  0.0503 -0.1171 -0.0335
 1049YOPC   C1B15423   3.818  10.944   6.287  0.2257 -0.1499 -0.2391
 1049YOPC   C2B15424   3.726  11.146   6.718 -0.0928 -0.0998  0.0610
 1049YOPC   D3B15425   3.995  11.381   6.916  0.1479  0.0116  0.3556
 1049YOPC   C4B15426   4.082  11.607   7.340  0.0963 -0.1085 -0.4037
 1050YOPC   NC315427  17.176   1.861   5.566 -0.1134  0.0924 -0.3308
 1050YOPC   PO415428  17.173   2.255   5.419 -0.0460 -0.2267  0.3069
 1050YOPC   GL115429  17.414   2.348   5.721  0.0255  0.0580 -0.2538
 1050YOPC   GL215430  17.761   2.501   5.659  0.2132  0.1550 -0.0767
 1050YOPC   C1A15431  17.406   2.350   6.131  0.2591 -0.1235  0.1158
 1050YOPC   D2A15432  17.331   2.413   6.471  0.1960  0.0511 -0.2315
 1050YOPC   C3A15433  17.340   2.860   6.729 -0.0628  0.0235 -0.1415
 1050YOPC   C4A15434  17.650   3.195   6.779  0.0662  0.2392  0.0650
 1050YOPC   C1B15435  17.886   2.286   6.047  0.1366 -0.3932  0.3350
 1050YOPC   C2B15436  17.756   2.143   6.436  0.2012 -0.1523  0.1152
 1050YOPC   D3B15437  17.683   2.249   6.814 -0.2419 -0.0119 -0.2963
 1050YOPC   C4B15438  17.277   2.301   6.952 -0.0231  0.0320  0.0307
 1051YOPC   NC315439   6.814  18.562   5.236  0.2365  0.1178  0.2242
 1051YOPC   PO415440   6.975  18.924   5.294 -0.1113 -0.0697 -0.3112
 1051YOPC   GL115441   6.642  19.055   5.676  0.0486  0.1211 -0.4651
 1051YOPC   GL215442   6.629  18.768   5.829 -0.2261  0.2029  0.3042
 1051YOPC   C1A15443   6.328  19.274   5.723  0.1871 -0.3211 -0.0308
 1051YOPC   D2A15444   6.071  19.410   6.010  0.2171  0.0638  0.0914
 1051YOPC   C3A15445   6.207  19.545   6.309 -0.2396  0.2271 -0.0188
 1051YOPC   C4A15446   6.516  19.542   6.601  0.1805  0.0492 -0.0058
 1051YOPC   C1B15447   6.412  19.050   6.175  0.2424 -0.0604 -0.2029
 1051YOPC   C2B15448   5.978  19.103   6.469  0.2411  0.1722 -0.0765
 1051YOPC   D3B15449   5.992  18.795   6.846 -0.0021  0.1519  0.0244
 1051YOPC   C4B15450   5.794  18.589   7.226 -0.3488  0.0548  0.1054
 1052YOPC   NC315451  17.096  17.466   5.726 -0.3299 -0.3410 -0.3318
 1052YOPC   PO415452  17.537  17.673   5.923 -0.1398  0.0770  0.0454
 1052YOPC   GL115453  17.580  17.214   6.155  0.0713  0.4227 -0.2099
 1052YOPC   GL215454  17.873  17.017   6.205  0.1729  0.1985 -0.2075
 1052YOPC   C1A15455  17.285  16.895   6.421 -0.0358 -0.2120  0.1588
 1052YOPC   D2A15456  17.353  16.979   6.850  0.2652 -0.0491 -0.2855
 1052YOPC   C3A15457  17.401  17.042   7.333  0.1691  0.1328  0.2455
 1052YOPC   C4A15458  17.327  17.279   7.764  0.2500  0.0090  0.2527
 1052YOPC   C1B15459  17.824  17.071   6.651 -0.1727  0.1778 -0.1125
 1052YOPC   C2B15460  17.875  17.023   7.058  0.0069 -0.2602 -0.0297
 1052YOPC   D3B15461  18.272  16.898   7.324 -0.2303 -0.2551 -0.0273
 1052YOPC   C4B15462  18.495  16.622   7.295 -0.2457  0.1979  0.2999
 1053YOPC   NC315463  11.931  10.009   4.899 -0.0522  0.1668  0.1889
 1053YOPC   PO415464  12.312   9.853   5.059 -0.2829  0.1774 -0.2945
 1053YOPC   GL115465  12.337   9.884   5.537  0.0197 -0.1053 -0.3132
 1053YOPC   GL215466  12.575   9.866   5.692  0.0658 -0.1397  0.2011
 1053YOPC   C1A15467  12.028   9.956   5.939  0.0106 -0.3014 -0.0028
 1053YOPC   D2A15468  11.932   9.629   6.289 -0.1514  0.0991 -0.0597
 1053YOPC   C3A15469  11.619   9.789   6.630  0.2710  0.1381  0.3893
 1053YOPC   C4A15470  11.218   9.522   6.684 -0.0613  0.0643  0.1784
 1053YOPC   C1B15471  12.460   9.892   6.049 -0.2101  0.2336  0.0251
 1053YOPC   C2B15472  12.450   9.704   6.500  0.2466  0.2183  0.0517
 1053YOPC   D3B15473  12.094   9.771   6.731 -0.1215  0.2973 -0.1051
 1053YOPC   C4B15474  11.856   9.766   7.137  0.2204  0.2186  0.1211
 1054YOPC   NC315475  12.455  10.918   4.847  0.2051 -0.0585 -0.2063
 1054YOPC   PO415476  12.602  10.658   5.155  0.1161 -0.2656 -0.0126
 1054YOPC   GL115477  12.789  10.819   5.545  0.2702 -0.2629  0.1036
 1054YOPC   GL215478  12.563  11.107   5.575  0.2035 -0.2187 -0.2618
 1054YOPC   C1A15479  13.070  10.780   5.940  0.1245 -0.2898 -0.0671
 1054YOPC   D2A15480  12.876  10.814   6.417 -0.1790  0.0569  0.2981
 1054YOPC   C3A15481  13.059  10.773   6.689 -0.3487  0.4320 -0.0272
 1054YOPC   C4A15482  13.231  11.052   6.929  0.2447 -0.0953 -0.4045
 1054YOPC   C1B15483  12.639  11.109   5.982 -0.2888  0.3838  0.2076
 1054YOPC   C2B15484  12.313  11.025   6.275 -0.1730  0.1061  0.3866
 1054YOPC   D3B15485  12.463  10.855   6.648  0.2513  0.0472 -0.0731
 1054YOPC   C4B15486  12.736  10.819   7.027  0.0197  0.2162 -0.3852
 1055YOPC   NC315487  11.493   0.052   5.486 -0.2066 -0.0857 -0.5155
 1055YOPC   PO415488  11.923   0.291   5.640 -0.0894 -0.0129 -0.0173
 1055YOPC   GL115489  11.742   0.322   5.979 -0.0685  0.2020 -0.1971
 1055YOPC   GL215490  11.919   0.275   6.198  0.0299  0.2781 -0.0095
 1055YOPC   C1A15491  11.489   0.283   6.310  0.0211 -0.4582 -0.0815
 1055YOPC   D2A15492  11.495   0.205   6.714 -0.0820  0.1682 -0.0599
 1055YOPC   C3A15493  11.151  -0.085   6.961  0.0542  0.0893 -0.3393
 1055YOPC   C4A15494  10.754  -0.160   7.086 -0.2587 -0.1532  0.1619
 1055YOPC   C1B15495  11.998   0.206   6.579 -0.2681 -0.1462 -0.3520
 1055YOPC   C2B15496  12.378   0.126   6.980  0.1575  0.2458  0.1391
 1055YOPC   D3B15497  12.434  -0.247   7.220  0.2077 -0.1153  0.3208
 1055YOPC   C4B15498  12.229  -0.543   7.514  0.5576 -0.2872  0.2588
 1056YOPC   NC315499   1.615   2.579   5.141 -0.2008  0.0520  0.0387
 1056YOPC   PO415500   1.965   2.393   5.312  0.0267  0.2742 -0.1725
 1056YOPC   GL115501   1.915   2.261   5.738 -0.1483 -0.1006 -0.2643
 1056YOPC   GL215502   2.082   2.128   6.013  0.1202 -0.1876 -0.0451
 1056YOPC   C1A15503   1.562   2.261   5.996  0.0286  0.1050  0.2200
 1056YOPC   D2A15504   1.447   2.173   6.356  0.1775 -0.1092  0.0766
 1056YOPC   C3A15505   1.220   2.599   6.383 -0.0454 -0.1035  0.0367
 1056YOPC   C4A15506   0.874   2.765   6.745  0.0013 -0.3257  0.1730
 1056YOPC   C1B15507   1.984   2.211   6.568  0.1429  0.0182 -0.0653
 1056YOPC   C2B15508   2.243   2.171   6.879 -0.0916 -0.1201 -0.0225
 1056YOPC   D3B15509   2.069   1.908   7.080 -0.0728  0.0694  0.6580
 1056YOPC   C4B15510   1.674   1.911   7.393  0.1894 -0.1566 -0.1822
 1057YOPC   NC315511   1.202   2.001   4.696  0.0435 -0.3258 -0.0666
 1057YOPC   PO415512   1.291   2.143   5.060 -0.0787 -0.1711  0.2058
 1057YOPC   GL115513   1.244   2.537   5.426  0.4535 -0.2467  0.1228
 1057YOPC   GL215514   1.003   2.773   5.432  0.0430  0.1402 -0.1074
 1057YOPC   C1A15515   1.311   2.722   5.874 -0.1539  0.3237  0.1412
 1057YOPC   D2A15516   1.310   3.066   6.188  0.1763  0.0608  0.1472
 1057YOPC   C3A15517   1.286   2.991   6.688 -0.1027 -0.3563  0.1272
 1057YOPC   C4A15518   1.608   2.938   6.985  0.0068  0.0331 -0.0532
 1057YOPC   C1B15519   0.829   2.399   5.712 -0.1354 -0.1202  0.0729
 1057YOPC   C2B15520   0.932   2.369   6.071 -0.2533  0.0062  0.2531
 1057YOPC   D3B15521   0.942   1.941   6.173  0.1646  0.1052 -0.1407
 1057YOPC   C4B15522   0.542   1.695   6.375 -0.0119  0.2201 -0.3130
 1058YOPC   NC315523  19.170   3.311   4.955  0.2383  0.0599  0.3516
 1058YOPC   PO415524  18.899   3.350   5.248 -0.0875 -0.1438 -0.0970
 1058YOPC   GL115525  18.884   2.936   5.500  0.1612  0.1811  0.0917
 1058YOPC   GL215526  18.696   2.851   5.714  0.0998 -0.2984 -0.0533
 1058YOPC   C1A15527  19.120   2.619   5.801  0.2420 -0.4807  0.0299
 1058YOPC   D2A15528  19.259   2.481   6.170 -0.2299  0.1330 -0.4028
 1058YOPC   C3A15529  19.398   2.326   6.535 -0.3213  0.0931  0.3023
 1058YOPC   C4A15530  19.554   2.034   6.913 -0.1375  0.2652 -0.2332
 1058YOPC   C1B15531  18.742   2.736   6.187  0.4393  0.3648  0.2951
 1058YOPC   C2B15532  18.884   2.528   6.445  0.2578  0.1556 -0.0650
 1058YOPC   D3B15533  18.802   2.643   6.900 -0.1664 -0.0003 -0.0595
 1058YOPC   C4B15534  18.933   2.408   7.224 -0.0194 -0.0840 -0.0858
 1059YOPC   NC315535  14.056  12.062   5.250  0.1059  0.3051 -0.1264
 1059YOPC   PO415536  14.480  12.320   5.231  0.3115  0.0990 -0.2922
 1059YOPC   GL115537  14.498  12.141   5.620  0.1964 -0.1549  0.0512
 1059YOPC   GL215538  14.211  12.066   5.770 -0.0211  0.2514  0.1595
 1059YOPC   C1A15539  14.633  11.933   6.042  0.3095 -0.0171 -0.4664
 1059YOPC   D2A15540  14.934  11.950   6.432  0.1437 -0.0344  0.4818
 1059YOPC   C3A15541  14.804  12.158   6.839 -0.2249 -0.0825  0.1226
 1059YOPC   C4A15542  15.005  12.224   7.177  0.0436 -0.0718 -0.2612
 1059YOPC   C1B15543  14.054  12.279   6.050 -0.1540  0.1487 -0.1031
 1059YOPC   C2B15544  14.174  12.288   6.323  0.0823  0.0526 -0.2130
 1059YOPC   D3B15545  14.129  12.575   6.593 -0.0065  0.1955  0.1268
 1059YOPC   C4B15546  14.260  12.850   6.936  0.1500  0.1192 -0.1171
 1060YOPC   NC315547  17.763   3.017   5.338  0.1341 -0.0212 -0.0945
 1060YOPC   PO415548  18.015   2.696   5.274 -0.2098  0.0783 -0.2027
 1060YOPC   GL115549  18.126   2.847   5.648  0.3029  0.1023  0.0954
 1060YOPC   GL215550  18.308   2.531   5.738  0.0652 -0.3567 -0.2985
 1060YOPC   C1A15551  18.130   2.941   6.102  0.1125 -0.3007 -0.2868
 1060YOPC   D2A15552  17.814   2.842   6.439  0.0652 -0.0370 -0.0105
 1060YOPC   C3A15553  17.910   2.768   6.775  0.1488  0.0513  0.0231
 1060YOPC   C4A15554  18.168   2.348   6.833 -0.0034 -0.1772 -0.3609
 1060YOPC   C1B15555  18.688   2.381   5.891 -0.1315  0.2908  0.0961
 1060YOPC   C2B15556  18.972   2.096   5.975  0.1487 -0.1777 -0.2377
 1060YOPC   D3B15557  18.983   2.006   6.335 -0.0078 -0.1389 -0.3061
 1060YOPC   C4B15558  19.287   1.755   6.522  0.0098  0.2833 -0.1878
 1061YOPC   NC315559  13.417  14.157   5.043 -0.3827  0.1113  0.0341
 1061YOPC   PO415560  13.132  14.358   5.310 -0.1997 -0.0709 -0.0762
 1061YOPC   GL115561  13.221  14.413   5.800 -0.1143  0.4734 -0.1325
 1061YOPC   GL215562  13.029  14.149   5.780 -0.1770 -0.2116 -0.0329
 1061YOPC   C1A15563  13.329  14.494   6.225 -0.0140  0.2812  0.2026
 1061YOPC   D2A15564  13.278  14.520   6.734 -0.0237  0.1559  0.1323
 1061YOPC   C3A15565  13.271  14.253   7.151 -0.1771  0.0363  0.1865
 1061YOPC   C4A15566  13.500  13.899   7.427  0.0755  0.2220  0.2897
 1061YOPC   C1B15567  12.830  14.130   6.189  0.0123 -0.0284  0.0183
 1061YOPC   C2B15568  12.754  13.888   6.544  0.4103 -0.0252  0.0998
 1061YOPC   D3B15569  12.391  14.032   6.754  0.0964  0.1819 -0.0939
 1061YOPC   C4B15570  12.407  14.496   6.969 -0.0847  0.0615 -0.3219
 1062YOPC   NC315571  17.662   3.414   5.622  0.0036 -0.0966  0.1255
 1062YOPC   PO415572  17.335   3.230   5.577 -0.1068  0.2880 -0.1458
 1062YOPC   GL115573  16.981   3.187   5.836  0.0089 -0.0994  0.1077
 1062YOPC   GL215574  17.113   2.926   6.127 -0.0997 -0.0443  0.0894
 1062YOPC   C1A15575  16.859   3.293   6.249 -0.1410 -0.2477 -0.2074
 1062YOPC   D2A15576  16.896   3.486   6.702  0.0034 -0.1787  0.3245
 1062YOPC   C3A15577  17.242   3.448   6.982  0.1327 -0.2423  0.2396
 1062YOPC   C4A15578  17.565   3.574   7.083 -0.0746 -0.1311 -0.0885
 1062YOPC   C1B15579  17.344   3.220   6.316  0.1942 -0.2837 -0.0921
 1062YOPC   C2B15580  17.419   3.524   6.492 -0.1490 -0.0833 -0.2323
 1062YOPC   D3B15581  17.177   3.847   6.396  0.0659 -0.0772  0.1814
 1062YOPC   C4B15582  16.811   4.106   6.485  0.2029  0.1261  0.3411
 1063YOPC   NC315583   0.522  17.841   5.239  0.1945  0.0395  0.0687
 1063YOPC   PO415584   0.106  17.893   5.167  0.2806 -0.0516 -0.0179
 1063YOPC   GL115585  -0.045  17.808   5.595  0.0802 -0.2007  0.4622
 1063YOPC   GL215586   0.235  17.516   5.661 -0.0475 -0.1600 -0.2044
 1063YOPC   C1A15587   0.059  17.911   6.048  0.3010 -0.1100 -0.1373
 1063YOPC   D2A15588  -0.041  18.083   6.459 -0.3032 -0.0693  0.0967
 1063YOPC   C3A15589   0.250  18.447   6.671 -0.2471  0.1756  0.1738
 1063YOPC   C4A15590   0.572  18.523   6.963 -0.2976 -0.0425 -0.1566
 1063YOPC   C1B15591   0.117  17.257   5.940  0.2434  0.0296  0.0843
 1063YOPC   C2B15592   0.214  17.008   6.198 -0.1000  0.2607 -0.3033
 1063YOPC   D3B15593   0.200  17.115   6.657  0.2016 -0.2670  0.0233
 1063YOPC   C4B15594   0.066  17.135   7.053 -0.2003 -0.1490 -0.2435
 1064YOPC   NC315595   1.587   8.512   4.873  0.0372 -0.1203 -0.0859
 1064YOPC   PO415596   1.548   8.866   5.130 -0.0600 -0.2125 -0.0136
 1064YOPC   GL115597   1.296   8.987   5.498  0.1774  0.3174  0.3682
 1064YOPC   GL215598   0.965   8.973   5.482 -0.2264 -0.0823  0.2324
 1064YOPC   C1A15599   1.239   8.835   5.945 -0.1095 -0.1778  0.3741
 1064YOPC   D2A15600   0.829   8.788   6.241  0.1663 -0.0314  0.0783
 1064YOPC   C3A15601   0.608   8.568   6.499 -0.1106 -0.1656 -0.0155
 1064YOPC   C4A15602   0.436   8.383   6.880 -0.2109 -0.1266  0.1209
 1064YOPC   C1B15603   0.781   8.738   5.744 -0.2684  0.0941  0.0774
 1064YOPC   C2B15604   0.479   8.448   5.906 -0.0142  0.4194  0.0763
 1064YOPC   D3B15605   0.729   8.035   5.885  0.4267 -0.0443  0.1261
 1064YOPC   C4B15606   0.847   7.687   6.239 -0.0023 -0.2289  0.1367
 1065YOPC   NC315607  16.421   9.408   5.315 -0.1598  0.1100  0.0784
 1065YOPC   PO415608  16.794   9.201   5.442 -0.4147  0.1672  0.1384
 1065YOPC   GL115609  16.575   9.061   5.880 -0.2389 -0.0606 -0.1245
 1065YOPC   GL215610  16.391   9.211   6.135 -0.1441  0.2621  0.0206
 1065YOPC   C1A15611  16.468   8.714   6.184 -0.0373 -0.1024 -0.1005
 1065YOPC   D2A15612  16.136   8.650   6.385 -0.2939  0.1606  0.1399
 1065YOPC   C3A15613  16.120   8.840   6.787  0.0008  0.0292 -0.1995
 1065YOPC   C4A15614  16.066   9.234   6.918  0.0242 -0.0875 -0.3036
 1065YOPC   C1B15615  16.016   9.219   6.399 -0.4109 -0.0882 -0.0275
 1065YOPC   C2B15616  15.602   9.304   6.562  0.0957  0.0952 -0.0589
 1065YOPC   D3B15617  15.582   9.128   6.954  0.0021 -0.1954  0.0916
 1065YOPC   C4B15618  15.448   8.707   7.173 -0.3830 -0.2181 -0.1543
 1066YOPC   NC315619  14.239   4.633   5.000  0.0184 -0.2187 -0.2213
 1066YOPC   PO415620  13.810   4.608   5.082 -0.0501 -0.2649  0.2509
 1066YOPC   GL115621  13.804   4.457   5.500  0.3037 -0.1232  0.2380
 1066YOPC   GL215622  14.195   4.589   5.547 -0.2391 -0.2852 -0.0979
 1066YOPC   C1A15623  13.859   4.670   5.867 -0.0538  0.0330  0.2173
 1066YOPC   D2A15624  13.946   4.461   6.169  0.3532 -0.1937 -0.2804
 1066YOPC   C3A15625  13.875   4.595   6.480  0.0136  0.3245  0.1485
 1066YOPC   C4A15626  13.720   4.707   6.917  0.0220 -0.2792  0.1849
 1066YOPC   C1B15627  14.412   4.694   5.975  0.1099  0.2995 -0.4355
 1066YOPC   C2B15628  14.595   4.786   6.381  0.2323  0.2550  0.0879
 1066YOPC   D3B15629  14.906   5.114   6.392  0.1554  0.1689 -0.2199
 1066YOPC   C4B15630  15.007   5.607   6.461  0.4178 -0.1931  0.1145
 1067YOPC   NC315631   7.722   1.677   4.829  0.1018 -0.2050  0.0245
 1067YOPC   PO415632   7.799   1.521   5.206  0.3304  0.2056 -0.0817
 1067YOPC   GL115633   7.866   1.588   5.567  0.0743  0.2307 -0.1366
 1067YOPC   GL215634   7.978   1.352   5.780 -0.0397 -0.0461 -0.1162
 1067YOPC   C1A15635   8.092   1.831   5.944  0.3269  0.1021  0.0380
 1067YOPC   D2A15636   8.132   1.834   6.405  0.1266 -0.0518  0.1548
 1067YOPC   C3A15637   7.853   1.792   6.608 -0.3773 -0.0550  0.2255
 1067YOPC   C4A15638   7.712   1.493   6.888  0.1072  0.2690  0.0788
 1067YOPC   C1B15639   8.256   1.254   6.094 -0.2225  0.4451 -0.2136
 1067YOPC   C2B15640   8.464   1.458   6.423  0.1481 -0.0921  0.1008
 1067YOPC   D3B15641   8.569   1.809   6.580  0.1544 -0.1872  0.2050
 1067YOPC   C4B15642   8.854   2.094   6.656 -0.1630  0.0294 -0.0101
 1068YOPC   NC315643   6.117  10.039   5.038  0.0358 -0.0431  0.0288
 1068YOPC   PO415644   6.526   9.887   5.229 -0.1350  0.0732 -0.1581
 1068YOPC   GL115645   6.867   9.812   5.401  0.1953 -0.2041 -0.0591
 1068YOPC   GL215646   7.011   9.458   5.464  0.1902 -0.1444 -0.2509
 1068YOPC   C1A15647   7.085   9.845   5.810  0.1318  0.1193 -0.1696
 1068YOPC   D2A15648   7.374   9.513   5.945  0.3980 -0.1601 -0.0875
 1068YOPC   C3A15649   7.483   9.386   6.375 -0.0297 -0.1181  0.4072
 1068YOPC   C4A15650   7.618   9.640   6.737  0.0078 -0.1639 -0.0708
 1068YOPC   C1B15651   6.963   9.363   5.838  0.2546 -0.2097  0.1145
 1068YOPC   C2B15652   7.041   9.163   6.277  0.0609 -0.1230  0.2426
 1068YOPC   D3B15653   7.095   9.439   6.695  0.1912 -0.0041 -0.0870
 1068YOPC   C4B15654   7.194   9.700   7.019 -0.1684  0.0204 -0.2444
 1069YOPC   NC315655   9.763   8.125   5.070 -0.0233 -0.0556 -0.1374
 1069YOPC   PO415656   9.307   8.050   5.020  0.1948 -0.0695  0.2072
 1069YOPC   GL115657   9.111   7.772   5.138 -0.1666  0.0573  0.0752
 1069YOPC   GL215658   8.869   7.811   5.352 -0.0328 -0.2164  0.2033
 1069YOPC   C1A15659   9.226   7.568   5.538  0.0268 -0.0272  0.1162
 1069YOPC   D2A15660   9.170   7.270   5.881 -0.3947 -0.5814  0.1075
 1069YOPC   C3A15661   9.149   7.357   6.324  0.0946 -0.1963 -0.0013
 1069YOPC   C4A15662   9.269   7.732   6.533  0.0097 -0.3439 -0.0163
 1069YOPC   C1B15663   8.687   8.121   5.727 -0.2783  0.0633 -0.2095
 1069YOPC   C2B15664   8.724   8.540   5.706  0.1835 -0.1315 -0.1545
 1069YOPC   D3B15665   8.675   8.821   5.986  0.0254  0.1588 -0.0750
 1069YOPC   C4B15666   8.558   9.239   6.261  0.2638  0.2291  0.0404
 1070YOPC   NC315667  16.206  18.730   5.402  0.0756 -0.2991  0.0748
 1070YOPC   PO415668  15.775  18.849   5.614  0.0509 -0.2154  0.1075
 1070YOPC   GL115669  15.940  19.036   6.053  0.3053  0.1393  0.0104
 1070YOPC   GL215670  15.855  18.738   6.252  0.1631  0.3526 -0.2441
 1070YOPC   C1A15671  16.167  19.378   6.362  0.1807  0.2353 -0.2679
 1070YOPC   D2A15672  16.557  19.775   6.421 -0.0895 -0.2608 -0.1609
 1070YOPC   C3A15673  16.902  19.652   6.422 -0.1307  0.1062 -0.2009
 1070YOPC   C4A15674  17.330  19.578   6.299  0.0096  0.2868 -0.4711
 1070YOPC   C1B15675  15.717  18.989   6.516  0.0535  0.3370 -0.3408
 1070YOPC   C2B15676  15.530  19.150   6.943 -0.0698  0.3741  0.1342
 1070YOPC   D3B15677  15.217  19.253   6.822  0.5806  0.0544 -0.0092
 1070YOPC   C4B15678  15.020  19.510   6.625  0.0922  0.0142 -0.0440
 1071YOPC   NC315679  18.103   0.775   5.681 -0.3177  0.0074  0.3393
 1071YOPC   PO415680  18.286   1.208   5.548  0.1834 -0.2918 -0.0182
 1071YOPC   GL115681  18.494   1.423   5.791 -0.0778  0.0239 -0.1078
 1071YOPC   GL215682  18.554   1.148   5.980 -0.1792 -0.0239  0.2369
 1071YOPC   C1A15683  18.602   1.671   6.209  0.2371 -0.2420  0.1219
 1071YOPC   D2A15684  18.763   1.686   6.650 -0.1039  0.2395 -0.0451
 1071YOPC   C3A15685  18.657   1.854   7.118 -0.3107 -0.0351  0.0804
 1071YOPC   C4A15686  18.523   2.151   7.455  0.1426  0.2225 -0.1193
 1071YOPC   C1B15687  18.902   1.250   6.352 -0.1535 -0.1335 -0.3325
 1071YOPC   C2B15688  19.066   1.253   6.738 -0.1067 -0.0293 -0.4293
 1071YOPC   D3B15689  18.782   1.252   7.061 -0.2083  0.1163  0.1224
 1071YOPC   C4B15690  18.675   1.089   7.406  0.0396  0.0991  0.0865
 1072YOPC   NC315691   7.227  11.925   4.850 -0.0544  0.0712 -0.0608
 1072YOPC   PO415692   7.117  11.523   5.129  0.0869 -0.1815  0.0085
 1072YOPC   GL115693   7.068  11.640   5.543 -0.2401  0.2322  0.0078
 1072YOPC   GL215694   7.047  11.404   5.752 -0.1581  0.1943  0.0711
 1072YOPC   C1A15695   7.306  11.920   5.743  0.1162 -0.0281 -0.0175
 1072YOPC   D2A15696   7.671  11.934   6.106  0.0158  0.0752 -0.4191
 1072YOPC   C3A15697   8.060  11.993   6.147 -0.0933  0.2263 -0.1655
 1072YOPC   C4A15698   8.305  12.128   6.518 -0.0672  0.1701 -0.2598
 1072YOPC   C1B15699   7.268  11.600   6.109  0.0243 -0.0892  0.1668
 1072YOPC   C2B15700   7.382  11.724   6.537 -0.2822  0.2849  0.0069
 1072YOPC   D3B15701   7.148  11.779   6.861  0.2092 -0.2756  0.0173
 1072YOPC   C4B15702   7.070  12.226   7.011 -0.0531  0.0854  0.3267
 1073YOPC   NC315703  12.352  12.680   5.077 -0.0087  0.2015 -0.0636
 1073YOPC   PO415704  12.001  12.960   5.055  0.1357 -0.2125  0.0246
 1073YOPC   GL115705  11.875  12.737   5.490  0.0697 -0.0959  0.2004
 1073YOPC   GL215706  11.615  12.901   5.506  0.2193 -0.2384 -0.0017
 1073YOPC   C1A15707  11.960  12.593   5.858 -0.2669  0.2099  0.0513
 1073YOPC   D2A15708  11.924  12.628   6.316 -0.1846  0.0205 -0.0746
 1073YOPC   C3A15709  12.023  12.306   6.652  0.4311  0.0757 -0.2273
 1073YOPC   C4A15710  11.812  12.102   6.924  0.3694  0.0818  0.0215
 1073YOPC   C1B15711  11.557  12.837   5.945  0.3441 -0.0624 -0.0265
 1073YOPC   C2B15712  11.454  12.938   6.358 -0.1258  0.1584 -0.1182
 1073YOPC   D3B15713  11.127  13.165   6.544 -0.1025  0.0005  0.0519
 1073YOPC   C4B15714  10.773  12.967   6.739 -0.3328  0.0928 -0.1626
 1074YOPC   NC315715  10.447  16.606   5.329  0.0158 -0.1294  0.0173
 1074YOPC   PO415716  10.888  16.749   5.380  0.0110  0.1623 -0.0584
 1074YOPC   GL115717  11.173  16.409   5.632 -0.0132  0.0856 -0.1498
 1074YOPC   GL215718  10.980  16.096   5.557 -0.0570 -0.1324 -0.0868
 1074YOPC   C1A15719  11.236  16.218   5.991 -0.0695  0.0702  0.1812
 1074YOPC   D2A15720  11.218  16.150   6.415 -0.0145 -0.3559 -0.3672
 1074YOPC   C3A15721  11.038  16.186   6.920 -0.0753 -0.0615 -0.0891
 1074YOPC   C4A15722  11.125  15.990   7.332 -0.1733  0.0871 -0.1340
 1074YOPC   C1B15723  10.625  15.849   5.781  0.3367  0.0833  0.0235
 1074YOPC   C2B15724  10.204  15.895   6.006  0.0430 -0.0657  0.3502
 1074YOPC   D3B15725  10.068  15.884   6.429  0.1798 -0.0523 -0.3231
 1074YOPC   C4B15726  10.234  15.797   6.845 -0.1960 -0.1414  0.1389
 1075YOPC   NC315727  12.331   4.356   4.841  0.2078  0.2431  0.0809
 1075YOPC   PO415728  12.209   3.942   5.134  0.0362  0.0453 -0.1255
 1075YOPC   GL115729  12.329   4.025   5.642 -0.1762  0.0720  0.2694
 1075YOPC   GL215730  12.067   4.081   5.735  0.2609 -0.1092 -0.1606
 1075YOPC   C1A15731  12.510   4.222   5.935 -0.0641  0.1000  0.2283
 1075YOPC   D2A15732  12.486   4.633   6.220 -0.0872 -0.3496  0.0269
 1075YOPC   C3A15733  12.854   4.864   6.157 -0.3197  0.0593 -0.0780
 1075YOPC   C4A15734  13.068   5.268   6.004 -0.3093 -0.3986  0.2854
 1075YOPC   C1B15735  12.038   4.444   5.949  0.0569 -0.1376 -0.0747
 1075YOPC   C2B15736  12.047   4.583   6.381  0.0355 -0.0784 -0.0047
 1075YOPC   D3B15737  12.085   4.514   6.798  0.1576  0.2380 -0.1896
 1075YOPC   C4B15738  12.399   4.777   7.061  0.0247 -0.0060 -0.1619
 1076YOPC   NC315739  11.576   0.736   5.818 -0.0558  0.1893  0.2575
 1076YOPC   PO415740  11.291   0.436   5.666  0.0634 -0.3004 -0.0843
 1076YOPC   GL115741  11.074   0.484   5.984 -0.2518 -0.0847  0.4633
 1076YOPC   GL215742  11.135   0.832   6.041 -0.1534  0.1898 -0.3040
 1076YOPC   C1A15743  11.050   0.358   6.462  0.1995  0.0974  0.2556
 1076YOPC   D2A15744  11.095   0.419   6.926 -0.2454 -0.0390 -0.0253
 1076YOPC   C3A15745  11.484   0.584   7.255  0.1066  0.1701  0.2862
 1076YOPC   C4A15746  11.884   0.606   7.558  0.2327 -0.1175 -0.1061
 1076YOPC   C1B15747  11.341   0.846   6.463 -0.1243  0.0628 -0.1555
 1076YOPC   C2B15748  11.389   0.976   6.942 -0.1365 -0.0003 -0.0311
 1076YOPC   D3B15749  11.071   1.226   7.251  0.2082 -0.0301 -0.2364
 1076YOPC   C4B15750  10.707   1.423   7.522 -0.1430 -0.1888  0.0347
 1077YOPC   NC315751  12.595   8.271   5.543 -0.0054 -0.4435  0.1549
 1077YOPC   PO415752  12.994   8.618   5.509  0.0506  0.0159  0.3818
 1077YOPC   GL115753  13.089   8.826   5.915  0.1756 -0.2520  0.2079
 1077YOPC   GL215754  13.303   9.128   5.762  0.2149  0.0455 -0.2865
 1077YOPC   C1A15755  12.986   8.810   6.402  0.0729  0.0815  0.1925
 1077YOPC   D2A15756  12.629   8.763   6.693 -0.5017  0.1081  0.2171
 1077YOPC   C3A15757  12.535   8.761   7.140 -0.0263  0.1558  0.1026
 1077YOPC   C4A15758  12.596   9.115   7.431  0.3149  0.0536  0.1535
 1077YOPC   C1B15759  13.343   9.371   6.102 -0.2298 -0.2750 -0.1384
 1077YOPC   C2B15760  13.614   9.607   6.382 -0.1955 -0.0377  0.0104
 1077YOPC   D3B15761  13.511   9.903   6.667  0.2145  0.3036 -0.2320
 1077YOPC   C4B15762  13.621   9.768   7.151 -0.0987  0.1997  0.0640
 1078YOPC   NC315763  13.165  16.630   5.221  0.0029 -0.2922 -0.2211
 1078YOPC   PO415764  13.141  16.430   5.622  0.3616  0.1657  0.1786
 1078YOPC   GL115765  13.279  16.266   6.105  0.1074 -0.0071 -0.0106
 1078YOPC   GL215766  13.240  15.980   6.216  0.0041 -0.0960  0.3785
 1078YOPC   C1A15767  13.523  16.291   6.527  0.3015 -0.0202  0.0702
 1078YOPC   D2A15768  13.958  16.142   6.608  0.0702  0.2626 -0.1680
 1078YOPC   C3A15769  14.292  16.121   6.426 -0.3559  0.1252  0.2570
 1078YOPC   C4A15770  14.508  15.741   6.463 -0.5098 -0.1023 -0.4544
 1078YOPC   C1B15771  13.492  15.792   6.608  0.0003 -0.0689 -0.0318
 1078YOPC   C2B15772  13.402  15.801   7.059  0.0855  0.0504  0.0846
 1078YOPC   D3B15773  13.149  15.494   7.333 -0.0866  0.0871  0.3318
 1078YOPC   C4B15774  12.925  15.024   7.463  0.0319  0.2019 -0.0763
 1079YOPC   NC315775   9.832  14.448   5.244  0.1731 -0.0840 -0.0006
 1079YOPC   PO415776  10.189  14.730   5.459 -0.0072  0.1082 -0.1144
 1079YOPC   GL115777  10.303  14.711   5.825 -0.0980 -0.0612  0.1152
 1079YOPC   GL215778  10.218  14.502   6.106  0.1038 -0.1669  0.2363
 1079YOPC   C1A15779  10.390  14.935   6.267 -0.0989 -0.4027  0.0512
 1079YOPC   D2A15780  10.482  14.956   6.708  0.2585  0.1135 -0.0079
 1079YOPC   C3A15781  10.639  15.369   6.870  0.0047  0.0243  0.1575
 1079YOPC   C4A15782  10.792  15.736   7.064  0.0277 -0.2226 -0.3084
 1079YOPC   C1B15783  10.373  14.486   6.497  0.0612  0.0308 -0.0139
 1079YOPC   C2B15784  10.699  14.447   6.784 -0.0774 -0.1450 -0.1709
 1079YOPC   D3B15785  10.998  14.107   6.759 -0.1464  0.2183 -0.2869
 1079YOPC   C4B15786  11.052  13.717   6.449 -0.0175 -0.1058 -0.0709
 1080YOPC   NC315787   1.882  12.556   4.869 -0.0965 -0.2480  0.0439
 1080YOPC   PO415788   2.339  12.500   4.904  0.0352 -0.0513 -0.1661
 1080YOPC   GL115789   2.416  12.652   5.265  0.0533 -0.1588 -0.0069
 1080YOPC   GL215790   2.108  12.797   5.312  0.0350  0.0204 -0.0500
 1080YOPC   C1A15791   2.486  12.974   5.582 -0.1949 -0.1262  0.1244
 1080YOPC   D2A15792   2.837  13.041   5.843  0.1796  0.1150  0.2338
 1080YOPC   C3A15793   2.723  13.028   6.186 -0.1046 -0.3389  0.0621
 1080YOPC   C4A15794   2.845  12.744   6.432  0.0962 -0.1965  0.2503
 1080YOPC   C1B15795   2.078  12.664   5.679  0.2156  0.0396  0.2608
 1080YOPC   C2B15796   1.744  12.608   5.882  0.0615 -0.0775 -0.1104
 1080YOPC   D3B15797   1.888  12.677   6.303  0.2184  0.0509 -0.0636
 1080YOPC   C4B15798   1.801  12.644   6.668 -0.2434 -0.0402 -0.2742
 1081YOPC   NC315799   0.265   0.860   5.594 -0.4285  0.1952 -0.0146
 1081YOPC   PO415800   0.694   0.895   5.665 -0.0013 -0.1846 -0.0016
 1081YOPC   GL115801   0.495   0.823   6.030 -0.0119  0.1994  0.0064
 1081YOPC   GL215802   0.180   0.622   6.039 -0.1293  0.0203  0.1097
 1081YOPC   C1A15803   0.379   0.813   6.513  0.4698  0.1695 -0.2260
 1081YOPC   D2A15804   0.353   0.607   6.956  0.1649 -0.3342  0.2190
 1081YOPC   C3A15805   0.661   0.665   7.307  0.0731  0.0846 -0.0429
 1081YOPC   C4A15806   1.039   0.868   7.188 -0.2822 -0.1457  0.2963
 1081YOPC   C1B15807   0.184   0.374   6.406  0.1377 -0.1230  0.1259
 1081YOPC   C2B15808  -0.003   0.333   6.741  0.1750 -0.2984  0.4181
 1081YOPC   D3B15809   0.211   0.143   7.158 -0.3520  0.3246  0.1653
 1081YOPC   C4B15810   0.587   0.294   7.551  0.0887  0.0684 -0.2580
 1082YOPC   NC315811  17.312  13.496   4.861  0.1660  0.0573  0.0117
 1082YOPC   PO415812  17.489  13.154   5.096 -0.2475  0.1180  0.3814
 1082YOPC   GL115813  17.399  13.089   5.466 -0.2714 -0.2647 -0.2082
 1082YOPC   GL215814  17.650  13.228   5.624  0.3116 -0.0927  0.3344
 1082YOPC   C1A15815  16.962  13.133   5.723  0.0963 -0.3484  0.2657
 1082YOPC   D2A15816  16.641  13.010   5.854  0.0474  0.0678  0.0205
 1082YOPC   C3A15817  16.626  12.905   6.293 -0.3433  0.3353  0.0788
 1082YOPC   C4A15818  16.350  13.143   6.535  0.1971  0.0344 -0.2165
 1082YOPC   C1B15819  17.360  13.263   5.973 -0.4167 -0.3713  0.1807
 1082YOPC   C2B15820  16.994  13.285   6.299  0.3698  0.1865 -0.3400
 1082YOPC   D3B15821  16.636  13.425   6.123 -0.1588 -0.1811  0.3358
 1082YOPC   C4B15822  16.255  13.655   6.310 -0.1538 -0.3887 -0.0634
 1083YOPC   NC315823  15.987   3.172   5.016 -0.2045  0.1111 -0.0035
 1083YOPC   PO415824  15.691   3.268   5.323  0.1631 -0.0897 -0.0896
 1083YOPC   GL115825  15.634   3.288   5.743 -0.0189  0.0956  0.0265
 1083YOPC   GL215826  15.429   2.912   5.755  0.2644 -0.1098  0.1312
 1083YOPC   C1A15827  15.904   3.358   5.957  0.1514 -0.0835  0.1581
 1083YOPC   D2A15828  16.131   3.338   6.339 -0.1031 -0.2138 -0.4522
 1083YOPC   C3A15829  16.260   3.291   6.695 -0.1496 -0.1322  0.1363
 1083YOPC   C4A15830  16.481   3.276   7.037 -0.2474  0.4392 -0.0033
 1083YOPC   C1B15831  15.428   3.131   6.178  0.1602  0.0496 -0.0579
 1083YOPC   C2B15832  15.648   2.947   6.494 -0.1519 -0.1888 -0.3158
 1083YOPC   D3B15833  15.603   2.730   6.811 -0.1320 -0.1477  0.3120
 1083YOPC   C4B15834  15.787   2.643   7.118  0.1725 -0.1808 -0.0697
 1084YOPC   NC315835  17.802  18.133   5.695  0.0514 -0.0524  0.1837
 1084YOPC   PO415836  17.454  18.414   5.612 -0.0364 -0.1886 -0.1277
 1084YOPC   GL115837  17.533  18.398   6.082  0.0675 -0.3086 -0.1426
 1084YOPC   GL215838  17.300  18.576   6.149 -0.1324  0.4103  0.0366
 1084YOPC   C1A15839  17.483  18.206   6.497 -0.2846 -0.1863  0.0436
 1084YOPC   D2A15840  17.288  17.921   6.737  0.3503  0.3155  0.2454
 1084YOPC   C3A15841  17.097  17.899   7.139  0.1189 -0.0204 -0.3549
 1084YOPC   C4A15842  17.219  17.518   7.310  0.2099 -0.0837  0.0166
 1084YOPC   C1B15843  17.080  18.635   6.512 -0.2428 -0.0495 -0.0209
 1084YOPC   C2B15844  17.115  18.510   6.947 -0.1962  0.2258 -0.2667
 1084YOPC   D3B15845  17.463  18.316   7.206  0.0187  0.2203  0.0116
 1084YOPC   C4B15846  17.853  18.234   7.519 -0.1794  0.0429 -0.0405
 1085YOPC   NC315847  15.690   5.607   5.138  0.3115  0.0271  0.2082
 1085YOPC   PO415848  15.830   6.055   4.985 -0.0207  0.0204 -0.1707
 1085YOPC   GL115849  15.832   5.970   5.428 -0.0626  0.1063 -0.0285
 1085YOPC   GL215850  16.296   5.892   5.512  0.0229  0.1537 -0.2813
 1085YOPC   C1A15851  15.918   6.094   5.946 -0.2441 -0.1982 -0.1586
 1085YOPC   D2A15852  15.908   6.142   6.368 -0.1224  0.0148 -0.1954
 1085YOPC   C3A15853  15.574   6.187   6.682  0.0188 -0.1922  0.2350
 1085YOPC   C4A15854  15.632   6.194   7.011  0.0567  0.0447 -0.2482
 1085YOPC   C1B15855  15.961   5.596   5.782  0.1164 -0.0723 -0.1456
 1085YOPC   C2B15856  15.825   5.349   5.955  0.3296  0.0838  0.0774
 1085YOPC   D3B15857  15.810   5.288   6.445  0.1540 -0.1166 -0.0450
 1085YOPC   C4B15858  15.986   5.145   6.825  0.2437  0.2155  0.0586
 1086YOPC   NC315859  15.681  17.641   5.701 -0.0224  0.1608  0.0760
 1086YOPC   PO415860  15.826  18.053   5.600 -0.1402 -0.4725  0.0326
 1086YOPC   GL115861  15.702  18.043   6.032 -0.1112  0.3197  0.0453
 1086YOPC   GL215862  15.656  17.706   6.196  0.0138 -0.2149 -0.2355
 1086YOPC   C1A15863  15.730  18.233   6.395  0.0480  0.1352 -0.1771
 1086YOPC   D2A15864  15.736  18.539   6.707  0.0286  0.0250  0.3505
 1086YOPC   C3A15865  15.723  18.424   7.121  0.1360  0.1177  0.5218
 1086YOPC   C4A15866  15.495  18.452   7.394  0.1821 -0.0623 -0.4683
 1086YOPC   C1B15867  15.970  17.819   6.497  0.2734  0.1644  0.1889
 1086YOPC   C2B15868  15.721  18.008   6.850 -0.0425  0.0559 -0.0538
 1086YOPC   D3B15869  15.692  17.868   7.287  0.0470 -0.1970 -0.0690
 1086YOPC   C4B15870  15.520  18.005   7.637  0.1133 -0.1823 -0.3322
 1087YOPC   NC315871   8.267   2.613   5.169  0.2861  0.0183  0.3365
 1087YOPC   PO415872   8.405   2.223   5.225  0.1648  0.0856  0.1872
 1087YOPC   GL115873   8.613   2.491   5.531  0.1959  0.0248 -0.1127
 1087YOPC   GL215874   8.850   2.501   5.688 -0.1356 -0.3776  0.1347
 1087YOPC   C1A15875   8.542   2.879   5.837  0.1625 -0.0527 -0.1321
 1087YOPC   D2A15876   8.636   3.256   5.917 -0.0668  0.0323  0.3627
 1087YOPC   C3A15877   8.585   3.335   6.320 -0.2467 -0.0453  0.0274
 1087YOPC   C4A15878   8.416   3.193   6.771  0.3386  0.2707 -0.0532
 1087YOPC   C1B15879   8.808   2.466   6.197  0.1634  0.2076  0.3475
 1087YOPC   C2B15880   8.626   2.751   6.486 -0.1375 -0.0586 -0.3593
 1087YOPC   D3B15881   8.857   2.809   6.773 -0.2807 -0.0262  0.2782
 1087YOPC   C4B15882   9.159   3.002   7.042 -0.0100 -0.3198  0.0700
 1088YOPC   NC315883   5.060  11.469   5.062  0.1675  0.0026 -0.2510
 1088YOPC   PO415884   4.875  11.857   4.956  0.0579 -0.2028 -0.0682
 1088YOPC   GL115885   4.797  11.768   5.434 -0.1869  0.0708 -0.1748
 1088YOPC   GL215886   4.546  11.954   5.654  0.0379 -0.1958 -0.0112
 1088YOPC   C1A15887   4.971  11.758   5.809  0.0909  0.0999 -0.0877
 1088YOPC   D2A15888   4.929  11.640   6.173 -0.0489 -0.0872 -0.0352
 1088YOPC   C3A15889   4.939  11.562   6.617 -0.0849 -0.0483 -0.2881
 1088YOPC   C4A15890   4.912  11.458   7.017 -0.0828 -0.3693 -0.0986
 1088YOPC   C1B15891   4.659  12.066   6.108 -0.0820  0.1873 -0.0463
 1088YOPC   C2B15892   4.943  12.285   6.534  0.0879 -0.1187  0.1811
 1088YOPC   D3B15893   4.922  12.092   6.859  0.0424  0.2618  0.0231
 1088YOPC   C4B15894   4.810  12.255   7.258 -0.2114  0.0227  0.1833
 1089YOPC   NC315895  10.718   9.950   4.732  0.3079  0.0611  0.2663
 1089YOPC   PO415896  10.850   9.700   4.917 -0.1858 -0.1956  0.0774
 1089YOPC   GL115897  11.063   9.482   5.363 -0.3052  0.1327 -0.0581
 1089YOPC   GL215898  11.098   9.126   5.368 -0.4266 -0.1374  0.0596
 1089YOPC   C1A15899  11.137   9.791   5.715  0.0226 -0.1793  0.0343
 1089YOPC   D2A15900  11.622   9.662   5.797 -0.2638  0.0789  0.1647
 1089YOPC   C3A15901  11.599   9.958   6.129 -0.1476 -0.3559 -0.0070
 1089YOPC   C4A15902  11.736  10.249   6.316  0.1895  0.2640  0.0324
 1089YOPC   C1B15903  11.324   9.274   5.757  0.0128  0.3821 -0.1906
 1089YOPC   C2B15904  11.374   9.506   6.197 -0.0388 -0.1547 -0.1465
 1089YOPC   D3B15905  11.103   9.823   6.311  0.0342 -0.0237  0.0252
 1089YOPC   C4B15906  10.955   9.919   6.737  0.0834  0.0331 -0.0908
 1090YOPC   NC315907   4.150   7.414   5.424  0.0077 -0.1406 -0.2685
 1090YOPC   PO415908   4.093   6.895   5.232  0.1091 -0.0224 -0.2520
 1090YOPC   GL115909   4.273   6.923   5.695  0.2345  0.2992  0.1318
 1090YOPC   GL215910   4.334   7.213   5.848 -0.0146  0.1696  0.2709
 1090YOPC   C1A15911   4.652   6.704   5.795 -0.0816  0.0580  0.1089
 1090YOPC   D2A15912   4.867   6.823   6.139 -0.0264 -0.0912 -0.1072
 1090YOPC   C3A15913   5.047   7.138   6.164 -0.0168 -0.1666 -0.0503
 1090YOPC   C4A15914   5.254   7.525   6.287 -0.5642 -0.0899  0.0854
 1090YOPC   C1B15915   4.689   7.261   5.716 -0.0127 -0.2447  0.2737
 1090YOPC   C2B15916   5.114   7.038   5.683  0.2495 -0.0136 -0.1127
 1090YOPC   D3B15917   5.436   7.233   5.893 -0.2383  0.0797 -0.0191
 1090YOPC   C4B15918   5.662   7.161   6.258  0.0230  0.2100 -0.1774
 1091YOPC   NC315919   0.129  19.107   5.419 -0.0489  0.1475  0.1433
 1091YOPC   PO415920  -0.186  19.352   5.231 -0.1296  0.1240 -0.1076
 1091YOPC   GL115921  -0.499  19.375   5.567 -0.1392  0.1300  0.3157
 1091YOPC   GL215922  -0.325  19.572   5.687  0.0312  0.1916 -0.3805
 1091YOPC   C1A15923  -0.591  19.161   6.010 -0.0326 -0.0677  0.0660
 1091YOPC   D2A15924  -0.515  18.852   6.272 -0.2591 -0.4746  0.1510
 1091YOPC   C3A15925  -0.385  18.933   6.686  0.0823 -0.2739 -0.0275
 1091YOPC   C4A15926  -0.164  19.180   6.989 -0.2068  0.0080  0.1121
 1091YOPC   C1B15927  -0.229  19.538   6.109  0.2256 -0.0459  0.1460
 1091YOPC   C2B15928  -0.522  19.370   6.495  0.1628 -0.2699  0.1335
 1091YOPC   D3B15929  -0.450  19.558   6.888 -0.1056  0.2299  0.2624
 1091YOPC   C4B15930  -0.293  19.672   7.242  0.1842 -0.2249  0.1090
 1092YOPC   NC315931  17.412  15.481   5.461 -0.3412 -0.0944 -0.0170
 1092YOPC   PO415932  17.016  15.359   5.555 -0.2237  0.2871  0.0160
 1092YOPC   GL115933  16.952  15.333   5.999  0.0057  0.1241 -0.1052
 1092YOPC   GL215934  16.681  15.255   6.219  0.1841 -0.2639 -0.0183
 1092YOPC   C1A15935  17.293  15.277   6.309 -0.0471 -0.0708 -0.0584
 1092YOPC   D2A15936  17.499  15.237   6.620  0.2315  0.2794 -0.0690
 1092YOPC   C3A15937  17.587  14.968   6.857  0.1632  0.0883  0.1299
 1092YOPC   C4A15938  17.575  14.596   7.109 -0.2161  0.0184  0.0262
 1092YOPC   C1B15939  16.862  15.286   6.668 -0.0521 -0.0128 -0.2309
 1092YOPC   C2B15940  17.103  15.375   6.947 -0.1215 -0.1592 -0.0175
 1092YOPC   D3B15941  17.039  15.501   7.465 -0.0972 -0.0083  0.0219
 1092YOPC   C4B15942  16.834  15.875   7.607  0.0835 -0.1917  0.5827
 1093YOPC   NC315943   2.026   8.732   5.069  0.0680 -0.2423  0.0036
 1093YOPC   PO415944   2.418   8.942   5.277 -0.1070 -0.0470  0.0625
 1093YOPC   GL115945   2.357   9.058   5.651 -0.1417 -0.2297  0.1600
 1093YOPC   GL215946   2.228   8.821   5.765 -0.1442  0.0449  0.0913
 1093YOPC   C1A15947   2.264   9.145   6.082  0.1281  0.1561  0.1305
 1093YOPC   D2A15948   2.211   8.993   6.477  0.2275 -0.0700 -0.4558
 1093YOPC   C3A15949   1.868   8.822   6.603  0.0739  0.0365 -0.3873
 1093YOPC   C4A15950   1.538   8.983   6.906  0.1958 -0.2463 -0.3099
 1093YOPC   C1B15951   2.022   8.658   6.139 -0.1793 -0.1407 -0.1001
 1093YOPC   C2B15952   1.647   8.418   6.314 -0.2167  0.0324 -0.2655
 1093YOPC   D3B15953   1.365   8.674   6.482  0.1240 -0.0752  0.1054
 1093YOPC   C4B15954   0.991   8.881   6.709 -0.2000  0.0889  0.2443
 1094YOPC   NC315955   7.204   1.594   5.086  0.0703  0.0461 -0.0349
 1094YOPC   PO415956   6.987   1.484   5.382  0.0545  0.1240 -0.0539
 1094YOPC   GL115957   6.892   1.665   5.733 -0.2097  0.3480 -0.2483
 1094YOPC   GL215958   6.796   1.401   5.974 -0.0490 -0.2144 -0.0654
 1094YOPC   C1A15959   6.996   1.984   5.889  0.2974 -0.2046 -0.0332
 1094YOPC   D2A15960   7.278   2.170   6.000 -0.1814 -0.0958  0.1507
 1094YOPC   C3A15961   7.624   1.925   6.214 -0.0709  0.0045 -0.2363
 1094YOPC   C4A15962   7.803   1.477   6.220  0.1273 -0.4310 -0.2001
 1094YOPC   C1B15963   7.010   1.221   6.395  0.0330 -0.0829 -0.0832
 1094YOPC   C2B15964   6.907   0.905   6.720 -0.0383  0.1328  0.0786
 1094YOPC   D3B15965   6.456   1.013   6.974 -0.1376 -0.0775 -0.3957
 1094YOPC   C4B15966   6.195   0.855   7.267  0.0407 -0.1743 -0.1430
 1095YOPC   NC315967  18.588   3.985   4.925  0.3405  0.0064  0.1979
 1095YOPC   PO415968  18.431   3.852   5.365 -0.1346 -0.0073 -0.1477
 1095YOPC   GL115969  18.486   4.003   5.739  0.0955 -0.1946  0.0016
 1095YOPC   GL215970  18.858   4.220   5.672 -0.3875  0.1346  0.1500
 1095YOPC   C1A15971  18.236   4.038   6.163  0.1280 -0.2278 -0.0333
 1095YOPC   D2A15972  18.137   4.070   6.574 -0.2231 -0.1876  0.1249
 1095YOPC   C3A15973  18.100   3.763   6.892  0.0735  0.0222  0.3428
 1095YOPC   C4A15974  18.292   3.538   7.345 -0.3230 -0.2899  0.4260
 1095YOPC   C1B15975  18.789   4.113   6.143  0.2786 -0.0445 -0.0234
 1095YOPC   C2B15976  18.730   4.134   6.580  0.1378  0.0964  0.0694
 1095YOPC   D3B15977  18.837   4.460   6.783  0.0409  0.2003  0.0676
 1095YOPC   C4B15978  18.958   4.409   7.192  0.2148  0.1424  0.1903
 1096YOPC   NC315979  15.067   6.466   5.097  0.0558 -0.4370  0.2640
 1096YOPC   PO415980  14.707   6.683   5.050 -0.1202 -0.2742  0.1649
 1096YOPC   GL115981  14.683   6.581   5.460  0.4113  0.3216 -0.3265
 1096YOPC   GL215982  14.943   6.510   5.661 -0.1447 -0.1175  0.2210
 1096YOPC   C1A15983  14.469   6.512   5.842 -0.3443  0.0766  0.0073
 1096YOPC   D2A15984  14.254   6.630   6.260 -0.0276  0.0611  0.0547
 1096YOPC   C3A15985  14.175   6.462   6.677  0.0294 -0.0227 -0.2020
 1096YOPC   C4A15986  14.298   6.167   7.001 -0.0800 -0.0924 -0.1382
 1096YOPC   C1B15987  15.021   6.091   5.920 -0.3932  0.1974  0.2062
 1096YOPC   C2B15988  14.856   5.702   5.971  0.2066 -0.0442  0.1139
 1096YOPC   D3B15989  15.015   5.358   5.974  0.1539  0.0144  0.0035
 1096YOPC   C4B15990  14.992   4.913   5.946  0.0244 -0.1375  0.0164
 1097YOPC   NC315991   6.437  12.196   5.376 -0.1092  0.0190 -0.0766
 1097YOPC   PO415992   6.687  12.455   5.097 -0.2395  0.1741 -0.2400
 1097YOPC   GL115993   6.815  12.497   5.583 -0.1451 -0.0126  0.1126
 1097YOPC   GL215994   6.835  12.183   5.662 -0.2256  0.0603  0.1271
 1097YOPC   C1A15995   6.735  12.802   5.864  0.0783  0.2490  0.3088
 1097YOPC   D2A15996   7.202  12.922   6.051 -0.0962 -0.0098 -0.0082
 1097YOPC   C3A15997   7.246  12.649   6.378 -0.0160 -0.1944 -0.1206
 1097YOPC   C4A15998   7.404  12.270   6.679 -0.2640  0.0484 -0.0011
 1097YOPC   C1B15999   6.698  12.346   6.027  0.0520  0.0049  0.0625
 1097YOPC   C2B16000   6.602  12.694   6.344  0.1888  0.0924 -0.0289
 1097YOPC   D3B16001   6.905  13.010   6.479  0.1478  0.2555  0.2936
 1097YOPC   C4B16002   7.115  13.130   6.836 -0.0256  0.0309  0.0301
 1098YOPC   NC316003   1.095   7.750   4.958  0.2489  0.1167 -0.0549
 1098YOPC   PO416004   1.303   8.161   5.147 -0.2733 -0.2241 -0.2260
 1098YOPC   GL116005   1.084   7.970   5.501 -0.4187 -0.3399  0.0927
 1098YOPC   GL216006   0.905   7.707   5.409 -0.0205 -0.1848 -0.1387
 1098YOPC   C1A16007   1.251   7.722   5.874  0.0171  0.0613  0.0394
 1098YOPC   D2A16008   1.145   7.322   6.144 -0.2371 -0.3723  0.0111
 1098YOPC   C3A16009   1.305   6.983   6.464  0.2484  0.0139 -0.1143
 1098YOPC   C4A16010   1.700   6.732   6.690 -0.2018 -0.1757 -0.0685
 1098YOPC   C1B16011   0.762   7.576   5.696  0.1891 -0.2943 -0.1660
 1098YOPC   C2B16012   0.334   7.801   5.916  0.2077  0.0775 -0.0396
 1098YOPC   D3B16013   0.156   7.745   6.394 -0.0360 -0.0310  0.0427
 1098YOPC   C4B16014  -0.242   7.819   6.634 -0.2139  0.3230  0.0719
 1099YOPC   NC316015   7.483   5.355   4.750 -0.1170 -0.3222 -0.0276
 1099YOPC   PO416016   7.565   5.731   4.734  0.1401 -0.0442 -0.0499
 1099YOPC   GL116017   7.445   5.695   5.271 -0.0610 -0.2751 -0.0300
 1099YOPC   GL216018   7.247   5.453   5.446  0.1220  0.1005  0.1450
 1099YOPC   C1A16019   7.805   5.806   5.642  0.2411 -0.1763  0.0034
 1099YOPC   D2A16020   8.191   5.865   5.859 -0.1854  0.0667 -0.1626
 1099YOPC   C3A16021   8.540   5.880   6.140  0.3719 -0.2593  0.1109
 1099YOPC   C4A16022   8.762   5.870   6.528 -0.1519 -0.1562  0.0232
 1099YOPC   C1B16023   7.381   5.823   5.840 -0.0732  0.1363 -0.1002
 1099YOPC   C2B16024   7.637   5.872   6.148 -0.2667  0.1090 -0.2062
 1099YOPC   D3B16025   7.526   5.785   6.567  0.1762  0.0927  0.1555
 1099YOPC   C4B16026   7.739   5.794   7.039 -0.0024  0.0741 -0.0381
 1100YOPC   NC316027   6.653  11.405   5.253  0.3442  0.0685 -0.2238
 1100YOPC   PO416028   6.319  11.707   5.259  0.3291 -0.2697 -0.3331
 1100YOPC   GL116029   6.585  11.746   5.614 -0.4248 -0.2262  0.1216
 1100YOPC   GL216030   6.350  11.634   5.880 -0.4183  0.1431  0.0438
 1100YOPC   C1A16031   6.819  11.784   6.058  0.0997  0.1083  0.1189
 1100YOPC   D2A16032   6.812  11.664   6.565 -0.0403 -0.3693  0.1970
 1100YOPC   C3A16033   6.516  11.293   6.743  0.1081  0.4565 -0.3072
 1100YOPC   C4A16034   6.305  11.210   7.115  0.0985 -0.2197 -0.1290
 1100YOPC   C1B16035   6.285  11.532   6.379  0.2517  0.0114  0.2999
 1100YOPC   C2B16036   5.892  11.381   6.672  0.1245  0.1598 -0.2339
 1100YOPC   D3B16037   5.785  11.474   7.170 -0.1619 -0.0018 -0.0490
 1100YOPC   C4B16038   5.657  11.355   7.492 -0.0211  0.0367  0.0058
 1101YOPC   NC316039   1.626   5.887   4.735  0.0845  0.2828  0.2744
 1101YOPC   PO416040   1.671   5.681   5.119 -0.5227  0.0387 -0.1528
 1101YOPC   GL116041   1.565   5.919   5.510 -0.1689 -0.0033  0.2261
 1101YOPC   GL216042   1.271   5.972   5.510 -0.0266  0.0983  0.1590
 1101YOPC   C1A16043   1.437   5.659   5.926 -0.1316 -0.0120  0.1538
 1101YOPC   D2A16044   1.440   5.560   6.261  0.0066 -0.2216 -0.0280
 1101YOPC   C3A16045   1.857   5.153   6.367  0.1334 -0.1526 -0.0136
 1101YOPC   C4A16046   1.736   5.089   6.795  0.1289  0.0566 -0.1755
 1101YOPC   C1B16047   1.017   6.217   5.771  0.0166 -0.2681 -0.1492
 1101YOPC   C2B16048   0.676   6.317   6.114  0.1096 -0.3393 -0.0516
 1101YOPC   D3B16049   0.824   6.280   6.501  0.1633 -0.1499 -0.0994
 1101YOPC   C4B16050   0.632   6.302   6.839  0.0178  0.0881 -0.0299
 1102YOPC   NC316051  16.011  10.372   5.474  0.2531  0.2028  0.1695
 1102YOPC   PO416052  16.278   9.901   5.393  0.2796  0.2769 -0.0931
 1102YOPC   GL116053  16.403  10.099   5.791 -0.1827 -0.2262  0.1863
 1102YOPC   GL216054  16.824  10.154   5.771  0.1595  0.0010  0.0967
 1102YOPC   C1A16055  16.530  10.136   6.298 -0.0280  0.0528  0.1060
 1102YOPC   D2A16056  16.229  10.132   6.578  0.0438  0.2887 -0.1284
 1102YOPC   C3A16057  16.273  10.066   6.951 -0.1021 -0.1239 -0.0516
 1102YOPC   C4A16058  15.934  10.015   7.210  0.0442  0.1057  0.2112
 1102YOPC   C1B16059  17.012  10.131   6.233  0.1331 -0.1713 -0.1007
 1102YOPC   C2B16060  17.224  10.027   6.706  0.0723 -0.2181  0.0443
 1102YOPC   D3B16061  17.576  10.015   6.884 -0.2787  0.1957  0.0451
 1102YOPC   C4B16062  17.844  10.018   7.240  0.0162  0.0929  0.0277
 1103YOPC   NC316063  13.567  10.441   5.173  0.0583 -0.0089  0.3183
 1103YOPC   PO416064  13.976  10.263   5.267  0.3108  0.1092  0.1220
 1103YOPC   GL116065  13.821  10.394   5.558 -0.1447 -0.1442 -0.4014
 1103YOPC   GL216066  13.789  10.184   5.844 -0.1731  0.1119 -0.1259
 1103YOPC   C1A16067  13.550  10.581   5.919  0.2395 -0.0273  0.0539
 1103YOPC   D2A16068  13.325  10.589   6.310 -0.1040  0.0901  0.0325
 1103YOPC   C3A16069  13.506  10.426   6.641 -0.2920 -0.0710  0.4250
 1103YOPC   C4A16070  13.771  10.213   6.914 -0.1897  0.3933  0.2574
 1103YOPC   C1B16071  14.078   9.788   6.024 -0.1105 -0.1431  0.0925
 1103YOPC   C2B16072  14.288   9.713   6.411 -0.0263 -0.1611  0.3764
 1103YOPC   D3B16073  14.315   9.403   6.749  0.1579 -0.0174  0.0408
 1103YOPC   C4B16074  14.370   9.536   7.156  0.1437  0.1072 -0.0879
 1104YOPC   NC316075  18.473  11.993   4.821 -0.0846  0.0472  0.3822
 1104YOPC   PO416076  18.181  11.820   4.914  0.1370 -0.0810 -0.2251
 1104YOPC   GL116077  18.098  12.053   5.367  0.1823 -0.1867  0.1227
 1104YOPC   GL216078  18.139  12.418   5.426 -0.1326 -0.0739 -0.0495
 1104YOPC   C1A16079  17.997  12.082   5.841  0.0736 -0.1572  0.2302
 1104YOPC   D2A16080  18.006  12.142   6.334 -0.1653 -0.0521 -0.0880
 1104YOPC   C3A16081  17.718  11.981   6.622 -0.0434 -0.1199 -0.2391
 1104YOPC   C4A16082  17.299  11.815   6.494  0.5798  0.0793 -0.0804
 1104YOPC   C1B16083  18.164  12.573   5.884  0.1721 -0.2848 -0.0713
 1104YOPC   C2B16084  18.306  12.677   6.375  0.0079 -0.0733 -0.0297
 1104YOPC   D3B16085  18.278  12.491   6.745  0.1728 -0.0854 -0.3358
 1104YOPC   C4B16086  18.347  12.434   7.186 -0.3793  0.2230  0.1680
 1105YOPC   NC316087   6.177  11.180   5.384 -0.0389  0.1512  0.5184
 1105YOPC   PO416088   6.049  10.904   5.257  0.1579 -0.0326  0.0230
 1105YOPC   GL116089   5.934  10.835   5.656 -0.1059 -0.0941  0.3489
 1105YOPC   GL216090   5.582  11.013   5.665 -0.1786  0.1725  0.0787
 1105YOPC   C1A16091   5.861  10.670   6.076  0.0353 -0.2894  0.2589
 1105YOPC   D2A16092   5.710  10.267   6.139  0.3695 -0.1211 -0.0134
 1105YOPC   C3A16093   5.901  10.130   6.416  0.1558 -0.0020  0.1416
 1105YOPC   C4A16094   5.947   9.819   6.653  0.0365  0.0120 -0.1131
 1105YOPC   C1B16095   5.839  11.206   5.956  0.3861  0.0497  0.1563
 1105YOPC   C2B16096   6.050  11.078   6.254  0.0461 -0.0166  0.0390
 1105YOPC   D3B16097   6.058  10.857   6.596 -0.0677 -0.1620 -0.0941
 1105YOPC   C4B16098   6.177  10.701   6.982  0.1632 -0.0662  0.1521
 1106YOPC   NC316099   3.772   1.319   5.245  0.1537  0.3930 -0.3293
 1106YOPC   PO416100   3.461   1.650   5.388  0.1922  0.1689  0.0929
 1106YOPC   GL116101   3.238   1.264   5.639  0.1637 -0.0502 -0.0034
 1106YOPC   GL216102   3.244   0.943   5.831 -0.3022 -0.1646 -0.2009
 1106YOPC   C1A16103   3.168   1.368   6.118  0.0097  0.1341  0.1018
 1106YOPC   D2A16104   3.186   1.196   6.472  0.0232  0.0529 -0.1965
 1106YOPC   C3A16105   3.243   1.310   6.811 -0.2554 -0.3035 -0.2512
 1106YOPC   C4A16106   3.090   1.677   7.041 -0.0812  0.1837  0.1308
 1106YOPC   C1B16107   3.199   0.640   6.262  0.2028 -0.1104 -0.2190
 1106YOPC   C2B16108   3.016   0.268   6.568 -0.0784 -0.2605 -0.1547
 1106YOPC   D3B16109   2.690   0.415   6.873 -0.4014  0.1589 -0.1125
 1106YOPC   C4B16110   2.563   0.446   7.339 -0.5051 -0.1187 -0.1244
 1107YOPC   NC316111  12.857   2.198   5.467  0.2202  0.3043 -0.3347
 1107YOPC   PO416112  13.082   2.293   5.718  0.0393  0.2564  0.0162
 1107YOPC   GL116113  13.176   2.448   6.081 -0.1135 -0.1696 -0.1878
 1107YOPC   GL216114  13.384   2.687   6.029 -0.2833 -0.0432  0.0855
 1107YOPC   C1A16115  13.096   2.375   6.396  0.2111  0.0041 -0.1504
 1107YOPC   D2A16116  13.114   2.653   6.846 -0.0697  0.1915 -0.3986
 1107YOPC   C3A16117  13.218   2.384   7.290  0.1913 -0.1575 -0.1512
 1107YOPC   C4A16118  13.024   2.065   7.407 -0.0860 -0.2339 -0.1372
 1107YOPC   C1B16119  13.393   3.078   6.095 -0.0715 -0.0621  0.0130
 1107YOPC   C2B16120  12.950   3.372   6.089 -0.1643 -0.2302  0.1607
 1107YOPC   D3B16121  12.725   3.401   6.476 -0.0809  0.0401 -0.1456
 1107YOPC   C4B16122  12.667   3.473   6.866 -0.0076  0.2531  0.2617
 1108YOPC   NC316123   8.333  13.620   5.090  0.0323 -0.3566  0.0461
 1108YOPC   PO416124   8.511  13.585   5.449  0.0699 -0.0838  0.1018
 1108YOPC   GL116125   8.581  13.705   5.810 -0.4363 -0.1889 -0.1089
 1108YOPC   GL216126   8.774  13.873   5.891 -0.1758  0.2435  0.1198
 1108YOPC   C1A16127   8.584  13.651   6.268  0.0335 -0.1532 -0.2405
 1108YOPC   D2A16128   8.511  13.792   6.634 -0.0929 -0.0488 -0.2234
 1108YOPC   C3A16129   8.908  13.894   6.806 -0.1151 -0.0144 -0.1170
 1108YOPC   C4A16130   9.055  13.934   7.269  0.0521 -0.2528  0.2912
 1108YOPC   C1B16131   8.888  14.050   6.323  0.0486 -0.1754 -0.1080
 1108YOPC   C2B16132   9.139  14.376   6.573 -0.1769  0.2680  0.2028
 1108YOPC   D3B16133   9.107  14.385   7.101  0.2881 -0.2318  0.1923
 1108YOPC   C4B16134   9.324  14.608   7.293 -0.1376 -0.1939  0.2084
 1109YOPC   NC316135   1.996  17.096   4.885 -0.1360  0.0673 -0.0439
 1109YOPC   PO416136   1.947  17.553   5.116  0.2400 -0.0858 -0.0414
 1109YOPC   GL116137   2.371  17.516   5.378  0.1068  0.2201  0.1505
 1109YOPC   GL216138   2.374  17.154   5.510  0.0875 -0.2452 -0.0471
 1109YOPC   C1A16139   2.593  17.566   5.723 -0.2867  0.0535 -0.0622
 1109YOPC   D2A16140   3.034  17.474   5.833  0.1318 -0.0860  0.2646
 1109YOPC   C3A16141   3.143  17.127   5.557 -0.1672  0.2453 -0.1812
 1109YOPC   C4A16142   3.320  16.764   5.584  0.0381  0.0584 -0.1913
 1109YOPC   C1B16143   2.703  16.928   5.719  0.0195  0.2080  0.0357
 1109YOPC   C2B16144   3.094  16.833   6.050  0.2008  0.1929 -0.0304
 1109YOPC   D3B16145   3.122  16.601   6.432  0.1096  0.0130 -0.1541
 1109YOPC   C4B16146   3.041  16.777   6.830  0.2287  0.1960  0.1962
 1110YOPC   NC316147  18.093   7.704   4.993  0.1431 -0.0685  0.1668
 1110YOPC   PO416148  17.996   7.899   5.296  0.0560  0.1889  0.0441
 1110YOPC   GL116149  17.934   7.895   5.747 -0.2434 -0.1652 -0.1198
 1110YOPC   GL216150  18.229   8.039   5.859 -0.0324 -0.2960  0.0392
 1110YOPC   C1A16151  17.934   7.673   6.102 -0.4932  0.0293 -0.4025
 1110YOPC   D2A16152  17.674   7.528   6.439 -0.3095  0.0944  0.0094
 1110YOPC   C3A16153  17.915   7.545   6.870 -0.2468  0.1251 -0.1458
 1110YOPC   C4A16154  18.014   7.506   7.328  0.1118 -0.1937 -0.0601
 1110YOPC   C1B16155  18.130   8.337   6.165 -0.0427 -0.0457  0.1629
 1110YOPC   C2B16156  18.212   8.624   6.496  0.2380 -0.3796 -0.2758
 1110YOPC   D3B16157  18.277   8.597   6.871 -0.3287  0.1804 -0.1359
 1110YOPC   C4B16158  18.451   8.394   7.341 -0.2716 -0.0463  0.5720
 1111YOPC   NC316159  18.498  12.966   5.187  0.2713  0.2286 -0.1031
 1111YOPC   PO416160  18.696  13.262   5.283  0.3144  0.1287  0.0420
 1111YOPC   GL116161  18.805  13.538   5.598  0.1037  0.0663 -0.0842
 1111YOPC   GL216162  18.533  13.528   5.719  0.0127 -0.2506  0.3607
 1111YOPC   C1A16163  18.893  13.791   6.010 -0.1429  0.1983 -0.1276
 1111YOPC   D2A16164  18.857  14.163   6.206 -0.3005  0.0546  0.1765
 1111YOPC   C3A16165  18.539  14.075   6.491  0.0777  0.2725  0.3176
 1111YOPC   C4A16166  18.322  14.180   6.721 -0.0273 -0.1529  0.1086
 1111YOPC   C1B16167  18.917  13.271   5.968 -0.3411 -0.0510  0.1484
 1111YOPC   C2B16168  18.893  13.378   6.364  0.0106 -0.2499 -0.0511
 1111YOPC   D3B16169  18.991  13.794   6.480  0.0499  0.0128 -0.0328
 1111YOPC   C4B16170  19.062  14.065   6.748  0.0549  0.1322 -0.1268
 1112YOPC   NC316171   0.168  12.566   5.214  0.1563 -0.0995 -0.2196
 1112YOPC   PO416172  -0.132  12.445   5.449  0.0146  0.1386 -0.1302
 1112YOPC   GL116173  -0.195  12.516   5.839 -0.0095 -0.2443 -0.0735
 1112YOPC   GL216174  -0.247  12.189   6.013  0.0462 -0.1388 -0.0730
 1112YOPC   C1A16175   0.070  12.548   6.230  0.0986 -0.2668 -0.2478
 1112YOPC   D2A16176   0.334  12.702   6.568 -0.1875 -0.0337 -0.1899
 1112YOPC   C3A16177   0.463  12.521   6.962 -0.0157  0.1146 -0.0151
 1112YOPC   C4A16178   0.449  12.303   7.292 -0.0767 -0.0478  0.0423
 1112YOPC   C1B16179  -0.438  12.366   6.314 -0.0524 -0.2838 -0.1018
 1112YOPC   C2B16180  -0.554  12.412   6.757  0.1325  0.0702  0.1222
 1112YOPC   D3B16181  -0.476  12.767   7.023  0.0196  0.1767 -0.2825
 1112YOPC   C4B16182  -0.262  13.126   6.965  0.2776  0.1179 -0.0518
 1113YOPC   NC316183   8.027  18.434   4.983  0.1446 -0.0871  0.0067
 1113YOPC   PO416184   7.638  18.312   5.172 -0.2084 -0.0525 -0.0475
 1113YOPC   GL116185   7.591  18.236   5.642  0.1485  0.2648 -0.1322
 1113YOPC   GL216186   7.688  17.967   5.681  0.0300  0.4440 -0.1020
 1113YOPC   C1A16187   7.645  18.387   6.022  0.0034 -0.2197 -0.2409
 1113YOPC   D2A16188   7.566  18.612   6.374  0.2683 -0.1409  0.0607
 1113YOPC   C3A16189   7.233  18.750   6.520  0.3783 -0.2564  0.2456
 1113YOPC   C4A16190   7.149  19.065   6.796 -0.1581 -0.2206 -0.0006
 1113YOPC   C1B16191   7.686  17.737   6.126 -0.1050  0.3117  0.0054
 1113YOPC   C2B16192   7.733  17.621   6.489  0.0072 -0.1123 -0.0253
 1113YOPC   D3B16193   8.026  17.756   6.860  0.0958 -0.1794 -0.2066
 1113YOPC   C4B16194   8.214  17.303   6.947  0.4043 -0.1989 -0.0251
 1114YOPC   NC316195   0.800  10.340   4.919  0.1829 -0.2367  0.0111
 1114YOPC   PO416196   1.161  10.222   5.154  0.1183  0.2117 -0.1032
 1114YOPC   GL116197   1.220  10.327   5.611 -0.1425 -0.0337 -0.1527
 1114YOPC   GL216198   1.593  10.107   5.638 -0.1541  0.2509 -0.0067
 1114YOPC   C1A16199   1.282  10.342   6.076 -0.0773 -0.0797 -0.0097
 1114YOPC   D2A16200   1.465  10.555   6.439  0.0897 -0.1996  0.3467
 1114YOPC   C3A16201   1.543  10.308   6.809  0.1144  0.2446 -0.0279
 1114YOPC   C4A16202   1.347   9.955   7.094 -0.0150 -0.2064  0.0403
 1114YOPC   C1B16203   1.787  10.290   6.038 -0.1595  0.0338 -0.5014
 1114YOPC   C2B16204   1.901  10.269   6.409 -0.1420 -0.1630 -0.1183
 1114YOPC   D3B16205   2.056   9.927   6.650  0.0946 -0.0910  0.2853
 1114YOPC   C4B16206   2.338  10.054   6.929 -0.3149  0.0538 -0.0568
 1115YOPC   NC316207  14.546   8.172   4.879  0.0094 -0.0426 -0.1511
 1115YOPC   PO416208  14.763   8.080   5.286  0.2523 -0.3249  0.1336
 1115YOPC   GL116209  14.781   8.151   5.670  0.0017  0.0739 -0.0892
 1115YOPC   GL216210  15.185   8.277   5.867  0.1583  0.1586  0.0612
 1115YOPC   C1A16211  14.629   8.168   6.159  0.0837 -0.0550 -0.1454
 1115YOPC   D2A16212  14.429   8.176   6.587  0.2344  0.1314  0.0010
 1115YOPC   C3A16213  14.296   8.502   6.884  0.0038 -0.1235 -0.1269
 1115YOPC   C4A16214  14.525   8.611   7.299  0.0016  0.1637 -0.1561
 1115YOPC   C1B16215  15.096   8.442   6.333  0.2647 -0.3825  0.1783
 1115YOPC   C2B16216  14.797   8.506   6.717 -0.4362 -0.0290 -0.2010
 1115YOPC   D3B16217  14.574   8.915   6.631  0.0114 -0.1126 -0.2159
 1115YOPC   C4B16218  14.452   9.218   6.279  0.0349  0.0006  0.1016
 1116YOPC   NC316219  15.304   1.362   5.598 -0.1094  0.0691 -0.1563
 1116YOPC   PO416220  15.431   1.793   5.414 -0.1888 -0.0578  0.0433
 1116YOPC   GL116221  15.340   1.817   5.877  0.0556  0.1433  0.0383
 1116YOPC   GL216222  15.409   1.580   6.054  0.1420  0.1585  0.2862
 1116YOPC   C1A16223  15.304   2.125   6.162 -0.3072  0.0360  0.1341
 1116YOPC   D2A16224  15.016   2.291   6.389 -0.1761  0.0551  0.1530
 1116YOPC   C3A16225  14.873   2.224   6.730  0.1540  0.0291 -0.1520
 1116YOPC   C4A16226  14.705   2.342   7.084 -0.3024  0.0588 -0.1263
 1116YOPC   C1B16227  15.789   1.348   6.144 -0.1053  0.2566  0.0235
 1116YOPC   C2B16228  16.165   1.458   6.350  0.4732 -0.0905 -0.3991
 1116YOPC   D3B16229  16.204   1.347   6.831 -0.1302 -0.0279  0.0796
 1116YOPC   C4B16230  16.532   1.644   7.078  0.0498  0.2902 -0.0763
 1117YOPC   NC316231  15.132  13.831   5.287 -0.0720 -0.1749 -0.3823
 1117YOPC   PO416232  14.858  13.806   5.662  0.1021  0.0732 -0.2252
 1117YOPC   GL116233  14.858  13.715   6.040 -0.0183 -0.0654  0.2904
 1117YOPC   GL216234  15.067  13.825   6.209  0.0710 -0.1965 -0.0788
 1117YOPC   C1A16235  14.859  13.303   6.270  0.1582 -0.2898  0.0676
 1117YOPC   D2A16236  14.653  12.895   6.107 -0.0084  0.1197  0.2271
 1117YOPC   C3A16237  14.341  12.751   5.998 -0.0699  0.0002  0.1530
 1117YOPC   C4A16238  13.902  12.706   6.183 -0.1271  0.0732 -0.2338
 1117YOPC   C1B16239  14.762  14.118   6.289 -0.0552  0.0860 -0.2087
 1117YOPC   C2B16240  14.435  14.410   6.425  0.1497  0.4423 -0.5170
 1117YOPC   D3B16241  14.165  14.340   6.750 -0.1119 -0.0331  0.0549
 1117YOPC   C4B16242  13.767  14.105   6.947 -0.0656  0.0452 -0.1626
 1118YOPC   NC316243   3.243   6.482   5.377 -0.1294  0.3957 -0.0389
 1118YOPC   PO416244   3.365   6.843   5.588  0.1698 -0.1080  0.1684
 1118YOPC   GL116245   3.567   6.597   5.931 -0.0666 -0.5189  0.1153
 1118YOPC   GL216246   3.891   6.626   6.006 -0.0620  0.0736 -0.1496
 1118YOPC   C1A16247   3.406   6.461   6.344 -0.0497 -0.3191 -0.2369
 1118YOPC   D2A16248   3.189   6.220   6.686  0.1968 -0.0365  0.0832
 1118YOPC   C3A16249   3.199   6.384   7.075 -0.2162  0.1040  0.3859
 1118YOPC   C4A16250   3.544   6.582   7.306 -0.2512 -0.0394 -0.3675
 1118YOPC   C1B16251   3.978   6.623   6.395 -0.0007 -0.0098  0.1368
 1118YOPC   C2B16252   3.845   6.293   6.517 -0.1045 -0.0759  0.0260
 1118YOPC   D3B16253   3.589   5.929   6.592 -0.0414  0.1992  0.0708
 1118YOPC   C4B16254   3.659   5.512   6.608  0.1493 -0.1911  0.0510
 1119YOPC   NC316255   9.653   3.030   4.751  0.1074 -0.0519  0.2764
 1119YOPC   PO416256   9.447   3.203   5.063  0.3349 -0.1000  0.1211
 1119YOPC   GL116257   9.230   2.933   5.412 -0.1050  0.2645  0.0876
 1119YOPC   GL216258   9.390   2.750   5.588  0.4676  0.2348 -0.0775
 1119YOPC   C1A16259   9.022   2.981   5.888  0.1266 -0.0024  0.2051
 1119YOPC   D2A16260   8.971   2.962   6.248  0.0067  0.1518  0.0732
 1119YOPC   C3A16261   9.255   3.156   6.545  0.0845  0.0200 -0.0283
 1119YOPC   C4A16262   9.431   3.443   6.844 -0.0765 -0.1394  0.3401
 1119YOPC   C1B16263   9.279   2.556   6.037 -0.1364  0.1228  0.1545
 1119YOPC   C2B16264   9.271   2.280   6.400  0.1562  0.4622  0.0368
 1119YOPC   D3B16265   9.305   2.421   6.837  0.1997  0.1170  0.0257
 1119YOPC   C4B16266   9.339   2.536   7.306  0.1203 -0.2158  0.2794
 1120YOPC   NC316267  10.641   5.001   5.301  0.0903 -0.0577  0.0334
 1120YOPC   PO416268  10.708   5.383   5.155  0.2432 -0.0167 -0.0697
 1120YOPC   GL116269  10.711   5.687   5.461 -0.1588  0.1654  0.2333
 1120YOPC   GL216270  11.025   5.970   5.408  0.0419 -0.2367 -0.0273
 1120YOPC   C1A16271  10.657   5.839   5.944 -0.0646  0.0319 -0.0037
 1120YOPC   D2A16272  10.614   5.812   6.403  0.0759  0.0205 -0.1908
 1120YOPC   C3A16273  10.345   6.035   6.726 -0.0843  0.1329 -0.2256
 1120YOPC   C4A16274  10.165   6.011   7.054  0.2509  0.0572 -0.1073
 1120YOPC   C1B16275  11.155   5.782   5.858  0.0966  0.0568  0.5473
 1120YOPC   C2B16276  11.340   5.799   6.196  0.1080 -0.2810 -0.2254
 1120YOPC   D3B16277  11.598   6.174   6.200  0.1411 -0.0016  0.4505
 1120YOPC   C4B16278  11.515   6.636   6.178 -0.1990 -0.0528 -0.1596
 1121YOPC   NC316279  10.901  11.055   4.610  0.0972 -0.1464  0.1608
 1121YOPC   PO416280  11.026  11.106   5.075 -0.0105 -0.3397  0.1782
 1121YOPC   GL116281  11.162  11.270   5.514 -0.0178  0.0179  0.0147
 1121YOPC   GL216282  10.947  11.423   5.600  0.2185 -0.1368 -0.0038
 1121YOPC   C1A16283  11.552  11.253   5.708 -0.1099  0.1851  0.2274
 1121YOPC   D2A16284  12.019  11.171   5.821 -0.1037  0.0493  0.2896
 1121YOPC   C3A16285  12.296  11.476   6.014 -0.0259  0.3899 -0.1740
 1121YOPC   C4A16286  12.386  11.550   6.422  0.2448  0.2327  0.2177
 1121YOPC   C1B16287  10.971  11.521   6.069 -0.0753 -0.0288  0.0523
 1121YOPC   C2B16288  10.939  11.705   6.504 -0.0093  0.1308 -0.3118
 1121YOPC   D3B16289  10.841  11.549   6.900 -0.0071  0.0825 -0.2582
 1121YOPC   C4B16290  10.838  11.706   7.220 -0.2131 -0.0683 -0.0096
 1122YOPC   NC316291   0.499  16.816   4.953  0.0196 -0.1609 -0.1314
 1122YOPC   PO416292   0.749  16.517   5.066 -0.0227 -0.0280 -0.0419
 1122YOPC   GL116293   1.047  16.512   5.425  0.3749 -0.0685  0.0049
 1122YOPC   GL216294   1.108  16.828   5.432  0.1895 -0.0237 -0.0697
 1122YOPC   C1A16295   0.893  16.545   5.898 -0.1880 -0.1674  0.4055
 1122YOPC   D2A16296   0.734  16.774   6.237  0.1040 -0.0104 -0.0672
 1122YOPC   C3A16297   0.438  16.666   6.483 -0.1992 -0.1330 -0.0940
 1122YOPC   C4A16298  -0.007  16.623   6.598 -0.2069  0.0089  0.1518
 1122YOPC   C1B16299   1.449  16.832   5.695 -0.0688 -0.1317 -0.0875
 1122YOPC   C2B16300   1.636  17.145   6.030 -0.3305  0.0885  0.1707
 1122YOPC   D3B16301   1.984  17.002   6.315  0.0858 -0.0359  0.1932
 1122YOPC   C4B16302   2.330  17.247   6.506 -0.3570 -0.2032 -0.0821
 1123YOPC   NC316303  17.906  16.721   5.407 -0.4001  0.1841  0.0013
 1123YOPC   PO416304  17.677  16.756   5.824  0.0851  0.2985  0.0998
 1123YOPC   GL116305  17.817  16.465   6.203 -0.0934  0.0996  0.1730
 1123YOPC   GL216306  17.470  16.402   6.105 -0.1018 -0.0663 -0.1704
 1123YOPC   C1A16307  18.143  16.650   6.573 -0.0731 -0.2561  0.0652
 1123YOPC   D2A16308  18.372  16.295   6.803 -0.3930 -0.1030  0.0255
 1123YOPC   C3A16309  18.685  16.152   6.497  0.1280  0.2908  0.1034
 1123YOPC   C4A16310  18.828  16.464   6.390 -0.1068  0.3625 -0.3770
 1123YOPC   C1B16311  17.383  16.427   6.542 -0.3171  0.0599 -0.1209
 1123YOPC   C2B16312  17.623  16.591   6.716  0.0892 -0.0834  0.1549
 1123YOPC   D3B16313  17.873  16.455   6.956  0.0642  0.2300 -0.3476
 1123YOPC   C4B16314  18.124  16.324   7.357 -0.0052 -0.2266  0.0259
 1124YOPC   NC316315  18.391  17.222   5.022 -0.1184 -0.0937 -0.1328
 1124YOPC   PO416316  18.832  17.080   5.278 -0.0663  0.1277 -0.1966
 1124YOPC   GL116317  18.730  16.999   5.773 -0.0770 -0.1960 -0.0354
 1124YOPC   GL216318  18.650  16.688   5.888 -0.0078 -0.1613  0.1863
 1124YOPC   C1A16319  18.496  17.071   6.236 -0.1846  0.0131 -0.2502
 1124YOPC   D2A16320  18.485  17.355   6.609  0.0377  0.0403 -0.0094
 1124YOPC   C3A16321  18.496  17.066   6.905  0.0084  0.0707  0.0202
 1124YOPC   C4A16322  18.608  16.738   6.740 -0.2516 -0.2803 -0.0687
 1124YOPC   C1B16323  18.441  16.333   6.089  0.0733 -0.1174  0.0029
 1124YOPC   C2B16324  18.067  16.074   6.167  0.1813  0.0576  0.3412
 1124YOPC   D3B16325  17.868  16.128   6.566  0.0517  0.2018 -0.0709
 1124YOPC   C4B16326  17.596  16.059   6.921  0.1541 -0.1903 -0.0965
 1125YOPC   NC316327   3.344   9.994   5.427 -0.0127 -0.1562  0.0534
 1125YOPC   PO416328   2.950   9.851   5.484 -0.1627  0.1217 -0.1313
 1125YOPC   GL116329   2.896   9.631   5.874  0.1502 -0.2003 -0.3008
 1125YOPC   GL216330   2.490   9.548   5.903 -0.1248 -0.0111 -0.1866
 1125YOPC   C1A16331   3.162   9.223   6.139  0.1532 -0.0133 -0.0031
 1125YOPC   D2A16332   3.339   9.090   6.483  0.1928 -0.2864  0.1485
 1125YOPC   C3A16333   3.292   8.601   6.497 -0.0139  0.1675  0.2787
 1125YOPC   C4A16334   3.075   8.352   6.538 -0.0039  0.0612  0.2665
 1125YOPC   C1B16335   2.677   9.392   6.284 -0.0084 -0.2052  0.4286
 1125YOPC   C2B16336   2.882   9.413   6.653  0.1233 -0.0169 -0.1169
 1125YOPC   D3B16337   2.771   9.604   7.145  0.0236 -0.0081  0.0276
 1125YOPC   C4B16338   2.756  10.027   7.243 -0.1566 -0.0686 -0.0870
 1126YOPC   NC316339  13.152   7.678   4.962  0.0152 -0.1405 -0.1795
 1126YOPC   PO416340  12.993   7.986   5.330 -0.3388 -0.2231 -0.0316
 1126YOPC   GL116341  13.175   8.225   5.767  0.3317  0.1474  0.0342
 1126YOPC   GL216342  12.937   8.310   5.920 -0.1367  0.0715 -0.1707
 1126YOPC   C1A16343  13.424   8.310   6.162  0.1203 -0.2166  0.0402
 1126YOPC   D2A16344  13.481   8.593   6.592 -0.0169 -0.0091 -0.1959
 1126YOPC   C3A16345  13.545   8.261   6.833  0.0982  0.1092  0.0286
 1126YOPC   C4A16346  13.684   8.208   7.222 -0.0328 -0.3124 -0.1993
 1126YOPC   C1B16347  12.952   8.068   6.300 -0.0348  0.1657 -0.0815
 1126YOPC   C2B16348  13.108   8.295   6.622 -0.0353 -0.0960 -0.0054
 1126YOPC   D3B16349  13.170   8.704   6.973  0.2946  0.1904  0.3211
 1126YOPC   C4B16350  13.044   9.102   7.124  0.0678  0.0685 -0.1162
 1127YOPC   NC316351   6.516  15.123   4.956 -0.0014  0.1414  0.0144
 1127YOPC   PO416352   6.363  14.688   5.016 -0.0471 -0.0178 -0.1134
 1127YOPC   GL116353   6.340  14.747   5.409  0.1889  0.0561 -0.0651
 1127YOPC   GL216354   6.023  14.752   5.595 -0.4475  0.0671 -0.3284
 1127YOPC   C1A16355   6.506  14.926   5.822  0.1585 -0.2682 -0.0019
 1127YOPC   D2A16356   6.693  14.805   6.204 -0.1210  0.3009 -0.1665
 1127YOPC   C3A16357   6.496  14.720   6.544 -0.0060 -0.1486  0.0189
 1127YOPC   C4A16358   6.141  14.640   6.847 -0.3908 -0.1951 -0.0699
 1127YOPC   C1B16359   5.989  14.796   5.981 -0.1757 -0.0158  0.2485
 1127YOPC   C2B16360   5.960  14.618   6.303 -0.1383 -0.2034 -0.0963
 1127YOPC   D3B16361   5.750  14.515   6.560  0.0128  0.0873  0.0217
 1127YOPC   C4B16362   5.780  14.212   6.949  0.3479  0.0932 -0.0541
 1128YOPC   NC316363  10.037  12.481   5.140  0.1257 -0.1720  0.1442
 1128YOPC   PO416364  10.346  12.656   5.453 -0.4365 -0.1416 -0.3365
 1128YOPC   GL116365  10.179  12.888   5.767 -0.4731  0.0776  0.0759
 1128YOPC   GL216366  10.192  13.201   5.694 -0.0610  0.2298 -0.1488
 1128YOPC   C1A16367  10.256  12.949   6.184  0.2653 -0.2063 -0.2954
 1128YOPC   D2A16368  10.273  13.045   6.605  0.1858  0.1699  0.0877
 1128YOPC   C3A16369   9.913  12.868   6.611 -0.1388  0.1345 -0.1684
 1128YOPC   C4A16370   9.515  12.891   6.721 -0.1715 -0.1650  0.1515
 1128YOPC   C1B16371   9.957  13.378   6.048 -0.4419 -0.2485  0.3071
 1128YOPC   C2B16372  10.074  13.515   6.430 -0.0400 -0.2247  0.1761
 1128YOPC   D3B16373  10.188  13.497   6.872  0.0289  0.1794 -0.1872
 1128YOPC   C4B16374  10.258  13.467   7.331 -0.4277 -0.0116  0.2105
 1129YOPC   NC316375  16.015  14.351   5.368 -0.0807  0.3103 -0.0357
 1129YOPC   PO416376  16.094  13.906   5.425 -0.0310 -0.2024 -0.1116
 1129YOPC   GL116377  15.897  14.066   5.795  0.0936 -0.0177  0.0726
 1129YOPC   GL216378  16.074  14.135   6.025 -0.0057  0.0288  0.2839
 1129YOPC   C1A16379  15.599  14.226   6.143  0.3680 -0.1424 -0.3748
 1129YOPC   D2A16380  15.556  14.433   6.559 -0.4377 -0.3770  0.1699
 1129YOPC   C3A16381  15.377  14.292   6.959 -0.0370 -0.0768  0.3455
 1129YOPC   C4A16382  15.581  14.126   7.396  0.4766 -0.0429 -0.0768
 1129YOPC   C1B16383  16.008  14.168   6.480  0.3787  0.1319 -0.0688
 1129YOPC   C2B16384  16.274  13.914   6.751  0.0822 -0.2955  0.0671
 1129YOPC   D3B16385  16.236  13.963   7.171  0.0685  0.1244  0.1314
 1129YOPC   C4B16386  16.335  13.763   7.480 -0.0021 -0.2230 -0.3822
 1130YOPC   NC316387  17.274  11.726   5.338  0.0394 -0.0372  0.2042
 1130YOPC   PO416388  17.149  11.239   5.363 -0.3013  0.1362 -0.1053
 1130YOPC   GL116389  16.904  11.343   5.554 -0.0044  0.3023  0.2139
 1130YOPC   GL216390  17.044  11.033   5.808  0.0927  0.0931 -0.1504
 1130YOPC   C1A16391  16.686  11.388   5.883 -0.0704 -0.1622 -0.3313
 1130YOPC   D2A16392  16.685  11.355   6.385  0.4714 -0.0098  0.1103
 1130YOPC   C3A16393  16.984  11.437   6.622 -0.0587  0.0303  0.1790
 1130YOPC   C4A16394  17.180  11.602   6.969  0.0513  0.0063  0.3376
 1130YOPC   C1B16395  17.023  10.984   6.272 -0.0268  0.2738 -0.0671
 1130YOPC   C2B16396  17.108  10.985   6.671  0.1532  0.0615  0.0270
 1130YOPC   D3B16397  16.860  10.977   7.014  0.1170 -0.0422 -0.0809
 1130YOPC   C4B16398  16.466  10.918   7.401 -0.3618  0.0566  0.4869
 1131YOPC   NC316399   9.356   0.079   5.513 -0.1774  0.4227 -0.0078
 1131YOPC   PO416400   9.142   0.541   5.562 -0.2219 -0.0691 -0.1534
 1131YOPC   GL116401   8.935   0.825   5.836  0.1163  0.4309 -0.1216
 1131YOPC   GL216402   8.908   0.617   6.098 -0.0917  0.1191  0.0916
 1131YOPC   C1A16403   8.736   1.347   5.686 -0.0601  0.1291 -0.1002
 1131YOPC   D2A16404   8.699   1.602   5.975  0.0924  0.0423 -0.2009
 1131YOPC   C3A16405   8.538   2.033   6.086  0.0522 -0.1346  0.1934
 1131YOPC   C4A16406   8.414   2.332   6.494  0.1032  0.2008  0.0196
 1131YOPC   C1B16407   8.945   0.652   6.524 -0.1670 -0.2578 -0.2202
 1131YOPC   C2B16408   9.224   0.485   6.889  0.0102  0.2865 -0.0301
 1131YOPC   D3B16409   9.228   0.662   7.227 -0.1707  0.0570  0.1685
 1131YOPC   C4B16410   9.221   0.659   7.643 -0.2027 -0.3432 -0.2725
 1132YOPC   NC316411   6.129   4.729   4.307  0.2276 -0.2111 -0.2942
 1132YOPC   PO416412   6.063   4.628   4.743 -0.1133  0.1044  0.0833
 1132YOPC   GL116413   5.949   4.817   5.105 -0.2828 -0.3136  0.0060
 1132YOPC   GL216414   5.762   5.077   5.220  0.1135 -0.0934  0.0667
 1132YOPC   C1A16415   6.102   4.668   5.497  0.1436  0.1934  0.0509
 1132YOPC   D2A16416   6.152   4.621   5.955  0.1054  0.0276  0.0115
 1132YOPC   C3A16417   5.954   4.826   6.313 -0.1033  0.0614 -0.1838
 1132YOPC   C4A16418   5.712   4.853   6.638 -0.0641  0.1153 -0.0254
 1132YOPC   C1B16419   5.618   4.811   5.496  0.2214 -0.3190  0.0180
 1132YOPC   C2B16420   5.635   4.782   5.893 -0.1170  0.2537  0.2030
 1132YOPC   D3B16421   5.539   4.530   6.163  0.0081  0.2026  0.0303
 1132YOPC   C4B16422   5.490   4.314   6.485  0.3885 -0.1010 -0.3175
 1133YOPC   NC316423   1.643  13.458   4.696 -0.3935 -0.0589 -0.1364
 1133YOPC   PO416424   1.688  13.509   5.142  0.1764 -0.1051  0.1554
 1133YOPC   GL116425   1.560  13.363   5.503  0.2549  0.2653 -0.1246
 1133YOPC   GL216426   1.585  13.136   5.706 -0.0587 -0.3923 -0.0389
 1133YOPC   C1A16427   1.468  13.547   5.947  0.1064  0.1732  0.2118
 1133YOPC   D2A16428   1.440  13.561   6.442  0.0922 -0.1611 -0.1542
 1133YOPC   C3A16429   1.627  13.583   6.808 -0.1666  0.1107 -0.0919
 1133YOPC   C4A16430   1.686  13.556   7.109  0.0073  0.3453  0.0115
 1133YOPC   C1B16431   1.590  13.094   6.174 -0.1308  0.4935 -0.0671
 1133YOPC   C2B16432   1.530  13.072   6.542 -0.0980 -0.2343 -0.3651
 1133YOPC   D3B16433   1.899  13.085   6.829 -0.1169  0.1666 -0.0041
 1133YOPC   C4B16434   2.175  12.878   7.018 -0.2666 -0.1074 -0.2656
 1134YOPC   NC316435   8.431  12.078   5.339  0.2609 -0.0477  0.3475
 1134YOPC   PO416436   8.325  11.735   5.071 -0.1374  0.1704 -0.1651
 1134YOPC   GL116437   8.017  11.803   5.497 -0.1849 -0.1005  0.1617
 1134YOPC   GL216438   8.010  11.997   5.702 -0.2062 -0.5040 -0.1169
 1134YOPC   C1A16439   7.692  11.587   5.644  0.0126 -0.1283  0.0597
 1134YOPC   D2A16440   7.514  11.312   5.833  0.0101 -0.3414 -0.1530
 1134YOPC   C3A16441   7.731  10.980   5.717  0.2674  0.1361 -0.0494
 1134YOPC   C4A16442   8.146  10.842   5.787  0.2975  0.0444 -0.0298
 1134YOPC   C1B16443   8.488  12.070   5.942 -0.0107 -0.2426  0.3296
 1134YOPC   C2B16444   8.713  12.436   6.213  0.1935 -0.1188  0.0712
 1134YOPC   D3B16445   9.168  12.481   6.427 -0.1362 -0.0528 -0.1723
 1134YOPC   C4B16446   9.126  12.540   6.854  0.0535 -0.2187 -0.1315
 1135YOPC   NC316447   8.989   6.121   4.448  0.1151  0.0108  0.1730
 1135YOPC   PO416448   9.142   6.385   4.702  0.0273 -0.0558 -0.0266
 1135YOPC   GL116449   8.980   6.258   5.110  0.1002  0.0180 -0.2603
 1135YOPC   GL216450   8.651   6.313   5.186  0.1193  0.0472 -0.0255
 1135YOPC   C1A16451   8.941   6.268   5.579  0.3061 -0.1781 -0.0460
 1135YOPC   D2A16452   9.268   6.211   5.856  0.0557 -0.0800 -0.3569
 1135YOPC   C3A16453   9.182   6.070   6.305 -0.1734 -0.0952 -0.1591
 1135YOPC   C4A16454   9.324   6.244   6.717  0.2037 -0.5322  0.2176
 1135YOPC   C1B16455   8.322   6.115   5.466  0.0602 -0.0142 -0.0028
 1135YOPC   C2B16456   8.277   6.355   5.828  0.2968 -0.1276  0.0596
 1135YOPC   D3B16457   8.687   6.380   6.042 -0.3479 -0.1617  0.2725
 1135YOPC   C4B16458   9.036   6.586   6.273 -0.2659 -0.1672 -0.0747
 1136YOPC   NC316459  14.320  19.227   5.685  0.1005 -0.2143  0.0002
 1136YOPC   PO416460  14.452  18.985   5.953 -0.3080  0.0550 -0.3350
 1136YOPC   GL116461  14.333  19.087   6.348  0.0851  0.0225  0.5477
 1136YOPC   GL216462  14.015  19.039   6.467  0.0604 -0.1916 -0.5159
 1136YOPC   C1A16463  14.286  19.443   6.616  0.1224  0.4582  0.3830
 1136YOPC   D2A16464  14.207  19.365   7.010 -0.2153 -0.1158  0.0456
 1136YOPC   C3A16465  13.861  19.514   7.190  0.0760 -0.3096 -0.1519
 1136YOPC   C4A16466  13.684  19.454   7.564 -0.0332  0.3408 -0.1973
 1136YOPC   C1B16467  14.081  18.941   6.855 -0.0638  0.1393  0.2326
 1136YOPC   C2B16468  13.889  19.024   7.244 -0.3074 -0.1951 -0.2279
 1136YOPC   D3B16469  13.483  19.024   7.341 -0.0641  0.1741 -0.0066
 1136YOPC   C4B16470  13.193  19.396   7.495 -0.0409  0.1187  0.0043
 1137YOPC   NC316471  10.669   8.819   4.601  0.3123 -0.2467  0.1307
 1137YOPC   PO416472  10.662   8.590   4.962  0.0861 -0.0920  0.1264
 1137YOPC   GL116473  10.526   8.516   5.277  0.2503 -0.0357  0.2202
 1137YOPC   GL216474  10.255   8.453   5.455 -0.1048  0.0682 -0.2486
 1137YOPC   C1A16475  10.718   8.507   5.729  0.1342 -0.2513 -0.0985
 1137YOPC   D2A16476  10.749   8.589   6.180  0.1744  0.0793  0.0409
 1137YOPC   C3A16477  11.180   8.521   6.326  0.0802  0.0822  0.1996
 1137YOPC   C4A16478  11.301   8.328   6.632 -0.0014 -0.0372  0.1891
 1137YOPC   C1B16479  10.207   8.485   5.891  0.0768 -0.1089  0.2595
 1137YOPC   C2B16480  10.011   8.532   6.310  0.0768 -0.1806  0.1174
 1137YOPC   D3B16481   9.917   8.248   6.686  0.2034 -0.0664  0.0179
 1137YOPC   C4B16482   9.804   8.186   7.000  0.0402 -0.0142  0.1601
 1138YOPC   NC316483   5.809  17.561   5.120 -0.0764  0.3421 -0.2770
 1138YOPC   PO416484   6.262  17.827   5.007 -0.5157 -0.0293  0.6284
 1138YOPC   GL116485   6.252  17.637   5.431 -0.0581 -0.0912 -0.0045
 1138YOPC   GL216486   5.958  17.633   5.548 -0.0006 -0.2756 -0.3226
 1138YOPC   C1A16487   6.368  17.338   5.602  0.0446 -0.0916  0.0148
 1138YOPC   D2A16488   6.616  17.105   5.798 -0.4241  0.0402  0.3475
 1138YOPC   C3A16489   6.422  16.750   5.890  0.0030 -0.0278 -0.1812
 1138YOPC   C4A16490   6.638  16.576   6.154 -0.0578  0.0372 -0.0080
 1138YOPC   C1B16491   5.549  17.587   5.769  0.0718 -0.1914  0.0062
 1138YOPC   C2B16492   4.993  17.628   6.106 -0.2382  0.0279  0.1504
 1138YOPC   D3B16493   4.926  17.893   6.600  0.1023  0.0289  0.1090
 1138YOPC   C4B16494   4.679  18.218   6.697  0.0541  0.2272  0.6480
 1139YOPC   NC316495  11.072  17.650   5.827  0.3002  0.0749 -0.0133
 1139YOPC   PO416496  11.392  17.727   6.046 -0.1314 -0.0829  0.1032
 1139YOPC   GL116497  11.582  17.792   6.430  0.0826  0.0768 -0.0155
 1139YOPC   GL216498  11.611  18.162   6.381  0.0168  0.1204  0.1934
 1139YOPC   C1A16499  11.576  17.543   6.818  0.0530  0.1550 -0.1251
 1139YOPC   D2A16500  11.493  17.245   7.009  0.0390  0.3082 -0.0683
 1139YOPC   C3A16501  11.225  17.143   7.327  0.1175  0.3279 -0.1412
 1139YOPC   C4A16502  11.086  16.864   7.659  0.1268 -0.1542 -0.2634
 1139YOPC   C1B16503  11.487  18.298   6.817  0.2645  0.2234  0.3344
 1139YOPC   C2B16504  11.277  18.353   7.202  0.3240  0.1147  0.0331
 1139YOPC   D3B16505  11.459  18.225   7.640  0.0240  0.0526  0.0609
 1139YOPC   C4B16506  11.397  18.276   8.023 -0.0260 -0.1922  0.0128
 1140YOPC   NC316507   6.545   5.322   5.004 -0.0423  0.0172 -0.0149
 1140YOPC   PO416508   6.699   5.324   5.321  0.0936  0.2032  0.0303
 1140YOPC   GL116509   6.708   4.903   5.453  0.3334  0.4177 -0.2356
 1140YOPC   GL216510   6.535   5.014   5.738  0.2242 -0.2179 -0.1261
 1140YOPC   C1A16511   6.619   4.512   5.710 -0.1452  0.0484 -0.1250
 1140YOPC   D2A16512   6.498   4.238   6.018 -0.0398  0.3237 -0.1744
 1140YOPC   C3A16513   6.269   4.351   6.416 -0.2627  0.2651  0.0911
 1140YOPC   C4A16514   6.176   4.532   6.700 -0.2502 -0.0053 -0.1864
 1140YOPC   C1B16515   6.529   5.262   6.036 -0.1170  0.2768 -0.2022
 1140YOPC   C2B16516   6.632   5.338   6.425  0.1913  0.0244 -0.0654
 1140YOPC   D3B16517   6.975   5.555   6.837 -0.2294 -0.0920  0.2616
 1140YOPC   C4B16518   7.231   5.711   7.052  0.2721 -0.2000 -0.1133
 1141YOPC   NC316519   3.969   8.851   5.136 -0.3361 -0.0532 -0.2470
 1141YOPC   PO416520   4.327   8.649   5.098  0.2105 -0.0197 -0.0963
 1141YOPC   GL116521   4.357   8.659   5.519 -0.0725  0.1346  0.0534
 1141YOPC   GL216522   4.005   8.695   5.680  0.1907  0.1456  0.2601
 1141YOPC   C1A16523   4.702   8.795   5.762  0.2031 -0.1537  0.2555
 1141YOPC   D2A16524   4.911   9.215   5.927 -0.0370  0.0986  0.2015
 1141YOPC   C3A16525   5.354   9.327   6.158 -0.3884  0.0365 -0.2083
 1141YOPC   C4A16526   5.448   9.360   6.506 -0.3264 -0.2694  0.0115
 1141YOPC   C1B16527   3.946   8.664   6.083  0.2847 -0.2961 -0.3042
 1141YOPC   C2B16528   3.908   8.924   6.408  0.0588  0.3479 -0.0248
 1141YOPC   D3B16529   3.974   9.333   6.365  0.1896 -0.0857  0.2171
 1141YOPC   C4B16530   4.083   9.562   6.065  0.1766  0.2657  0.0270
 1142YOPC   NC316531  12.845   0.904   5.249 -0.0882  0.2558  0.1230
 1142YOPC   PO416532  13.032   1.012   5.731  0.1466 -0.0169  0.2022
 1142YOPC   GL116533  12.981   1.010   6.104  0.1961 -0.1859 -0.2444
 1142YOPC   GL216534  12.888   0.845   6.297  0.2544 -0.5967  0.0743
 1142YOPC   C1A16535  13.264   1.229   6.433 -0.0090 -0.0969  0.0779
 1142YOPC   D2A16536  13.653   1.297   6.801 -0.0786  0.0153  0.2113
 1142YOPC   C3A16537  13.752   1.356   7.208  0.0166  0.1890 -0.1279
 1142YOPC   C4A16538  13.860   1.497   7.592 -0.4542 -0.1770 -0.0882
 1142YOPC   C1B16539  12.684   1.133   6.632  0.1171  0.1373  0.0186
 1142YOPC   C2B16540  12.483   1.169   7.032 -0.0781 -0.1077  0.0722
 1142YOPC   D3B16541  12.512   1.571   7.169  0.1434  0.5693  0.4024
 1142YOPC   C4B16542  12.720   1.710   7.599  0.3623  0.0989 -0.1444
 1143YOPC   NC316543  14.808   4.852   5.098  0.2321 -0.2805 -0.1444
 1143YOPC   PO416544  14.354   5.073   5.216 -0.0318  0.0746  0.0366
 1143YOPC   GL116545  14.249   5.081   5.731 -0.0258  0.2714  0.2408
 1143YOPC   GL216546  14.549   5.267   5.912 -0.0879  0.1476 -0.3243
 1143YOPC   C1A16547  14.108   5.008   6.203  0.0980 -0.0149 -0.1667
 1143YOPC   D2A16548  14.179   4.912   6.651  0.0050  0.2243 -0.1826
 1143YOPC   C3A16549  14.224   5.148   7.087 -0.0050  0.2581  0.0734
 1143YOPC   C4A16550  14.165   5.467   7.322 -0.2039  0.1693 -0.0268
 1143YOPC   C1B16551  14.493   5.419   6.286  0.3024 -0.0440 -0.1192
 1143YOPC   C2B16552  14.095   5.546   6.461  0.0147  0.0692 -0.2212
 1143YOPC   D3B16553  14.183   5.603   6.847 -0.0039  0.2306 -0.0712
 1143YOPC   C4B16554  14.622   5.612   7.109  0.2269 -0.1685  0.1207
 1144YOPC   NC316555   9.812  16.137   5.505  0.1163 -0.3422 -0.2724
 1144YOPC   PO416556   9.369  15.992   5.637  0.2162  0.0236 -0.1774
 1144YOPC   GL116557   9.190  15.689   5.841  0.0601  0.1811 -0.2449
 1144YOPC   GL216558   8.971  15.517   5.717  0.0909  0.0397 -0.2514
 1144YOPC   C1A16559   9.009  15.556   6.273  0.2116 -0.4268 -0.3946
 1144YOPC   D2A16560   9.072  15.407   6.646 -0.0806  0.0985  0.0486
 1144YOPC   C3A16561   9.369  15.480   6.979  0.1264 -0.3393 -0.1576
 1144YOPC   C4A16562   9.676  15.849   7.017  0.1979  0.1111 -0.0308
 1144YOPC   C1B16563   8.958  15.152   6.026 -0.1148  0.3681 -0.0327
 1144YOPC   C2B16564   8.674  14.971   6.447 -0.0819 -0.3054 -0.4130
 1144YOPC   D3B16565   8.336  14.897   6.631  0.1640 -0.0920 -0.0906
 1144YOPC   C4B16566   8.073  14.539   6.851 -0.2012  0.0912 -0.0983
 1145YOPC   NC316567  13.478  13.655   5.759  0.0023 -0.1432  0.1470
 1145YOPC   PO416568  13.512  14.070   5.576  0.2136 -0.0272 -0.0019
 1145YOPC   GL116569  13.613  14.178   5.966  0.0767 -0.3066  0.0058
 1145YOPC   GL216570  13.325  14.041   6.181  0.1258  0.0849 -0.2566
 1145YOPC   C1A16571  13.758  13.886   6.386 -0.0138 -0.2874  0.0449
 1145YOPC   D2A16572  13.599  13.541   6.594  0.1461  0.0591 -0.0337
 1145YOPC   C3A16573  13.447  13.591   6.946  0.4213  0.1841 -0.3057
 1145YOPC   C4A16574  13.543  13.406   7.457 -0.2681 -0.0423  0.1829
 1145YOPC   C1B16575  13.282  13.985   6.652 -0.0766 -0.1284  0.1660
 1145YOPC   C2B16576  12.821  14.228   6.910 -0.2677 -0.0506  0.0663
 1145YOPC   D3B16577  12.516  14.040   7.264  0.1262 -0.0732 -0.1717
 1145YOPC   C4B16578  12.235  13.704   7.355 -0.1279  0.0014  0.3471
 1146ERGO   ROH16579  13.621  18.979   6.738 -0.1133 -0.0959  0.1874
 1146ERGO    R116580  13.566  19.236   6.844 -0.1665 -0.0108 -0.0421
 1146ERGO    R216581  13.354  19.390   6.758 -0.4236 -0.2948  0.0780
 1146ERGO    R316582  13.292  19.395   7.022 -0.0388 -0.0245  0.1736
 1146ERGO    R416583  13.227  19.664   6.925 -0.4427 -0.1977 -0.0920
 1146ERGO    R516584  13.356  19.614   7.094 -0.1373  0.1408 -0.2041
 1146ERGO    C116585  13.095  19.829   7.271 -0.0925  0.1125 -0.1012
 1146ERGO    C216586  12.991  20.072   7.506  0.1282 -0.0276 -0.1426
 1147ERGO   ROH16587   3.061  12.522   5.387 -0.1035  0.1263 -0.1082
 1147ERGO    R116588   2.835  12.610   5.532 -0.0836  0.0609 -0.0386
 1147ERGO    R216589   2.656  12.434   5.648  0.0773  0.0110  0.1297
 1147ERGO    R316590   2.710  12.578   5.873  0.0995  0.1476  0.0389
 1147ERGO    R416591   2.466  12.429   5.937  0.1687  0.0875  0.1923
 1147ERGO    R516592   2.495  12.644   5.955  0.0976  0.1115  0.0716
 1147ERGO    C116593   2.407  12.561   6.316  0.2427  0.2601  0.1436
 1147ERGO    C216594   2.310  12.539   6.680 -0.0704  0.2725  0.0807
 1148ERGO   ROH16595   3.086   1.783   5.824  0.0700 -0.2229 -0.2405
 1148ERGO    R116596   3.271   1.878   6.016  0.0435 -0.1721 -0.2405
 1148ERGO    R216597   3.198   1.941   6.275 -0.0073 -0.0300 -0.2894
 1148ERGO    R316598   3.397   1.768   6.339 -0.0619 -0.0446 -0.1549
 1148ERGO    R416599   3.351   1.923   6.584  0.0573  0.2324 -0.3027
 1148ERGO    R516600   3.542   1.894   6.482  0.0229  0.0491 -0.3200
 1148ERGO    C116601   3.628   1.749   6.824  0.0435  0.3714 -0.1842
 1148ERGO    C216602   3.860   1.719   7.210  0.1708 -0.2734  0.1084
 1149ERGO   ROH16603   5.644  15.244   5.595 -0.2153 -0.0975  0.0093
 1149ERGO    R116604   5.716  15.201   5.865 -0.2489 -0.0787  0.0207
 1149ERGO    R216605   5.744  15.408   6.046 -0.0804 -0.0489 -0.0410
 1149ERGO    R316606   5.567  15.261   6.192 -0.1991  0.1363  0.0066
 1149ERGO    R416607   5.677  15.455   6.382  0.0278  0.0546 -0.0329
 1149ERGO    R516608   5.671  15.238   6.407 -0.1784  0.0586 -0.0093
 1149ERGO    C116609   5.472  15.345   6.714 -0.0205  0.2887  0.0164
 1149ERGO    C216610   5.303  15.353   7.034  0.4452  0.0873  0.1715
 1150ERGO   ROH16611  16.755  10.551   6.131 -0.1262 -0.0450  0.0566
 1150ERGO    R116612  16.785  10.568   6.412 -0.0875  0.0488  0.0494
 1150ERGO    R216613  16.609  10.708   6.572 -0.1583 -0.0206  0.0496
 1150ERGO    R316614  16.591  10.471   6.705  0.0226 -0.0035  0.1029
 1150ERGO    R416615  16.505  10.672   6.900  0.1208 -0.0153  0.1392
 1150ERGO    R516616  16.661  10.522   6.928  0.1845  0.0436  0.0357
 1150ERGO    C116617  16.428  10.429   7.215  0.4533  0.0038  0.2414
 1150ERGO    C216618  16.195  10.528   7.413  0.1547 -0.0207 -0.0650
 1151ERGO   ROH16619   8.817  13.253   5.724 -0.0064  0.2865 -0.0498
 1151ERGO    R116620   8.916  13.319   5.981  0.0888  0.0544 -0.0243
 1151ERGO    R216621   9.179  13.392   6.025  0.0992  0.0652 -0.0614
 1151ERGO    R316622   9.064  13.610   6.141  0.0964 -0.0704  0.1940
 1151ERGO    R416623   9.329  13.589   6.266  0.2006 -0.0271 -0.0492
 1151ERGO    R516624   9.137  13.600   6.369  0.2907 -0.1904  0.1224
 1151ERGO    C116625   9.309  13.908   6.515  0.2570 -0.2081  0.1977
 1151ERGO    C216626   9.414  13.997   6.877  0.0012 -0.1619  0.0013
 1152ERGO   ROH16627   1.393   7.398   6.737  0.1452 -0.2067  0.0908
 1152ERGO    R116628   1.383   7.421   7.019  0.1476 -0.0892  0.0818
 1152ERGO    R216629   1.247   7.625   7.147  0.0829 -0.0795 -0.0012
 1152ERGO    R316630   1.124   7.420   7.275  0.1568 -0.0671  0.0913
 1152ERGO    R416631   1.089   7.650   7.453 -0.1242  0.0578 -0.1170
 1152ERGO    R516632   1.172   7.456   7.506 -0.0113  0.1613  0.0946
 1152ERGO    C116633   0.880   7.472   7.751 -0.1754  0.1495 -0.0977
 1152ERGO    C216634   0.717   7.555   7.894  0.1614  0.0565 -0.0958
 1153ERGO   ROH16635   0.576  13.215   5.613  0.0186 -0.3689  0.1518
 1153ERGO    R116636   0.458  13.259   5.867  0.0116 -0.0676  0.0993
 1153ERGO    R216637   0.501  13.091   6.082 -0.2461  0.0108  0.2092
 1153ERGO    R316638   0.576  13.321   6.206  0.0066 -0.0034  0.0913
 1153ERGO    R416639   0.500  13.140   6.424  0.0402  0.0971  0.2010
 1153ERGO    R516640   0.424  13.342   6.389  0.1503  0.1467  0.2023
 1153ERGO    C116641   0.570  13.385   6.739  0.4441  0.1340  0.0855
 1153ERGO    C216642   0.832  13.409   7.140  0.2664 -0.0265  0.0175
 1154ERGO   ROH16643   9.742  14.851   5.780  0.1034  0.0694  0.1189
 1154ERGO    R116644   9.861  14.794   6.030 -0.0418  0.0914  0.1933
 1154ERGO    R216645   9.927  14.991   6.212 -0.0669  0.1130  0.1744
 1154ERGO    R316646   9.775  14.841   6.381 -0.2011  0.2074  0.1407
 1154ERGO    R416647   9.893  15.049   6.551  0.2091 -0.0877  0.2396
 1154ERGO    R516648   9.903  14.833   6.584 -0.0936 -0.1354  0.0690
 1154ERGO    C116649   9.732  14.941   6.907  0.2437 -0.1161  0.2459
 1154ERGO    C216650   9.651  15.018   7.177  0.0062  0.2576  0.0477
 1155ERGO   ROH16651   7.088   1.048   5.700 -0.0864  0.0796 -0.0271
 1155ERGO    R116652   6.896   0.894   5.840 -0.1611  0.1425 -0.0602
 1155ERGO    R216653   6.953   0.765   6.077 -0.1786 -0.0548 -0.1636
 1155ERGO    R316654   6.736   0.903   6.166 -0.0410  0.0608  0.0024
 1155ERGO    R416655   6.750   0.666   6.338 -0.1523 -0.0588 -0.1439
 1155ERGO    R516656   6.578   0.733   6.223 -0.1495  0.1440 -0.0399
 1155ERGO    C116657   6.428   0.737   6.574 -0.0077  0.0474  0.0234
 1155ERGO    C216658   6.221   0.652   6.837  0.1685 -0.2548 -0.0440
 1156ERGO   ROH16659   9.736  10.451   5.464  0.0258 -0.1288  0.0365
 1156ERGO    R116660   9.781  10.370   5.732 -0.1101 -0.1431  0.0562
 1156ERGO    R216661   9.892  10.538   5.921 -0.0029 -0.2217  0.0673
 1156ERGO    R316662   9.669  10.475   6.062 -0.0966 -0.0071  0.0174
 1156ERGO    R416663   9.852  10.589   6.260 -0.1051 -0.0188  0.0257
 1156ERGO    R516664   9.751  10.396   6.273 -0.2294  0.0520  0.0905
 1156ERGO    C116665   9.618  10.560   6.590 -0.2526  0.3009 -0.0454
 1156ERGO    C216666   9.615  10.655   6.851 -0.1235  0.2161  0.0961
 1157ERGO   ROH16667   0.775  16.073   6.835 -0.0010 -0.0124 -0.1992
 1157ERGO    R116668   0.611  16.292   6.906 -0.0338 -0.0629 -0.1183
 1157ERGO    R216669   0.611  16.403   7.159  0.1068 -0.0206 -0.1372
 1157ERGO    R316670   0.661  16.633   7.023 -0.0787 -0.0234 -0.2124
 1157ERGO    R416671   0.563  16.721   7.285  0.1266 -0.0186 -0.1340
 1157ERGO    R516672   0.485  16.781   7.091 -0.0636 -0.0658 -0.0752
 1157ERGO    C116673   0.581  17.122   7.232 -0.0361 -0.0203 -0.2027
 1157ERGO    C216674   0.495  17.434   7.175  0.2564  0.0061 -0.1031
 1158ERGO   ROH16675   1.472  12.265   5.433  0.0858  0.2714 -0.0191
 1158ERGO    R116676   1.436  12.292   5.712  0.1559  0.2102 -0.0043
 1158ERGO    R216677   1.334  12.087   5.869 -0.0031  0.2485 -0.0586
 1158ERGO    R316678   1.562  12.128   6.011  0.0584 -0.0062 -0.0791
 1158ERGO    R416679   1.366  12.043   6.210 -0.0168  0.1893 -0.0646
 1158ERGO    R516680   1.489  12.222   6.218  0.1792  0.0604 -0.0641
 1158ERGO    C116681   1.599  12.054   6.542  0.0329 -0.0845 -0.0874
 1158ERGO    C216682   1.523  11.915   6.853 -0.1187 -0.2358  0.2204
 1159ERGO   ROH16683   8.490  14.131   5.434 -0.0157 -0.0176 -0.0360
 1159ERGO    R116684   8.373  14.243   5.666 -0.1149 -0.2636  0.0375
 1159ERGO    R216685   8.339  14.099   5.899  0.2219 -0.3801  0.0273
 1159ERGO    R316686   8.476  14.307   6.009 -0.0772 -0.1671  0.0069
 1159ERGO    R416687   8.408  14.134   6.236  0.3764 -0.3627 -0.0064
 1159ERGO    R516688   8.366  14.347   6.218 -0.0170 -0.4312  0.0885
 1159ERGO    C116689   8.577  14.348   6.536  0.1856 -0.1527 -0.0453
 1159ERGO    C216690   8.634  14.544   6.844  0.0548 -0.0223 -0.0165
 1160ERGO   ROH16691   8.255   9.208   5.833  0.2998  0.3468  0.0526
 1160ERGO    R116692   8.121   9.346   6.041  0.1213  0.1918  0.0430
 1160ERGO    R216693   8.111   9.621   6.054 -0.0796  0.1814  0.1207
 1160ERGO    R316694   7.843   9.579   6.067 -0.0565 -0.0127  0.0075
 1160ERGO    R416695   7.872   9.871   6.072 -0.2516  0.0103  0.2485
 1160ERGO    R516696   7.763   9.749   6.217 -0.2151 -0.1808  0.1215
 1160ERGO    C116697   7.482   9.976   6.096 -0.3300 -0.2713  0.2167
 1160ERGO    C216698   7.305  10.292   6.211  0.0069 -0.0677  0.2304
 1161ERGO   ROH16699  16.827   7.993   5.592  0.1669 -0.0543  0.1118
 1161ERGO    R116700  16.839   7.925   5.866  0.0745 -0.0586  0.1146
 1161ERGO    R216701  16.758   8.097   6.066  0.0508 -0.0460  0.0896
 1161ERGO    R316702  16.603   7.887   6.141 -0.0111 -0.0164  0.0483
 1161ERGO    R416703  16.670   8.022   6.392  0.1092 -0.1340  0.0860
 1161ERGO    R516704  16.700   7.811   6.346  0.0172 -0.1316 -0.0040
 1161ERGO    C116705  16.474   7.781   6.652  0.0849 -0.1574  0.0452
 1161ERGO    C216706  16.188   7.800   6.897 -0.1371 -0.0421  0.1003
 1162ERGO   ROH16707  10.111   7.959   5.402  0.1378  0.0366  0.0099
 1162ERGO    R116708  10.138   8.028   5.675  0.1729 -0.0864  0.0369
 1162ERGO    R216709   9.967   7.933   5.870  0.0767 -0.0117 -0.0169
 1162ERGO    R316710  10.198   7.850   5.987 -0.0034 -0.2509 -0.0190
 1162ERGO    R416711  10.047   7.980   6.203  0.1721  0.0198 -0.0432
 1162ERGO    R516712  10.252   8.025   6.142  0.2271 -0.2497 -0.0903
 1162ERGO    C116713  10.311   7.931   6.507  0.1525 -0.1864 -0.0604
 1162ERGO    C216714  10.217   7.875   6.855 -0.0389 -0.2208  0.0505
 1163ERGO   ROH16715  10.075  17.725   6.193 -0.0921  0.1304  0.0635
 1163ERGO    R116716  10.092  17.893   6.421  0.0274  0.1122  0.0688
 1163ERGO    R216717   9.912  17.878   6.630 -0.0742  0.3327  0.0009
 1163ERGO    R316718  10.138  17.849   6.779 -0.1636  0.0547  0.0871
 1163ERGO    R416719   9.936  17.944   6.969 -0.1506  0.1808  0.0366
 1163ERGO    R516720  10.132  18.032   6.933 -0.0476  0.0029  0.1535
 1163ERGO    C116721  10.162  17.954   7.305 -0.2790 -0.1686  0.1385
 1163ERGO    C216722  10.062  18.007   7.590 -0.1501  0.0951 -0.2118
 1164ERGO   ROH16723  10.418  13.680   5.721  0.2563  0.0369 -0.2230
 1164ERGO    R116724  10.395  13.629   5.998  0.1415  0.0866 -0.2231
 1164ERGO    R216725  10.498  13.402   6.117 -0.0019  0.0551 -0.1566
 1164ERGO    R316726  10.622  13.583   6.278  0.0286  0.0211 -0.1417
 1164ERGO    R416727  10.621  13.334   6.433  0.0957 -0.0209 -0.2103
 1164ERGO    R516728  10.546  13.528   6.499  0.0975 -0.0463 -0.1348
 1164ERGO    C116729  10.808  13.463   6.768  0.1812 -0.0970 -0.2277
 1164ERGO    C216730  10.850  13.331   7.050  0.1115 -0.0016 -0.0735
 1165ERGO   ROH16731  13.726  18.577   6.471  0.1620  0.0237  0.0361
 1165ERGO    R116732  13.526  18.556   6.669  0.0874 -0.0663 -0.0486
 1165ERGO    R216733  13.553  18.396   6.893  0.1187  0.0435  0.0227
 1165ERGO    R316734  13.497  18.627   7.025 -0.1367  0.0480 -0.0858
 1165ERGO    R416735  13.410  18.414   7.207  0.0694  0.0248  0.0018
 1165ERGO    R516736  13.291  18.583   7.137 -0.1059 -0.1262 -0.0871
 1165ERGO    C116737  13.274  18.641   7.514 -0.1991  0.0179 -0.1124
 1165ERGO    C216738  13.150  18.967   7.706  0.1416  0.4506  0.2501
 1166ERGO   ROH16739  10.563   8.051   5.467 -0.1683 -0.2514 -0.0135
 1166ERGO    R116740  10.589   7.954   5.732  0.0862 -0.1918 -0.0131
 1166ERGO    R216741  10.825   7.970   5.874  0.1579  0.0724 -0.1499
 1166ERGO    R316742  10.668   8.095   6.058  0.1316 -0.0636 -0.0799
 1166ERGO    R416743  10.921   8.044   6.198  0.2083  0.0924 -0.1697
 1166ERGO    R516744  10.722   7.987   6.265  0.2721 -0.0548 -0.1133
 1166ERGO    C116745  10.829   8.204   6.559  0.2131 -0.0236 -0.1156
 1166ERGO    C216746  10.869   8.499   6.763  0.0199  0.1289 -0.1872
 1167ERGO   ROH16747  18.214  17.448   6.030 -0.0894  0.0472 -0.0494
 1167ERGO    R116748  18.486  17.523   6.018 -0.0642 -0.0587 -0.1325
 1167ERGO    R216749  18.615  17.652   6.225 -0.0307  0.1542 -0.2867
 1167ERGO    R316750  18.790  17.446   6.203 -0.0956  0.0660 -0.0262
 1167ERGO    R416751  18.947  17.664   6.321 -0.0180  0.1879 -0.3320
 1167ERGO    R516752  18.997  17.550   6.142 -0.0686 -0.0728 -0.1893
 1167ERGO    C116753  19.304  17.477   6.356 -0.0716  0.1245 -0.1138
 1167ERGO    C216754  19.586  17.601   6.477 -0.0348 -0.0216  0.1034
 1168ERGO   ROH16755  18.373   0.208   5.794  0.1016 -0.0009  0.0435
 1168ERGO    R116756  18.549   0.332   5.979  0.1161 -0.0949  0.0931
 1168ERGO    R216757  18.544   0.604   6.029  0.3679 -0.0629 -0.0441
 1168ERGO    R316758  18.517   0.523   6.287  0.1193  0.0902 -0.0191
 1168ERGO    R416759  18.643   0.787   6.305  0.6129 -0.1273 -0.0863
 1168ERGO    R516760  18.715   0.602   6.396  0.2362 -0.2336  0.0174
 1168ERGO    C116761  18.674   0.817   6.708  0.5220 -0.0211 -0.0874
 1168ERGO    C216762  18.630   0.730   7.028  0.1657  0.0196  0.1804
 1169ERGO   ROH16763  10.171  17.321   5.947  0.1227 -0.2016 -0.0456
 1169ERGO    R116764  10.099  17.261   6.214  0.1263 -0.1076 -0.0230
 1169ERGO    R216765  10.264  17.316   6.429  0.1630 -0.1010 -0.0502
 1169ERGO    R316766  10.045  17.447   6.522  0.2110 -0.0066 -0.0697
 1169ERGO    R416767  10.186  17.356   6.763  0.0533 -0.2174 -0.0612
 1169ERGO    R516768   9.977  17.320   6.713  0.0511 -0.0565 -0.1615
 1169ERGO    C116769   9.935  17.503   7.045  0.0344 -0.1964 -0.0858
 1169ERGO    C216770  10.089  17.479   7.304  0.2114  0.2088 -0.0936
 1170ERGO   ROH16771  14.472   5.997   5.795 -0.1328 -0.0351  0.0346
 1170ERGO    R116772  14.420   6.062   6.065 -0.1777 -0.0953  0.0412
 1170ERGO    R216773  14.442   5.878   6.270 -0.1044 -0.1150  0.0193
 1170ERGO    R316774  14.608   6.065   6.377 -0.1945 -0.0529  0.0500
 1170ERGO    R416775  14.578   5.863   6.587  0.1404 -0.2489 -0.0893
 1170ERGO    R516776  14.543   6.077   6.607 -0.0385 -0.2963  0.1083
 1170ERGO    C116777  14.812   6.029   6.873  0.1984 -0.2684 -0.1236
 1170ERGO    C216778  15.153   6.042   6.959 -0.0044 -0.1155  0.4456
 1171ERGO   ROH16779   2.155   7.981   5.834  0.2496  0.1498 -0.0037
 1171ERGO    R116780   2.188   8.007   6.114  0.3507  0.2074 -0.0238
 1171ERGO    R216781   2.210   8.252   6.240  0.0570  0.2336 -0.0552
 1171ERGO    R316782   2.004   8.157   6.390  0.2699 -0.0505  0.0724
 1171ERGO    R416783   2.128   8.365   6.556 -0.1738  0.5005 -0.2034
 1171ERGO    R516784   2.089   8.159   6.614  0.3037  0.4560  0.0821
 1171ERGO    C116785   1.887   8.342   6.881 -0.1082  0.3891 -0.1700
 1171ERGO    C216786   1.955   8.364   7.274 -0.0191 -0.1425 -0.0726
 1172ERGO   ROH16787  13.153  11.238   5.688 -0.1475  0.0450 -0.0302
 1172ERGO    R116788  13.125  11.326   5.955 -0.1717 -0.1429  0.0311
 1172ERGO    R216789  13.156  11.157   6.171  0.0625 -0.2439 -0.0733
 1172ERGO    R316790  13.336  11.344   6.251 -0.1110 -0.0997 -0.0159
 1172ERGO    R416791  13.383  11.115   6.428  0.0477 -0.0712 -0.0314
 1172ERGO    R516792  13.344  11.320   6.490 -0.1379 -0.1130 -0.0194
 1172ERGO    C116793  13.685  11.266   6.653 -0.1239  0.1648  0.0470
 1172ERGO    C216794  13.976  11.220   6.950  0.0749  0.1389  0.0274
 1173ERGO   ROH16795  15.275   5.810   5.563 -0.0313  0.1291  0.0234
 1173ERGO    R116796  15.366   5.695   5.805 -0.2843 -0.1279  0.0003
 1173ERGO    R216797  15.545   5.823   5.973  0.0650 -0.5885 -0.0141
 1173ERGO    R316798  15.351   5.780   6.159 -0.0274 -0.1236  0.0140
 1173ERGO    R416799  15.601   5.768   6.309 -0.0237 -0.5156  0.0147
 1173ERGO    R516800  15.445   5.617   6.306 -0.3224 -0.2339  0.0985
 1173ERGO    C116801  15.453   5.695   6.680 -0.1622 -0.0367  0.0579
 1173ERGO    C216802  15.472   5.727   7.073 -0.1932  0.2881  0.3126
 1174ERGO   ROH16803   7.711  16.354   5.651  0.0026  0.0526  0.0006
 1174ERGO    R116804   7.650  16.160   5.848  0.1984  0.0427  0.0535
 1174ERGO    R216805   7.758  16.167   6.102  0.0478  0.3327  0.1141
 1174ERGO    R316806   7.497  16.158   6.178  0.0124 -0.0446 -0.0319
 1174ERGO    R416807   7.648  16.104   6.424 -0.0340  0.3772  0.0952
 1174ERGO    R516808   7.489  15.981   6.340  0.2127  0.0507  0.0861
 1174ERGO    C116809   7.339  16.058   6.682 -0.1148  0.0488 -0.0528
 1174ERGO    C216810   7.118  16.188   7.034 -0.0908  0.1321 -0.0372
 1175ERGO   ROH16811  19.065   3.594   5.735  0.0048  0.3906  0.1065
 1175ERGO    R116812  19.160   3.583   6.001 -0.0813  0.5093  0.1422
 1175ERGO    R216813  19.027   3.703   6.212 -0.4898  0.0787  0.1413
 1175ERGO    R316814  19.039   3.454   6.319  0.0989  0.0466  0.0321
 1175ERGO    R416815  19.064   3.635   6.548 -0.4301  0.0303  0.1253
 1175ERGO    R516816  19.200   3.473   6.495  0.0047  0.3802  0.0942
 1175ERGO    C116817  19.098   3.360   6.845  0.1572 -0.0281  0.0135
 1175ERGO    C216818  19.196   3.354   7.184 -0.0650 -0.1978 -0.0806
 1176ERGO   ROH16819  16.009   2.901   5.855  0.1163 -0.0176 -0.2765
 1176ERGO    R116820  15.967   2.905   6.135 -0.0312 -0.0658 -0.2965
 1176ERGO    R216821  16.018   2.686   6.297  0.0387 -0.0447 -0.2845
 1176ERGO    R316822  16.171   2.863   6.434 -0.1537  0.0551 -0.1956
 1176ERGO    R416823  16.117   2.648   6.626 -0.0907  0.0027 -0.2401
 1176ERGO    R516824  16.081   2.861   6.655 -0.2575 -0.0262 -0.2394
 1176ERGO    C116825  16.319   2.793   6.946 -0.3463  0.1240 -0.1307
 1176ERGO    C216826  16.497   2.699   7.159  0.1058 -0.1835  0.3396
 1177ERGO   ROH16827   7.253   6.242   7.266 -0.0828  0.0892 -0.0293
 1177ERGO    R116828   7.342   6.124   7.507 -0.1659  0.0744 -0.0052
 1177ERGO    R216829   7.609   6.115   7.578 -0.1645 -0.1416 -0.0267
 1177ERGO    R316830   7.519   6.233   7.806 -0.0421  0.0012 -0.0509
 1177ERGO    R416831   7.788   6.138   7.873 -0.0955 -0.1607 -0.0670
 1177ERGO    R516832   7.604   6.095   7.982 -0.1055  0.0044 -0.0181
 1177ERGO    C116833   7.808   6.262   8.258  0.0595 -0.0377 -0.1133
 1177ERGO    C216834   7.923   6.354   8.529  0.0165 -0.2071 -0.0749
 1178ERGO   ROH16835  10.182   5.786   5.369  0.0429  0.1178 -0.1026
 1178ERGO    R116836  10.239   5.755   5.644  0.1173  0.0897 -0.1188
 1178ERGO    R216837  10.230   5.966   5.823  0.0051  0.0477 -0.0592
 1178ERGO    R316838  10.061   5.802   5.958  0.1396 -0.1066 -0.0779
 1178ERGO    R416839  10.160   5.989   6.160 -0.0089 -0.0725 -0.0551
 1178ERGO    R516840  10.164   5.772   6.171  0.1621 -0.0630 -0.0903
 1178ERGO    C116841   9.960   5.849   6.484  0.1094 -0.2873 -0.0704
 1178ERGO    C216842   9.670   5.876   6.623 -0.2681 -0.0809  0.1327
 1179ERGO   ROH16843  17.186  18.677   8.174 -0.0130  0.1568 -0.0020
 1179ERGO    R116844  17.260  18.746   8.438  0.0062  0.0848  0.0118
 1179ERGO    R216845  17.074  18.807   8.634  0.0182 -0.0059  0.0533
 1179ERGO    R316846  17.204  18.612   8.772  0.0646 -0.0298 -0.0245
 1179ERGO    R416847  17.104  18.793   8.978  0.1698 -0.0452  0.0392
 1179ERGO    R516848  17.309  18.727   8.953  0.1534 -0.0579 -0.0585
 1179ERGO    C116849  17.243  18.601   9.307  0.3015 -0.0906 -0.0419
 1179ERGO    C216850  17.340  18.488   9.575 -0.1097  0.2974  0.5305
 1180ERGO   ROH16851   1.299   8.498   5.565 -0.0306  0.0443 -0.0368
 1180ERGO    R116852   1.136   8.380   5.764  0.1060 -0.1453 -0.0345
 1180ERGO    R216853   1.240   8.233   5.973  0.3003  0.1394  0.0769
 1180ERGO    R316854   1.098   8.408   6.125 -0.0637 -0.0271 -0.0605
 1180ERGO    R416855   1.172   8.192   6.309  0.4279  0.2837  0.1209
 1180ERGO    R516856   0.971   8.268   6.273  0.2505 -0.1782  0.0736
 1180ERGO    C116857   1.000   8.333   6.648  0.1605  0.2114  0.0176
 1180ERGO    C216858   0.976   8.296   6.942  0.1192  0.2650  0.0880
 1181ERGO   ROH16859   8.416  13.294   5.971  0.0297  0.2463  0.1257
 1181ERGO    R116860   8.194  13.244   6.140 -0.1555  0.0358 -0.1665
 1181ERGO    R216861   8.012  13.042   6.091  0.2124 -0.2883 -0.2991
 1181ERGO    R316862   8.075  12.969   6.345 -0.0357 -0.0002 -0.1501
 1181ERGO    R416863   7.788  12.916   6.322 -0.0061  0.0105 -0.3439
 1181ERGO    R516864   7.886  13.036   6.475 -0.1401  0.1719 -0.3974
 1181ERGO    C116865   7.717  12.774   6.695 -0.3663  0.4550 -0.2301
 1181ERGO    C216866   7.504  12.751   6.821 -0.0811  0.0779 -0.0189
 1182ERGO   ROH16867   7.224   4.764   5.384 -0.0973 -0.1280 -0.0061
 1182ERGO    R116868   7.244   4.933   5.610  0.0504 -0.0629 -0.0655
 1182ERGO    R216869   7.027   4.991   5.772  0.0972  0.1833 -0.0818
 1182ERGO    R316870   7.192   4.902   5.969  0.0233  0.1069 -0.0545
 1182ERGO    R416871   6.980   5.048   6.109 -0.0759 -0.0304 -0.0674
 1182ERGO    R516872   7.195   5.080   6.128 -0.0949  0.0105  0.0546
 1182ERGO    C116873   7.108   4.999   6.491 -0.2461 -0.2265 -0.0335
 1182ERGO    C216874   6.971   5.055   6.723 -0.3802 -0.0192  0.1744
 1183ERGO   ROH16875   2.399  17.932   5.955 -0.0454 -0.0323  0.1618
 1183ERGO    R116876   2.586  17.846   6.149  0.0598  0.0026  0.0751
 1183ERGO    R216877   2.573  17.926   6.413  0.0677 -0.1326  0.1116
 1183ERGO    R316878   2.577  17.658   6.461  0.2663 -0.1548 -0.0099
 1183ERGO    R416879   2.728  17.775   6.683 -0.0986 -0.0994  0.2284
 1183ERGO    R516880   2.795  17.617   6.549  0.2120  0.0195  0.2263
 1183ERGO    C116881   2.822  17.436   6.885 -0.0090 -0.1008  0.1824
 1183ERGO    C216882   2.979  17.277   7.097  0.0388 -0.2206  0.1372
 1184ERGO   ROH16883   5.035  18.059   5.462 -0.3103  0.0280 -0.0110
 1184ERGO    R116884   5.072  18.001   5.736 -0.1276  0.0638 -0.0268
 1184ERGO    R216885   5.315  18.037   5.865 -0.0370  0.0722 -0.1933
 1184ERGO    R316886   5.165  18.187   6.035  0.0817  0.1019 -0.1143
 1184ERGO    R416887   5.423  18.160   6.169  0.1296  0.0208 -0.2313
 1184ERGO    R516888   5.229  18.111   6.253  0.1555  0.0704 -0.1487
 1184ERGO    C116889   5.346  18.371   6.506  0.3381  0.0188 -0.1793
 1184ERGO    C216890   5.562  18.498   6.768 -0.0708 -0.0588 -0.0045
 1185ERGO   ROH16891  11.160   4.823   5.834  0.1621 -0.1526  0.0383
 1185ERGO    R116892  11.191   4.985   6.063  0.0268 -0.0988  0.0203
 1185ERGO    R216893  11.113   5.250   6.070  0.0382 -0.0890 -0.0933
 1185ERGO    R316894  10.973   5.170   6.289 -0.1067 -0.0306 -0.1639
 1185ERGO    R416895  11.005   5.459   6.324 -0.0662 -0.0383 -0.1791
 1185ERGO    R516896  11.059   5.304   6.467 -0.1841 -0.0301 -0.1300
 1185ERGO    C116897  10.810   5.504   6.677 -0.2629  0.0459 -0.2953
 1185ERGO    C216898  10.590   5.589   6.958 -0.1906  0.0585 -0.3681
 1186ERGO   ROH16899  13.127  16.558   6.600  0.1165  0.0168  0.0301
 1186ERGO    R116900  12.946  16.639   6.802  0.1454  0.2380 -0.0311
 1186ERGO    R216901  12.896  16.486   7.027 -0.2454  0.2120 -0.1347
 1186ERGO    R316902  12.963  16.714   7.158  0.0861  0.0359  0.0175
 1186ERGO    R416903  12.761  16.588   7.328 -0.3129  0.3341 -0.2046
 1186ERGO    R516904  12.757  16.792   7.252  0.1413  0.3876 -0.1269
 1186ERGO    C116905  12.745  16.862   7.626 -0.0410  0.2396 -0.1023
 1186ERGO    C216906  12.614  16.888   7.951  0.1806  0.0516 -0.0607
 1187ERGO   ROH16907   4.301  10.052   5.674  0.1074 -0.0359 -0.1343
 1187ERGO    R116908   4.387  10.155   5.923  0.2333  0.2038 -0.2715
 1187ERGO    R216909   4.404   9.999   6.151 -0.0923  0.5130 -0.0147
 1187ERGO    R316910   4.659  10.091   6.156  0.0756  0.0746 -0.1231
 1187ERGO    R416911   4.590  10.051   6.438  0.1520  0.1657 -0.1054
 1187ERGO    R516912   4.668  10.234   6.348  0.4231  0.0396 -0.1143
 1187ERGO    C116913   4.938  10.168   6.609  0.4517 -0.4481 -0.2599
 1187ERGO    C216914   5.111   9.952   6.770 -0.1178  0.0445  0.0334
 1188ERGO   ROH16915   4.298   4.272   6.019  0.1756 -0.1591 -0.1451
 1188ERGO    R116916   4.526   4.249   6.185  0.0230 -0.1780  0.0650
 1188ERGO    R216917   4.738   4.426   6.171  0.2660 -0.4765 -0.0868
 1188ERGO    R316918   4.690   4.454   6.438  0.0990  0.0441 -0.1597
 1188ERGO    R416919   4.979   4.500   6.408  0.1812 -0.3380 -0.0419
 1188ERGO    R516920   4.883   4.358   6.543 -0.0821 -0.0001  0.1479
 1188ERGO    C116921   5.075   4.570   6.795 -0.0250  0.2313 -0.0843
 1188ERGO    C216922   5.298   4.797   7.042 -0.0754  0.1694  0.0086
 1189ERGO   ROH16923  17.982   1.260   6.010  0.0858  0.0601  0.1247
 1189ERGO    R116924  17.846   1.407   6.210  0.0739  0.1415  0.0583
 1189ERGO    R216925  17.879   1.356   6.480 -0.1002  0.1110  0.0767
 1189ERGO    R316926  17.938   1.621   6.489  0.0666  0.0727  0.1133
 1189ERGO    R416927  17.906   1.542   6.770 -0.3139  0.1249  0.0885
 1189ERGO    R516928  17.804   1.706   6.669 -0.0875  0.1825 -0.0518
 1189ERGO    C116929  17.977   1.900   6.948 -0.2818  0.0971  0.1298
 1189ERGO    C216930  18.096   2.021   7.245  0.1071 -0.2852  0.1980
 1190ERGO   ROH16931  14.904   1.585   6.107 -0.0070  0.2027  0.0264
 1190ERGO    R116932  15.019   1.757   6.301  0.0961  0.2010 -0.0311
 1190ERGO    R216933  15.007   1.704   6.572 -0.0066  0.3406 -0.0036
 1190ERGO    R316934  15.277   1.732   6.557  0.0205  0.1035  0.0349
 1190ERGO    R416935  15.209   1.820   6.828  0.0511  0.2487 -0.0084
 1190ERGO    R516936  15.324   1.931   6.680  0.1729  0.1018 -0.0224
 1190ERGO    C116937  15.580   1.912   6.962  0.1101 -0.0273  0.0250
 1190ERGO    C216938  15.733   2.102   7.216 -0.1913 -0.0938  0.0806
 1191ERGO   ROH16939   6.601  10.100   5.754  0.0662  0.0434  0.0456
 1191ERGO    R116940   6.727  10.108   6.007 -0.0525 -0.0405  0.1070
 1191ERGO    R216941   6.773  10.344   6.143  0.1098 -0.0667  0.0867
 1191ERGO    R316942   6.640  10.216   6.343 -0.1120  0.0987  0.0495
 1191ERGO    R416943   6.841  10.381   6.480  0.1690 -0.2510  0.0970
 1191ERGO    R516944   6.810  10.166   6.505 -0.1864 -0.2188  0.0439
 1191ERGO    C116945   6.756  10.283   6.864 -0.0047 -0.2029  0.0680
 1191ERGO    C216946   6.639  10.452   7.136 -0.0653 -0.1789 -0.0370
 1192ERGO   ROH16947  16.663  19.232   6.241  0.0223 -0.2260  0.0329
 1192ERGO    R116948  16.621  19.171   6.514 -0.0097 -0.0739  0.0620
 1192ERGO    R216949  16.747  19.310   6.717 -0.0209  0.0273 -0.0019
 1192ERGO    R316950  16.493  19.346   6.806 -0.0267  0.0947 -0.0438
 1192ERGO    R416951  16.662  19.447   7.023 -0.0263 -0.1375  0.0717
 1192ERGO    R516952  16.504  19.297   7.041 -0.1085 -0.0725 -0.0710
 1192ERGO    C116953  16.374  19.560   7.285 -0.0351 -0.1701  0.0752
 1192ERGO    C216954  16.376  19.655   7.622 -0.1051  0.0267  0.2645
 1193ERGO   ROH16955   8.146   3.276   5.819 -0.1633 -0.1544 -0.0672
 1193ERGO    R116956   8.055   3.180   6.070 -0.0596  0.0954  0.0705
 1193ERGO    R216957   8.059   2.912   6.137 -0.2009  0.1380  0.2688
 1193ERGO    R316958   8.199   3.002   6.352  0.0120  0.2071  0.1045
 1193ERGO    R416959   8.087   2.746   6.439 -0.0012  0.2915  0.3365
 1193ERGO    R516960   8.066   2.937   6.541  0.1499  0.3519  0.2527
 1193ERGO    C116961   8.234   2.733   6.816  0.3149  0.4457  0.2217
 1193ERGO    C216962   8.108   2.616   7.192 -0.3144 -0.0010 -0.1170
 1194ERGO   ROH16963  15.720  16.706   6.274  0.1254 -0.1577  0.0825
 1194ERGO    R116964  15.903  16.771   6.480  0.0082 -0.0843  0.1650
 1194ERGO    R216965  15.829  16.913   6.706 -0.1631 -0.1601  0.1620
 1194ERGO    R316966  15.937  16.700   6.835 -0.0928 -0.1216  0.1661
 1194ERGO    R416967  15.937  16.914   7.034  0.0105 -0.0766  0.1059
 1194ERGO    R516968  16.108  16.794   6.974 -0.0229 -0.0876  0.0520
 1194ERGO    C116969  16.101  16.715   7.347  0.1775  0.0082  0.0770
 1194ERGO    C216970  16.155  16.740   7.708  0.0631  0.0343  0.3100
 1195ERGO   ROH16971   1.915  15.822   5.442 -0.2476  0.5018 -0.2336
 1195ERGO    R116972   1.879  15.989   5.667 -0.1827  0.3881 -0.1353
 1195ERGO    R216973   1.679  15.947   5.853 -0.1050  0.2658 -0.0674
 1195ERGO    R316974   1.886  15.951   6.029 -0.0283  0.2082 -0.1579
 1195ERGO    R416975   1.647  15.978   6.196  0.0480 -0.0474 -0.0225
 1195ERGO    R516976   1.820  16.110   6.195 -0.0193  0.0291  0.0124
 1195ERGO    C116977   1.823  16.000   6.560  0.2091 -0.2839 -0.0814
 1195ERGO    C216978   1.937  15.879   6.909 -0.3921  0.1009 -0.2391
 1196ERGO   ROH16979   4.100   5.197   6.165  0.2542 -0.2430  0.0253
 1196ERGO    R116980   4.243   5.191   6.409  0.3401  0.0731 -0.0155
 1196ERGO    R216981   4.436   5.379   6.473 -0.0095  0.4635 -0.1019
 1196ERGO    R316982   4.284   5.411   6.696 -0.0047  0.2000 -0.0551
 1196ERGO    R416983   4.558   5.380   6.796  0.0781  0.4966 -0.1334
 1196ERGO    R516984   4.384   5.264   6.857  0.2221  0.2539 -0.1312
 1196ERGO    C116985   4.488   5.410   7.194  0.1337  0.2685 -0.1079
 1196ERGO    C216986   4.476   5.559   7.544  0.0253 -0.0465 -0.0526
 1197ERGO   ROH16987   3.293   9.996   5.926 -0.2580 -0.1114 -0.2296
 1197ERGO    R116988   3.357   9.900   6.185 -0.3359 -0.0282 -0.1788
 1197ERGO    R216989   3.237   9.678   6.295 -0.0333 -0.2790 -0.3378
 1197ERGO    R316990   3.493   9.594   6.327  0.1038  0.1990 -0.0935
 1197ERGO    R416991   3.372   9.566   6.593 -0.1714 -0.2176 -0.2508
 1197ERGO    R516992   3.555   9.675   6.544 -0.3123  0.1787  0.0422
 1197ERGO    C116993   3.692   9.423   6.796 -0.1232  0.2669  0.0291
 1197ERGO    C216994   3.726   9.094   6.821 -0.2854  0.0920 -0.1337
 1198ERGO   ROH16995   5.582   1.325   5.983 -0.0996 -0.1537  0.0179
 1198ERGO    R116996   5.770   1.220   6.166 -0.0332  0.0315  0.0574
 1198ERGO    R216997   5.902   1.377   6.350 -0.2277  0.1636  0.0852
 1198ERGO    R316998   5.803   1.198   6.528 -0.0876  0.0633  0.0646
 1198ERGO    R416999   5.962   1.384   6.691 -0.2958  0.2172  0.0967
 1198ERGO    R517000   5.981   1.166   6.686 -0.0841  0.2329  0.0969
 1198ERGO    C117001   5.903   1.219   7.056 -0.2038  0.1543  0.0842
 1198ERGO    C217002   5.906   1.274   7.402 -0.2448 -0.0152 -0.0145
 1199ERGO   ROH17003   2.229   3.645   5.869 -0.1085 -0.1180  0.1145
 1199ERGO    R117004   2.350   3.627   6.125 -0.1328 -0.1527  0.1234
 1199ERGO    R217005   2.278   3.790   6.335 -0.0047 -0.0384  0.0777
 1199ERGO    R317006   2.240   3.554   6.464 -0.2058  0.0252  0.1394
 1199ERGO    R417007   2.357   3.732   6.666 -0.0803 -0.0081  0.1015
 1199ERGO    R517008   2.431   3.535   6.608 -0.2315 -0.0856  0.1618
 1199ERGO    C117009   2.369   3.477   6.980 -0.3131  0.0692  0.1733
 1199ERGO    C217010   2.685   3.501   7.221  0.0481 -0.0179 -0.5413
 1200ERGO   ROH17011   6.351   3.225   5.908  0.3237 -0.1447 -0.0310
 1200ERGO    R117012   6.275   3.345   6.152  0.1905 -0.0485 -0.1194
 1200ERGO    R217013   6.183   3.198   6.368  0.1491  0.0317 -0.0895
 1200ERGO    R317014   6.382   3.329   6.500  0.0541  0.1542 -0.0641
 1200ERGO    R417015   6.218   3.210   6.712  0.2851 -0.2584 -0.0900
 1200ERGO    R517016   6.275   3.419   6.694  0.0211 -0.1595  0.0767
 1200ERGO    C117017   6.424   3.339   7.036  0.2753 -0.3123 -0.0665
 1200ERGO    C217018   6.473   3.233   7.268 -0.0331 -0.0505 -0.1463
 1201ERGO   ROH17019  12.068  12.243   5.260 -0.2270  0.1697 -0.0459
 1201ERGO    R117020  12.073  12.180   5.536 -0.1323  0.1962 -0.0414
 1201ERGO    R217021  12.260  12.008   5.645 -0.2767 -0.0272 -0.1411
 1201ERGO    R317022  12.308  12.217   5.812  0.0940 -0.0647 -0.1941
 1201ERGO    R417023  12.319  11.979   5.984 -0.6454 -0.0332 -0.0722
 1201ERGO    R517024  12.197  12.158   6.015 -0.2423  0.2940 -0.2617
 1201ERGO    C117025  12.400  12.160   6.338 -0.5122 -0.0719 -0.0818
 1201ERGO    C217026  12.499  12.260   6.561  0.0823  0.1338  0.1537
 1202ERGO   ROH17027  14.674   7.634   5.893  0.0129 -0.4401  0.0535
 1202ERGO    R117028  14.616   7.663   6.168 -0.0154 -0.2918  0.0341
 1202ERGO    R217029  14.713   7.488   6.360 -0.0355 -0.1927  0.1420
 1202ERGO    R317030  14.807   7.717   6.474 -0.0448 -0.1309  0.0243
 1202ERGO    R417031  14.792   7.524   6.694 -0.0478 -0.0139  0.1255
 1202ERGO    R517032  14.703   7.723   6.689 -0.0510 -0.0192  0.0171
 1202ERGO    C117033  14.927   7.759   6.996 -0.0639  0.1481  0.0054
 1202ERGO    C217034  15.192   8.009   7.170 -0.2329  0.1734  0.1192
 1203ERGO   ROH17035   5.483   6.107   5.888 -0.0180 -0.0619  0.0611
 1203ERGO    R117036   5.637   6.275   6.056 -0.1284 -0.0130  0.1150
 1203ERGO    R217037   5.614   6.272   6.331 -0.1349 -0.1080  0.1158
 1203ERGO    R317038   5.882   6.231   6.321 -0.1086  0.0626  0.1087
 1203ERGO    R417039   5.820   6.237   6.607 -0.1126 -0.0402  0.1072
 1203ERGO    R517040   5.969   6.358   6.504 -0.1880  0.0756  0.1357
 1203ERGO    C117041   6.191   6.179   6.757 -0.0748  0.1594  0.0955
 1203ERGO    C217042   6.482   6.029   6.709  0.2391  0.1435 -0.1928
 1204ERGO   ROH17043   2.873  16.612   5.322  0.1953 -0.0379 -0.0439
 1204ERGO    R117044   2.809  16.436   5.535  0.1256 -0.0782 -0.0968
 1204ERGO    R217045   2.978  16.394   5.749  0.0621 -0.1291 -0.0547
 1204ERGO    R317046   2.759  16.463   5.894  0.0234 -0.1478 -0.1055
 1204ERGO    R417047   2.924  16.307   6.079 -0.0421 -0.2045 -0.0921
 1204ERGO    R517048   2.715  16.271   6.030 -0.0306 -0.1776 -0.1643
 1204ERGO    C117049   2.686  16.320   6.407 -0.1391 -0.2656 -0.1615
 1204ERGO    C217050   2.617  16.465   6.734 -0.1453 -0.0209 -0.3086
 1205ERGO   ROH17051  17.042  14.806   6.174 -0.2275 -0.1208 -0.0652
 1205ERGO    R117052  16.965  14.828   6.446 -0.1903 -0.1870 -0.0504
 1205ERGO    R217053  17.060  14.658   6.642 -0.0876 -0.1630 -0.0858
 1205ERGO    R317054  17.132  14.891   6.763 -0.1711 -0.1545 -0.0681
 1205ERGO    R417055  17.113  14.697   6.981 -0.1884 -0.1525 -0.0699
 1205ERGO    R517056  17.013  14.890   6.970 -0.2241 -0.1790 -0.0997
 1205ERGO    C117057  17.211  14.938   7.292 -0.3257 -0.1384 -0.0441
 1205ERGO    C217058  17.232  14.867   7.637  0.1992  0.2660 -0.3686
 1206ERGO   ROH17059   0.618   4.034   5.644  0.2136 -0.3308  0.0185
 1206ERGO    R117060   0.711   3.890   5.869  0.1606 -0.1772  0.1410
 1206ERGO    R217061   0.926   3.975   6.021  0.1456 -0.0879  0.1188
 1206ERGO    R317062   0.749   3.953   6.226  0.1053  0.0815  0.1025
 1206ERGO    R417063   1.011   3.966   6.356  0.1188 -0.3335  0.1203
 1206ERGO    R517064   0.859   3.813   6.385 -0.0969 -0.1338  0.0553
 1206ERGO    C117065   0.894   3.940   6.743  0.0654 -0.3175  0.1057
 1206ERGO    C217066   1.032   3.937   7.069 -0.1009  0.2396 -0.1374
 1207ERGO   ROH17067   3.990   0.413   5.738  0.0466  0.1810  0.1686
 1207ERGO    R117068   4.132   0.420   5.983  0.1074  0.0046  0.1414
 1207ERGO    R217069   4.025   0.529   6.213  0.2694  0.1000  0.1791
 1207ERGO    R317070   4.087   0.287   6.319  0.0288  0.0174  0.1345
 1207ERGO    R417071   4.034   0.458   6.551  0.1959  0.0157  0.1628
 1207ERGO    R517072   4.213   0.338   6.516  0.0752 -0.1519  0.1450
 1207ERGO    C117073   4.097   0.188   6.847 -0.0729 -0.1109  0.1114
 1207ERGO    C217074   4.242   0.302   7.284 -0.1979 -0.1543  0.3428
 1208ERGO   ROH17075  17.609  13.827   5.682  0.1645 -0.0595 -0.0816
 1208ERGO    R117076  17.622  14.016   5.892  0.1053 -0.2092  0.0581
 1208ERGO    R217077  17.797  13.992   6.103  0.4962 -0.0395 -0.2386
 1208ERGO    R317078  17.871  14.243   6.029 -0.1296  0.1899 -0.1508
 1208ERGO    R417079  17.886  14.244   6.323  0.6055 -0.1487 -0.1560
 1208ERGO    R517080  17.776  14.384   6.198  0.0268 -0.1760  0.2717
 1208ERGO    C117081  18.008  14.626   6.381  0.0815  0.0030 -0.0255
 1208ERGO    C217082  18.082  14.728   6.744 -0.1012  0.0367  0.1203
 1209ERGO   ROH17083  15.948   4.292   5.597  0.2979  0.2437  0.0867
 1209ERGO    R117084  15.914   4.365   5.868  0.0266  0.1682  0.0757
 1209ERGO    R217085  15.678   4.322   6.006  0.0448 -0.3189 -0.0308
 1209ERGO    R317086  15.842   4.195   6.181  0.2332  0.0040  0.0367
 1209ERGO    R417087  15.624   4.299   6.346  0.0711 -0.2319 -0.0201
 1209ERGO    R517088  15.837   4.331   6.378  0.0294  0.0972 -0.0296
 1209ERGO    C117089  15.746   4.166   6.709  0.2633  0.1219  0.0495
 1209ERGO    C217090  15.670   4.068   7.010  0.0670  0.1262  0.3922
 1210ERGO   ROH17091   1.017  13.333   5.668 -0.3818  0.0302  0.0405
 1210ERGO    R117092   0.919  13.268   5.926 -0.2143  0.0209  0.1029
 1210ERGO    R217093   1.039  13.079   6.088 -0.0913  0.0386  0.0297
 1210ERGO    R317094   1.043  13.283   6.268 -0.0047  0.0388  0.0284
 1210ERGO    R417095   1.081  13.040   6.429  0.1028  0.0343  0.0067
 1210ERGO    R517096   0.930  13.195   6.460  0.1067  0.0260  0.0921
 1210ERGO    C117097   1.109  13.209   6.796  0.2972  0.0320 -0.0080
 1210ERGO    C217098   1.299  13.245   7.046 -0.1455 -0.3522 -0.2783
 1211ERGO   ROH17099   2.615  13.466   5.506 -0.1085  0.0415  0.0037
 1211ERGO    R117100   2.545  13.449   5.779 -0.1331  0.0936  0.0015
 1211ERGO    R217101   2.723  13.511   5.982 -0.1472  0.1298  0.0095
 1211ERGO    R317102   2.524  13.679   6.061 -0.1530  0.1483 -0.0465
 1211ERGO    R417103   2.674  13.622   6.306 -0.3941 -0.0701  0.0441
 1211ERGO    R517104   2.460  13.598   6.277 -0.3741  0.0287 -0.1582
 1211ERGO    C117105   2.459  13.845   6.568 -0.5433 -0.1692  0.0115
 1211ERGO    C217106   2.392  14.181   6.704  0.1220  0.0588 -0.1583
 1212ERGO   ROH17107  16.599   9.567   5.844  0.0636  0.0311 -0.1216
 1212ERGO    R117108  16.758   9.648   6.064  0.0581  0.1122 -0.1475
 1212ERGO    R217109  16.684   9.599   6.326  0.0908  0.1377 -0.1360
 1212ERGO    R317110  16.929   9.484   6.340  0.1243  0.2074 -0.1306
 1212ERGO    R417111  16.875   9.574   6.613 -0.0332 -0.0537 -0.0678
 1212ERGO    R517112  17.051   9.621   6.494  0.0084  0.1143  0.0503
 1212ERGO    C117113  17.217   9.451   6.793 -0.0739 -0.0998 -0.0230
 1212ERGO    C217114  17.216   9.293   7.055 -0.1958 -0.0199  0.1510
 1213ERGO   ROH17115  13.412   3.659   5.918  0.0286  0.1259 -0.1667
 1213ERGO    R117116  13.321   3.636   6.185 -0.0005  0.1038 -0.1781
 1213ERGO    R217117  13.426   3.788   6.391  0.0380  0.0267 -0.1378
 1213ERGO    R317118  13.165   3.855   6.431  0.0576  0.1105 -0.1481
 1213ERGO    R417119  13.276   3.826   6.700 -0.0271 -0.1602 -0.1451
 1213ERGO    R517120  13.099   3.726   6.621 -0.0504 -0.0158 -0.2712
 1213ERGO    C117121  12.945   3.911   6.918 -0.0464 -0.1905 -0.1591
 1213ERGO    C217122  12.869   3.786   7.221 -0.2158  0.1740  0.1413
 1214ERGO   ROH17123   3.628   4.510   6.139  0.0703  0.1114  0.2447
 1214ERGO    R117124   3.539   4.541   6.407 -0.0256 -0.0468  0.2303
 1214ERGO    R217125   3.288   4.463   6.490  0.0080 -0.2373  0.1252
 1214ERGO    R317126   3.428   4.322   6.675  0.0361 -0.2175  0.1226
 1214ERGO    R417127   3.147   4.296   6.758  0.0135 -0.3469  0.0626
 1214ERGO    R517128   3.313   4.365   6.881 -0.0296 -0.2986  0.1126
 1214ERGO    C117129   3.197   4.066   7.088  0.0431 -0.3922  0.0239
 1214ERGO    C217130   3.134   3.721   7.199  0.0665 -0.0393 -0.1408
 1215ERGO   ROH17131  11.577   7.380   5.683 -0.1612  0.1935 -0.0400
 1215ERGO    R117132  11.504   7.210   5.897 -0.1314  0.0857 -0.1160
 1215ERGO    R217133  11.681   7.138   6.098 -0.1487  0.1086 -0.0983
 1215ERGO    R317134  11.485   7.234   6.260 -0.2387 -0.0467 -0.1111
 1215ERGO    R417135  11.669   7.094   6.440 -0.0152  0.2781 -0.0697
 1215ERGO    R517136  11.454   7.062   6.424  0.0142 -0.0033 -0.0090
 1215ERGO    C117137  11.478   7.158   6.792 -0.0219  0.2309 -0.0650
 1215ERGO    C217138  11.504   7.291   7.105  0.1907  0.0681 -0.2037
 1216ERGO   ROH17139  12.440   0.123   6.419  0.0938 -0.0132 -0.1057
 1216ERGO    R117140  12.399  -0.152   6.473  0.0479 -0.0084 -0.1119
 1216ERGO    R217141  12.590  -0.309   6.596  0.0246 -0.0458 -0.1199
 1216ERGO    R317142  12.388  -0.365   6.768  0.0191 -0.0137 -0.1170
 1216ERGO    R417143  12.602  -0.552   6.842 -0.0101 -0.0510 -0.1244
 1216ERGO    R517144  12.395  -0.603   6.793 -0.0198 -0.0153 -0.1208
 1216ERGO    C117145  12.418  -0.746   7.146 -0.0353 -0.0238 -0.1242
 1216ERGO    C217146  12.397  -0.980   7.337  0.1069  0.1178 -0.2349
 1217ERGO   ROH17147  15.216  16.732   6.213 -0.1884 -0.1023 -0.0725
 1217ERGO    R117148  15.297  16.717   6.484 -0.0896 -0.0422 -0.0983
 1217ERGO    R217149  15.224  16.508   6.649 -0.1228  0.0513  0.0048
 1217ERGO    R317150  15.492  16.488   6.689 -0.1156 -0.0595 -0.0925
 1217ERGO    R417151  15.373  16.415   6.947 -0.0542 -0.0608 -0.0635
 1217ERGO    R517152  15.525  16.568   6.912 -0.0069 -0.1124 -0.0885
 1217ERGO    C117153  15.712  16.343   7.158 -0.0075 -0.2300 -0.1946
 1217ERGO    C217154  15.632  16.138   7.431 -0.0416  0.1335  0.1227
 1218ERGO   ROH17155   3.834  14.663   6.031 -0.1864  0.0740 -0.0369
 1218ERGO    R117156   3.927  14.646   6.297 -0.1825 -0.0485 -0.0455
 1218ERGO    R217157   4.067  14.851   6.419  0.0743 -0.2171 -0.0487
 1218ERGO    R317158   3.873  14.828   6.608  0.0593  0.0061 -0.0334
 1218ERGO    R417159   4.107  14.932   6.752  0.1145 -0.0342 -0.0967
 1218ERGO    R517160   3.991  14.755   6.804  0.0164  0.0613  0.0124
 1218ERGO    C117161   3.948  14.958   7.125  0.1239  0.2818 -0.1104
 1218ERGO    C217162   3.884  15.154   7.368  0.0247  0.1942 -0.0986
 1219ERGO   ROH17163   2.556  11.947   5.873 -0.0382 -0.1528 -0.0124
 1219ERGO    R117164   2.471  12.007   6.137  0.0166 -0.0177 -0.0259
 1219ERGO    R217165   2.597  11.904   6.360 -0.0126  0.0023 -0.0049
 1219ERGO    R317166   2.616  12.166   6.430  0.1205  0.0188 -0.0948
 1219ERGO    R417167   2.745  12.020   6.650 -0.1419  0.0031  0.0625
 1219ERGO    R517168   2.584  12.166   6.668 -0.0573  0.1289 -0.1136
 1219ERGO    C117169   2.849  12.334   6.885 -0.0922  0.0191  0.0174
 1219ERGO    C217170   2.979  12.423   7.219  0.0986 -0.0778 -0.0541
 1220ERGO   ROH17171   6.290  12.089   6.154  0.1302  0.0564 -0.1126
 1220ERGO    R117172   6.281  12.071   6.437  0.0364 -0.0357 -0.1213
 1220ERGO    R217173   6.359  12.279   6.601  0.2770 -0.1996 -0.0274
 1220ERGO    R317174   6.111  12.246   6.707  0.2025  0.0964 -0.0995
 1220ERGO    R417175   6.253  12.415   6.901  0.4029 -0.1829  0.0106
 1220ERGO    R517176   6.149  12.227   6.943  0.1296 -0.0642 -0.0967
 1220ERGO    C117177   5.958  12.463   7.175  0.4062  0.1049 -0.0351
 1220ERGO    C217178   5.764  12.429   7.427  0.0355  0.3809 -0.0668
 1221ERGO   ROH17179   3.566  17.337   5.342 -0.1879 -0.0682 -0.0441
 1221ERGO    R117180   3.619  17.192   5.579 -0.2598 -0.1165 -0.0585
 1221ERGO    R217181   3.696  17.314   5.815 -0.0038 -0.1914 -0.1041
 1221ERGO    R317182   3.484  17.177   5.916 -0.1274  0.0733  0.0056
 1221ERGO    R417183   3.682  17.177   6.132 -0.0692 -0.0404 -0.0400
 1221ERGO    R517184   3.582  17.003   6.047 -0.2752  0.0229  0.0567
 1221ERGO    C117185   3.475  16.969   6.411 -0.2234  0.2962  0.1004
 1221ERGO    C217186   3.650  16.793   6.753  0.1478 -0.0110  0.3507
 1222ERGO   ROH17187   8.461   0.254   6.057  0.1483  0.0367 -0.0155
 1222ERGO    R117188   8.510   0.444   6.261  0.0702 -0.0456  0.0803
 1222ERGO    R217189   8.369   0.682   6.279  0.2092  0.0421 -0.0063
 1222ERGO    R317190   8.320   0.595   6.532 -0.1047  0.0147 -0.0725
 1222ERGO    R417191   8.357   0.884   6.560  0.1413 -0.0215  0.0374
 1222ERGO    R517192   8.462   0.728   6.670 -0.1020 -0.1536  0.0946
 1222ERGO    C117193   8.304   0.919   6.960 -0.1928 -0.0842  0.0008
 1222ERGO    C217194   8.041   1.050   7.087  0.0620  0.1804  0.0901
 1223ERGO   ROH17195   7.315   0.672   5.837 -0.3334  0.1531 -0.0244
 1223ERGO    R117196   7.333   0.570   6.100 -0.2508  0.1292 -0.0399
 1223ERGO    R217197   7.491   0.686   6.295 -0.0637  0.0176 -0.1245
 1223ERGO    R317198   7.259   0.689   6.436  0.0166  0.1626  0.0096
 1223ERGO    R417199   7.465   0.624   6.634  0.0846 -0.0138 -0.1172
 1223ERGO    R517200   7.283   0.511   6.594 -0.0200  0.1208 -0.0312
 1223ERGO    C117201   7.231   0.591   6.963  0.2463  0.1039  0.0129
 1223ERGO    C217202   7.290   0.706   7.255  0.0666  0.0267 -0.2782
 1224ERGO   ROH17203  18.804  10.057   5.902  0.2603  0.2477 -0.1083
 1224ERGO    R117204  18.740  10.154   6.161 -0.1675  0.0984 -0.1504
 1224ERGO    R217205  18.606  10.001   6.348  0.2097 -0.3044 -0.1950
 1224ERGO    R317206  18.820  10.063   6.504 -0.0368  0.3922 -0.0993
 1224ERGO    R417207  18.634   9.924   6.684  0.3857 -0.4143 -0.2335
 1224ERGO    R517208  18.724  10.120   6.716 -0.3274 -0.0769 -0.0878
 1224ERGO    C117209  18.851   9.938   7.026  0.2568  0.1757 -0.1662
 1224ERGO    C217210  18.855   9.910   7.310  0.2444 -0.0159 -0.3583
 1225ERGO   ROH17211  10.256   4.367   5.715  0.1449  0.0882  0.2218
 1225ERGO    R117212  10.389   4.258   5.939  0.0661  0.1220  0.2852
 1225ERGO    R217213  10.480   4.415   6.148 -0.0509  0.1474  0.3166
 1225ERGO    R317214  10.332   4.243   6.298 -0.0864  0.1301  0.2624
 1225ERGO    R417215  10.570   4.299   6.461 -0.0235 -0.0499  0.2374
 1225ERGO    R517216  10.495   4.102   6.405 -0.1174  0.0083  0.1529
 1225ERGO    C117217  10.483   4.070   6.785 -0.0409 -0.1812  0.1404
 1225ERGO    C217218  10.635   4.167   7.074  0.0797 -0.2085 -0.0773
 1226ERGO   ROH17219  18.281  10.518   7.956  0.1131 -0.0708  0.0759
 1226ERGO    R117220  18.077  10.322   7.969 -0.0020  0.0516  0.1001
 1226ERGO    R217221  17.823  10.366   7.870  0.1079  0.0943 -0.1484
 1226ERGO    R317222  17.872  10.137   7.732  0.0911 -0.0733  0.1132
 1226ERGO    R417223  17.583  10.180   7.706  0.1428  0.1665 -0.2850
 1226ERGO    R517224  17.681   9.999   7.777 -0.0961  0.1330  0.0050
 1226ERGO    C117225  17.489   9.857   7.480  0.1475  0.0511 -0.1189
 1226ERGO    C217226  17.384   9.724   7.199  0.2499  0.0921  0.1310
 1227ERGO   ROH17227   1.558   0.444   5.948 -0.0818 -0.2253  0.0526
 1227ERGO    R117228   1.676   0.497   6.200 -0.0629 -0.1717  0.0323
 1227ERGO    R217229   1.696   0.752   6.304  0.0239 -0.1382 -0.0628
 1227ERGO    R317230   1.570   0.640   6.518 -0.0144 -0.0173 -0.0205
 1227ERGO    R417231   1.690   0.886   6.623 -0.0549  0.0483 -0.1411
 1227ERGO    R517232   1.715   0.685   6.703 -0.0598  0.1000 -0.0151
 1227ERGO    C117233   1.568   0.860   7.008 -0.1367  0.2704 -0.1471
 1227ERGO    C217234   1.503   1.019   7.337 -0.0368 -0.0619  0.2043
 1228ERGO   ROH17235  18.095   3.710   5.701 -0.1050 -0.1260  0.1884
 1228ERGO    R117236  18.063   3.654   5.977 -0.0838 -0.2456  0.1682
 1228ERGO    R217237  17.964   3.413   6.069 -0.1300 -0.2705  0.0727
 1228ERGO    R317238  18.194   3.410   6.214 -0.1091 -0.3870  0.0359
 1228ERGO    R417239  17.990   3.304   6.396 -0.1341 -0.2290  0.0859
 1228ERGO    R517240  18.125   3.470   6.435 -0.0292 -0.3095  0.0350
 1228ERGO    C117241  18.221   3.238   6.722 -0.1166 -0.3141  0.0590
 1228ERGO    C217242  18.085   3.134   7.073 -0.1837  0.1305 -0.0490
 1229ERGO   ROH17243  10.423  11.396   5.740  0.2745  0.0057  0.0617
 1229ERGO    R117244  10.326  11.351   6.002  0.2872 -0.1317  0.0435
 1229ERGO    R217245  10.486  11.375   6.226  0.2111  0.1073  0.0764
 1229ERGO    R317246  10.290  11.544   6.308 -0.0573 -0.1744  0.0330
 1229ERGO    R417247  10.436  11.474   6.553  0.1061  0.1752  0.0399
 1229ERGO    R517248  10.221  11.456   6.521  0.1249 -0.1941  0.0847
 1229ERGO    C117249  10.223  11.691   6.821 -0.2068 -0.0496 -0.0220
 1229ERGO    C217250  10.317  11.803   7.146 -0.2158  0.0119  0.3885
 1230ERGO   ROH17251   2.579   0.203   6.076  0.4005  0.3117  0.0721
 1230ERGO    R117252   2.488   0.000   6.251  0.1209  0.3281 -0.0497
 1230ERGO    R217253   2.633  -0.083   6.470  0.0678 -0.0886 -0.1678
 1230ERGO    R317254   2.404  -0.026   6.604  0.2106  0.2018 -0.0363
 1230ERGO    R417255   2.605  -0.062   6.814  0.2228 -0.4311 -0.1297
 1230ERGO    R517256   2.413  -0.164   6.800  0.0126 -0.0519 -0.1958
 1230ERGO    C117257   2.374   0.004   7.140  0.4473 -0.3580  0.0160
 1230ERGO    C217258   2.523  -0.036   7.436  0.0520  0.2735 -0.0468
 1231ERGO   ROH17259   6.233   5.161   5.339  0.0399  0.2292 -0.0051
 1231ERGO    R117260   6.124   5.269   5.577 -0.1857  0.0056 -0.0048
 1231ERGO    R217261   5.907   5.156   5.706  0.1441 -0.5462  0.0806
 1231ERGO    R317262   6.075   5.157   5.920  0.2074 -0.0415  0.0436
 1231ERGO    R417263   5.829   5.284   6.018 -0.0228 -0.3873 -0.0223
 1231ERGO    R517264   6.031   5.365   6.029 -0.1525 -0.0014 -0.1453
 1231ERGO    C117265   5.942   5.359   6.400 -0.0606  0.1792 -0.1169
 1231ERGO    C217266   6.004   5.250   6.742  0.0500 -0.2093 -0.3046
 1232ERGO   ROH17267   1.784   2.755   5.658 -0.1493  0.3632  0.0919
 1232ERGO    R117268   1.896   2.739   5.917 -0.0870  0.4416  0.0716
 1232ERGO    R217269   1.793   2.879   6.133 -0.2454  0.2508  0.1320
 1232ERGO    R317270   1.785   2.633   6.247  0.0988  0.2015  0.0571
 1232ERGO    R417271   1.738   2.818   6.469 -0.0178  0.0618  0.1360
 1232ERGO    R517272   1.890   2.662   6.460  0.1600  0.2462  0.0149
 1232ERGO    C117273   1.699   2.551   6.771  0.4380 -0.0946  0.0680
 1232ERGO    C217274   1.717   2.295   7.063  0.0711  0.0303 -0.0195
 1233ERGO   ROH17275   3.400   7.015   6.144 -0.2125  0.0375  0.2091
 1233ERGO    R117276   3.452   7.061   6.419 -0.2347 -0.0431  0.2272
 1233ERGO    R217277   3.404   6.871   6.613 -0.1210 -0.1508  0.1518
 1233ERGO    R317278   3.665   6.916   6.676 -0.1451 -0.0241  0.1642
 1233ERGO    R417279   3.590   6.679   6.832 -0.0220 -0.0930  0.1190
 1233ERGO    R517280   3.680   6.862   6.909 -0.1204 -0.0593  0.1544
 1233ERGO    C117281   3.943   6.609   7.018  0.0130  0.0597  0.1116
 1233ERGO    C217282   4.111   6.347   7.158  0.1856  0.3217 -0.0351
 1234ERGO   ROH17283   8.695  15.970   6.288  0.0774 -0.1098 -0.1354
 1234ERGO    R117284   8.587  15.883   6.535  0.0389  0.0255 -0.1038
 1234ERGO    R217285   8.697  15.676   6.681 -0.0740  0.0030 -0.0487
 1234ERGO    R317286   8.700  15.860   6.880  0.0441  0.0612 -0.1034
 1234ERGO    R417287   8.744  15.604   7.016 -0.2986  0.0510 -0.0048
 1234ERGO    R517288   8.591  15.752   7.064 -0.1576  0.2367 -0.1158
 1234ERGO    C117289   8.775  15.736   7.398 -0.3185  0.1335 -0.0306
 1234ERGO    C217290   8.974  15.499   7.650  0.2505 -0.1222  0.1043
 1235ERGO   ROH17291   9.462  18.523   6.277 -0.3589  0.2002 -0.0690
 1235ERGO    R117292   9.357  18.638   6.514 -0.2385 -0.0092  0.0876
 1235ERGO    R217293   9.424  18.546   6.766  0.1669 -0.0055 -0.0181
 1235ERGO    R317294   9.490  18.806   6.807 -0.1201  0.0699 -0.0084
 1235ERGO    R417295   9.527  18.679   7.068  0.3341  0.0144 -0.0820
 1235ERGO    R517296   9.407  18.855   7.026  0.0539 -0.1169  0.1080
 1235ERGO    C117297   9.649  19.001   7.282  0.1618  0.0968 -0.1101
 1235ERGO    C217298   9.669  19.223   7.505  0.4472  0.1599  0.1383
 1236ERGO   ROH17299  17.042  12.679   5.562  0.1268 -0.1116 -0.0059
 1236ERGO    R117300  17.086  12.643   5.839 -0.0480 -0.1386  0.0201
 1236ERGO    R217301  17.302  12.754   5.971  0.0479 -0.4115  0.1058
 1236ERGO    R317302  17.109  12.857   6.133  0.1060 -0.1294  0.0009
 1236ERGO    R417303  17.349  12.846   6.301 -0.0162 -0.5398  0.1508
 1236ERGO    R517304  17.154  12.760   6.348 -0.1842 -0.2373  0.0147
 1236ERGO    C117305  17.195  12.995   6.645  0.0007 -0.3497  0.0786
 1236ERGO    C217306  17.172  12.917   6.999  0.2864 -0.2216  0.0655
 1237ERGO   ROH17307   3.082   7.600   5.836  0.2009  0.2787 -0.0864
 1237ERGO    R117308   3.182   7.551   6.096  0.2018  0.1636 -0.1075
 1237ERGO    R217309   3.157   7.734   6.301  0.3706  0.1533 -0.0749
 1237ERGO    R317310   3.043   7.524   6.431  0.2284  0.2194 -0.0923
 1237ERGO    R417311   3.151   7.694   6.645  0.3963  0.0969 -0.0812
 1237ERGO    R517312   3.190   7.481   6.616  0.2252  0.0719 -0.1245
 1237ERGO    C117313   3.041   7.473   6.967  0.2777  0.1262 -0.1013
 1237ERGO    C217314   2.904   7.298   7.311 -0.0292 -0.1834 -0.1388
 1238ERGO   ROH17315  15.843   7.536   5.470  0.3741 -0.1883 -0.1120
 1238ERGO    R117316  15.709   7.476   5.713  0.2230  0.0186 -0.1417
 1238ERGO    R217317  15.704   7.222   5.821 -0.1582  0.0261 -0.1161
 1238ERGO    R317318  15.801   7.349   6.041 -0.0362 -0.0799 -0.1075
 1238ERGO    R417319  15.637   7.130   6.148  0.0311 -0.1157 -0.1155
 1238ERGO    R517320  15.620   7.342   6.198  0.0607 -0.1473 -0.0069
 1238ERGO    C117321  15.689   7.196   6.544  0.2560 -0.2977 -0.1071
 1238ERGO    C217322  15.478   7.090   6.768  0.1100  0.0387 -0.0459
 1239ERGO   ROH17323  10.637  16.434   5.759  0.1137 -0.2998 -0.0992
 1239ERGO    R117324  10.558  16.285   5.986  0.1645 -0.2196 -0.0296
 1239ERGO    R217325  10.738  16.203   6.179  0.1843 -0.0323  0.0275
 1239ERGO    R317326  10.566  16.330   6.347  0.1081 -0.0307 -0.0497
 1239ERGO    R417327  10.702  16.133   6.516  0.2435  0.1570  0.0754
 1239ERGO    R517328  10.487  16.157   6.493  0.2223  0.0070  0.0638
 1239ERGO    C117329  10.520  16.211   6.869  0.2065  0.2687  0.0308
 1239ERGO    C217330  10.655  16.208   7.223  0.0403  0.0423  0.1020
 1240ERGO   ROH17331  18.989   9.651   6.082  0.0703 -0.0070  0.0792
 1240ERGO    R117332  18.965   9.664   6.364  0.1188 -0.0303  0.0850
 1240ERGO    R217333  18.742   9.571   6.499  0.0769  0.0923  0.1051
 1240ERGO    R317334  18.926   9.426   6.636  0.0065 -0.0447  0.0568
 1240ERGO    R417335  18.733   9.511   6.839  0.1132  0.0865  0.1046
 1240ERGO    R517336  18.948   9.541   6.845  0.1365 -0.0676  0.0560
 1240ERGO    C117337  18.901   9.341   7.166  0.0680 -0.0454  0.0589
 1240ERGO    C217338  19.065   9.405   7.499  0.1083  0.1643 -0.4786
 1241ERGO   ROH17339   3.445  11.737   5.827  0.2196  0.0173 -0.1559
 1241ERGO    R117340   3.456  11.854   6.084  0.0154  0.0079 -0.1419
 1241ERGO    R217341   3.689  11.957   6.191 -0.0763  0.0254  0.0350
 1241ERGO    R317342   3.538  12.180   6.223 -0.1217  0.0109 -0.0637
 1241ERGO    R417343   3.801  12.253   6.329 -0.1326  0.1041 -0.0839
 1241ERGO    R517344   3.610  12.271   6.432 -0.1430  0.1106 -0.0957
 1241ERGO    C117345   3.724  12.635   6.440 -0.2081  0.1361 -0.2456
 1241ERGO    C217346   3.736  12.935   6.721  0.0948  0.0587  0.4333
 1242ERGO   ROH17347  18.346  12.952   5.657 -0.1053 -0.0818  0.1505
 1242ERGO    R117348  18.294  13.152   5.850 -0.2603 -0.1170  0.1470
 1242ERGO    R217349  18.257  13.094   6.117 -0.0173 -0.1246  0.1820
 1242ERGO    R317350  18.456  13.277   6.152 -0.2411  0.1554  0.0271
 1242ERGO    R417351  18.295  13.294   6.397  0.1191 -0.3362  0.3178
 1242ERGO    R517352  18.349  13.460   6.265 -0.3530 -0.1156  0.3782
 1242ERGO    C117353  18.503  13.582   6.591 -0.0115 -0.1965  0.2514
 1242ERGO    C217354  18.433  13.696   6.910  0.0212 -0.1654  0.0959
 1243ERGO   ROH17355  14.254  18.550   6.526  0.1621  0.1921  0.1756
 1243ERGO    R117356  14.140  18.421   6.751 -0.0073  0.0430  0.0090
 1243ERGO    R217357  14.217  18.480   7.010 -0.0935 -0.2317  0.1010
 1243ERGO    R317358  13.950  18.521   7.045 -0.0890 -0.1262  0.0144
 1243ERGO    R417359  14.064  18.534   7.315 -0.1387  0.0729  0.0267
 1243ERGO    R517360  13.899  18.407   7.249 -0.1612  0.0626  0.1031
 1243ERGO    C117361  13.724  18.604   7.525 -0.1606  0.3491 -0.0978
 1243ERGO    C217362  13.761  18.763   7.727 -0.0556  0.0736  0.0662
 1244ERGO   ROH17363   5.835  13.918   5.480 -0.0276 -0.0659  0.0839
 1244ERGO    R117364   5.753  13.868   5.746 -0.0962 -0.0441  0.0668
 1244ERGO    R217365   5.543  13.700   5.808 -0.0146 -0.1587  0.0330
 1244ERGO    R317366   5.728  13.579   5.966  0.0028 -0.0004  0.1366
 1244ERGO    R417367   5.470  13.499   6.080 -0.0043 -0.3583 -0.1091
 1244ERGO    R517368   5.636  13.592   6.187 -0.2002 -0.1990  0.0684
 1244ERGO    C117369   5.602  13.269   6.387  0.0179 -0.3261 -0.0946
 1244ERGO    C217370   5.544  13.085   6.558  0.1617  0.0226  0.1653
 1245ERGO   ROH17371   7.167  18.498   5.808  0.0662  0.0563  0.0300
 1245ERGO    R117372   7.115  18.519   6.085  0.1181  0.0383  0.0420
 1245ERGO    R217373   6.860  18.552   6.187  0.1409  0.1011  0.0898
 1245ERGO    R317374   6.925  18.333   6.334  0.1039  0.0629  0.0481
 1245ERGO    R417375   6.676  18.433   6.454 -0.0364 -0.0971 -0.1173
 1245ERGO    R517376   6.864  18.392   6.558 -0.1105 -0.0651  0.0230
 1245ERGO    C117377   6.629  18.158   6.747 -0.1743 -0.2484 -0.2772
 1245ERGO    C217378   6.484  18.056   6.953 -0.2451  0.3123 -0.0201
 1246ERGO   ROH17379   9.522  15.242   5.845 -0.2576 -0.0203 -0.0854
 1246ERGO    R117380   9.524  15.090   6.084 -0.3581 -0.2486 -0.2268
 1246ERGO    R217381   9.534  15.207   6.334  0.4118 -0.4873 -0.1237
 1246ERGO    R317382   9.311  15.057   6.378 -0.0200  0.1721  0.0780
 1246ERGO    R417383   9.432  15.092   6.644  0.6600 -0.6169 -0.0875
 1246ERGO    R517384   9.377  14.903   6.549 -0.1625 -0.3185 -0.2868
 1246ERGO    C117385   9.164  14.885   6.865  0.3993 -0.0734  0.1231
 1246ERGO    C217386   9.097  15.044   7.189  0.3118  0.3060 -0.1333
 1247ERGO   ROH17387  10.595  12.594   5.938 -0.1064  0.0436 -0.0187
 1247ERGO    R117388  10.523  12.464   6.179  0.1250  0.0840  0.0759
 1247ERGO    R217389  10.558  12.580   6.428 -0.0818  0.3307 -0.0007
 1247ERGO    R317390  10.293  12.525   6.455  0.0098 -0.1239  0.0264
 1247ERGO    R417391  10.386  12.582   6.727 -0.1292  0.3931 -0.0296
 1247ERGO    R517392  10.279  12.404   6.661  0.2047  0.1070  0.1779
 1247ERGO    C117393  10.037  12.530   6.927 -0.0707  0.0027 -0.0210
 1247ERGO    C217394   9.779  12.496   7.152  0.4289  0.0234 -0.2103
 1248ERGO   ROH17395   6.560   2.057   5.615  0.2725  0.0676  0.1520
 1248ERGO    R117396   6.384   1.993   5.827  0.1780  0.2339  0.1237
 1248ERGO    R217397   6.361   1.737   5.930 -0.1231  0.2468  0.0776
 1248ERGO    R317398   6.415   1.861   6.165 -0.0083  0.1433  0.1089
 1248ERGO    R417399   6.290   1.608   6.243 -0.1123  0.1600  0.0457
 1248ERGO    R517400   6.229   1.807   6.305 -0.0085  0.1751  0.1312
 1248ERGO    C117401   6.299   1.650   6.646  0.0018  0.0123  0.0567
 1248ERGO    C217402   6.534   1.486   6.913 -0.0765  0.2356  0.0396
 1249ERGO   ROH17403   0.003   7.355   5.825 -0.0176 -0.3437  0.0556
 1249ERGO    R117404   0.108   7.352   6.088 -0.0188 -0.0901  0.0616
 1249ERGO    R217405   0.285   7.158   6.175 -0.1844 -0.1353  0.3135
 1249ERGO    R317406   0.438   7.373   6.241  0.0030 -0.1750  0.0259
 1249ERGO    R417407   0.542   7.155   6.406  0.0283 -0.1158  0.0814
 1249ERGO    R517408   0.475   7.351   6.476  0.2059 -0.0291  0.0089
 1249ERGO    C117409   0.835   7.356   6.602  0.3280 -0.1418 -0.3236
 1249ERGO    C217410   0.983   7.191   6.874 -0.0458 -0.2135 -0.0915
 1250ERGO   ROH17411  10.768  14.649   6.084 -0.0274 -0.3390  0.2612
 1250ERGO    R117412  10.850  14.701   6.350 -0.1162 -0.0790  0.2402
 1250ERGO    R217413  11.087  14.827   6.410 -0.1078 -0.0857  0.1945
 1250ERGO    R317414  10.926  14.994   6.552 -0.1096  0.1164 -0.0372
 1250ERGO    R417415  11.192  15.026   6.673 -0.2236 -0.2292  0.3523
 1250ERGO    R517416  11.006  14.977   6.777 -0.4506 -0.0007  0.0868
 1250ERGO    C117417  11.101  15.298   6.959 -0.2928 -0.1231  0.2268
 1250ERGO    C217418  11.283  15.707   6.923  0.0199  0.4484 -0.0327
 1251ERGO   ROH17419  12.970  17.951   6.410  0.2604 -0.2689 -0.1180
 1251ERGO    R117420  12.821  17.924   6.649  0.1866  0.1342 -0.1105
 1251ERGO    R217421  12.708  17.685   6.728 -0.3239  0.3853 -0.0173
 1251ERGO    R317422  12.847  17.732   6.957 -0.2257  0.1895 -0.0364
 1251ERGO    R417423  12.574  17.673   7.046 -0.2139  0.2594  0.0240
 1251ERGO    R517424  12.692  17.849   7.098 -0.1215  0.1738  0.0872
 1251ERGO    C117425  12.626  17.709   7.447 -0.0577  0.0019  0.0301
 1251ERGO    C217426  12.479  17.779   7.723  0.0929 -0.0617 -0.0557
 1252ERGO   ROH17427   3.286  18.455   5.541 -0.0344  0.0005  0.0254
 1252ERGO    R117428   3.466  18.303   5.698 -0.0662 -0.0360  0.0263
 1252ERGO    R217429   3.588  18.404   5.924 -0.0300 -0.0532  0.0128
 1252ERGO    R317430   3.482  18.183   6.041 -0.0801 -0.0188  0.0335
 1252ERGO    R417431   3.694  18.269   6.224  0.0542 -0.1439 -0.0566
 1252ERGO    R517432   3.670  18.070   6.138 -0.0839 -0.1226 -0.0741
 1252ERGO    C117433   3.655  17.983   6.509  0.0562 -0.1644 -0.0775
 1252ERGO    C217434   3.772  17.723   6.794  0.0222 -0.1979 -0.1276
 1253ERGO   ROH17435   9.017  16.134   6.023  0.1646 -0.1243 -0.0986
 1253ERGO    R117436   9.126  16.125   6.284  0.0678 -0.1933 -0.0590
 1253ERGO    R217437   8.992  16.225   6.505  0.0972 -0.0011 -0.1199
 1253ERGO    R317438   9.036  15.975   6.604 -0.2100 -0.0355 -0.0616
 1253ERGO    R417439   9.051  16.152   6.837  0.0947  0.0024 -0.1190
 1253ERGO    R517440   9.202  16.007   6.774 -0.1194 -0.2167 -0.1196
 1253ERGO    C117441   9.127  15.875   7.124 -0.1951 -0.0279 -0.0639
 1253ERGO    C217442   9.323  15.765   7.433  0.1326 -0.2708 -0.4668
 1254ERGO   ROH17443  11.969  18.627   6.457 -0.2626 -0.1177 -0.0028
 1254ERGO    R117444  11.862  18.564   6.712 -0.0924 -0.1293  0.0689
 1254ERGO    R217445  12.008  18.432   6.906  0.0913 -0.0056  0.0267
 1254ERGO    R317446  11.937  18.646   7.058  0.0454 -0.0109  0.0100
 1254ERGO    R417447  11.900  18.415   7.234  0.0674  0.0029  0.0179
 1254ERGO    R517448  11.753  18.568   7.189  0.0509 -0.0273 -0.0002
 1254ERGO    C117449  11.772  18.605   7.568  0.0101  0.0025 -0.0029
 1254ERGO    C217450  11.890  18.448   7.903 -0.0837  0.2415 -0.0938
 1255ERGO   ROH17451   9.231   4.661   5.511  0.1702 -0.0786  0.1717
 1255ERGO    R117452   9.216   4.815   5.749  0.0841 -0.0482  0.1489
 1255ERGO    R217453   8.980   4.930   5.837  0.0628  0.0398  0.0074
 1255ERGO    R317454   9.037   4.794   6.065 -0.1047  0.0365  0.0467
 1255ERGO    R417455   8.859   5.010   6.150  0.1068  0.2242 -0.0228
 1255ERGO    R517456   9.055   4.964   6.233  0.0432  0.0486  0.0109
 1255ERGO    C117457   8.842   4.929   6.547 -0.0248  0.3286 -0.0035
 1255ERGO    C217458   8.838   4.818   6.897  0.1874 -0.0364  0.0756
 1256ERGO   ROH17459  10.659   6.931   5.610 -0.0396  0.0810 -0.0311
 1256ERGO    R117460  10.509   7.006   5.838 -0.0461 -0.1391  0.0389
 1256ERGO    R217461  10.445   6.828   6.040  0.2425 -0.2542  0.0316
 1256ERGO    R317462  10.561   7.015   6.198  0.0781 -0.1407  0.0214
 1256ERGO    R417463  10.429   6.832   6.385  0.4298 -0.3839  0.0432
 1256ERGO    R517464  10.405   7.048   6.376  0.1286 -0.4094  0.1213
 1256ERGO    C117465  10.530   7.010   6.735  0.3847 -0.3529  0.0405
 1256ERGO    C217466  10.578   7.115   7.038 -0.0584 -0.0931 -0.2449
 1257ERGO   ROH17467  18.558   5.144   5.735  0.0685 -0.0290 -0.1653
 1257ERGO    R117468  18.658   4.992   5.952  0.0684  0.0206 -0.1307
 1257ERGO    R217469  18.769   5.109   6.177 -0.0607  0.0750 -0.0963
 1257ERGO    R317470  18.584   4.957   6.306 -0.0316 -0.0105 -0.1538
 1257ERGO    R417471  18.760   5.057   6.518 -0.0263 -0.0832 -0.1185
 1257ERGO    R517472  18.707   4.849   6.481 -0.0018 -0.0753 -0.2124
 1257ERGO    C117473  18.581   4.885   6.839  0.0211 -0.2557 -0.1853
 1257ERGO    C217474  18.531   4.911   7.194 -0.0338 -0.2211 -0.3659
 1258ERGO   ROH17475   4.231  10.530   5.749 -0.0129 -0.2535 -0.0587
 1258ERGO    R117476   4.197  10.577   6.026  0.3289 -0.0874 -0.0398
 1258ERGO    R217477   3.997  10.456   6.174  0.1762  0.3986  0.1706
 1258ERGO    R317478   4.205  10.378   6.330  0.1485 -0.0183  0.0113
 1258ERGO    R417479   3.980  10.408   6.516  0.3452  0.4550  0.1880
 1258ERGO    R517480   4.176  10.501   6.534  0.5581  0.0593  0.0307
 1258ERGO    C117481   4.165  10.307   6.862  0.4175  0.0966  0.0486
 1258ERGO    C217482   4.105  10.104   7.201 -0.2081 -0.2401  0.1767
 1259ERGO   ROH17483   4.799  12.386   5.724 -0.0132  0.0242  0.0191
 1259ERGO    R117484   5.022  12.233   5.809 -0.0006  0.0911  0.1156
 1259ERGO    R217485   5.205  12.324   5.995 -0.0931  0.1557  0.1866
 1259ERGO    R317486   5.142  12.092   6.122 -0.0866  0.1484  0.1725
 1259ERGO    R417487   5.350  12.214   6.288  0.0324  0.0476  0.0832
 1259ERGO    R517488   5.351  12.013   6.207 -0.0687  0.0698  0.0428
 1259ERGO    C117489   5.376  11.932   6.578  0.1116 -0.0222  0.0097
 1259ERGO    C217490   5.428  11.680   6.783  0.0677  0.0810  0.0124
 1260ERGO   ROH17491   1.994  15.073   5.862  0.2262  0.2678 -0.0878
 1260ERGO    R117492   1.945  14.955   6.114  0.2042  0.0848 -0.1760
 1260ERGO    R217493   2.131  14.958   6.319  0.1222  0.0856 -0.1022
 1260ERGO    R317494   1.926  15.068   6.460 -0.0052 -0.1322 -0.1130
 1260ERGO    R417495   2.104  14.956   6.664  0.1976  0.1986 -0.0954
 1260ERGO    R517496   1.891  14.917   6.642  0.2407 -0.1059 -0.0382
 1260ERGO    C117497   1.896  15.058   6.996  0.1219  0.0597 -0.1016
 1260ERGO    C217498   2.054  15.175   7.210  0.0271  0.2463 -0.1319
 1261ERGO   ROH17499  16.087  12.151   5.611 -0.0151  0.3030 -0.0651
 1261ERGO    R117500  16.200  11.987   5.812 -0.1644  0.1562 -0.1024
 1261ERGO    R217501  16.472  11.948   5.836 -0.1993  0.0586  0.0039
 1261ERGO    R317502  16.429  12.030   6.092 -0.2825 -0.0793  0.0384
 1261ERGO    R417503  16.676  11.872   6.105  0.0925  0.4364 -0.0993
 1261ERGO    R517504  16.497  11.844   6.226  0.1826  0.0201 -0.0262
 1261ERGO    C117505  16.755  11.905   6.501  0.1840  0.5269 -0.1270
 1261ERGO    C217506  16.949  12.037   6.745 -0.0757 -0.2631  0.1462
 1262ERGO   ROH17507   1.713   2.555   7.462  0.1160 -0.1509  0.0414
 1262ERGO    R117508   1.650   2.383   7.678  0.1810 -0.1341  0.0746
 1262ERGO    R217509   1.818   2.350   7.896  0.1467  0.0529  0.1348
 1262ERGO    R317510   1.595   2.419   8.036  0.0550 -0.0658  0.0481
 1262ERGO    R417511   1.791   2.342   8.241  0.0281  0.0894  0.1261
 1262ERGO    R517512   1.589   2.263   8.218  0.0876 -0.0397  0.0686
 1262ERGO    C117513   1.566   2.402   8.573 -0.1269 -0.0008  0.0398
 1262ERGO    C217514   1.552   2.373   8.876 -0.1622 -0.0450  0.2371
 1263ERGO   ROH17515  11.738  17.257   6.243 -0.1866  0.1958  0.1647
 1263ERGO    R117516  11.789  17.224   6.520 -0.1843  0.0775  0.1509
 1263ERGO    R217517  11.739  16.987   6.653  0.0079 -0.0458  0.0080
 1263ERGO    R317518  12.000  17.012   6.726 -0.0183  0.1376  0.0451
 1263ERGO    R417519  11.868  16.891   6.959  0.0306  0.0459  0.0275
 1263ERGO    R517520  11.991  17.071   6.958 -0.0946  0.1336  0.0441
 1263ERGO    C117521  12.188  16.858   7.206  0.0192  0.2716  0.0737
 1263ERGO    C217522  12.307  16.720   7.450  0.2510  0.2290 -0.2037
 1264ERGO   ROH17523  13.752  17.690   6.346  0.0418  0.0004 -0.0655
 1264ERGO    R117524  13.717  17.477   6.529 -0.0125  0.0917  0.0334
 1264ERGO    R217525  13.917  17.295   6.585 -0.1194 -0.0564 -0.0350
 1264ERGO    R317526  13.868  17.369   6.842  0.1104  0.0812 -0.0301
 1264ERGO    R417527  13.980  17.098   6.862 -0.4839 -0.1751 -0.0321
 1264ERGO    R517528  13.792  17.168   6.948 -0.3123  0.2550  0.0099
 1264ERGO    C117529  13.972  17.053   7.265 -0.4805 -0.1153 -0.0257
 1264ERGO    C217530  13.901  17.063   7.556  0.2205  0.0524 -0.3760
 1265ERGO   ROH17531   6.885   8.497   5.453 -0.1069  0.3311  0.0385
 1265ERGO    R117532   6.900   8.451   5.732 -0.2321  0.2442  0.0321
 1265ERGO    R217533   7.141   8.419   5.864 -0.2994 -0.0550  0.0905
 1265ERGO    R317534   7.045   8.620   6.020 -0.1202  0.0151  0.1120
 1265ERGO    R417535   7.272   8.511   6.170 -0.0697 -0.0428 -0.0098
 1265ERGO    R517536   7.069   8.538   6.244 -0.0118  0.0532  0.1138
 1265ERGO    C117537   7.259   8.753   6.495  0.2322  0.0301 -0.0481
 1265ERGO    C217538   7.548   8.769   6.513  0.1071 -0.1309 -0.4345
 1266ERGO   ROH17539   6.761  17.568   5.270 -0.0047  0.0672  0.0508
 1266ERGO    R117540   6.884  17.450   5.496 -0.0753 -0.0364  0.0374
 1266ERGO    R217541   7.119  17.546   5.605  0.0455 -0.2537 -0.0103
 1266ERGO    R317542   6.972  17.554   5.833  0.0878 -0.0918  0.0109
 1266ERGO    R417543   7.242  17.484   5.922  0.0152 -0.3965 -0.0269
 1266ERGO    R517544   7.059  17.376   5.967 -0.0980 -0.1889 -0.0032
 1266ERGO    C117545   7.174  17.456   6.321  0.0372 -0.3276 -0.0167
 1266ERGO    C217546   7.287  17.529   6.601  0.1102 -0.1562 -0.0696
 1267ERGO   ROH17547   1.702  13.916   5.602  0.1257  0.0941 -0.0227
 1267ERGO    R117548   1.673  14.039   5.856  0.0545  0.0109  0.0109
 1267ERGO    R217549   1.431  14.135   5.948  0.0378  0.0300 -0.0481
 1267ERGO    R317550   1.487  13.975   6.161 -0.0778 -0.0582 -0.0834
 1267ERGO    R417551   1.318  14.188   6.271  0.2899  0.1929  0.0157
 1267ERGO    R517552   1.514  14.127   6.344  0.2459 -0.0965 -0.0935
 1267ERGO    C117553   1.305  14.069   6.658  0.3283  0.2051  0.0198
 1267ERGO    C217554   1.156  14.202   7.020  0.3216 -0.3348 -0.0787
 1268ERGO   ROH17555   8.132  17.767   5.778 -0.1548  0.1509  0.0990
 1268ERGO    R117556   8.299  17.773   6.006  0.1785  0.0337 -0.1328
 1268ERGO    R217557   8.210  17.701   6.258  0.3613  0.4643  0.0690
 1268ERGO    R317558   8.424  17.533   6.250  0.0100  0.0053 -0.0749
 1268ERGO    R417559   8.353  17.548   6.533  0.2673  0.2048 -0.0241
 1268ERGO    R517560   8.549  17.585   6.447  0.2844 -0.2243 -0.1847
 1268ERGO    C117561   8.636  17.301   6.686 -0.1172 -0.3771 -0.2135
 1268ERGO    C217562   8.806  17.197   6.877 -0.0356 -0.3080  0.1386
 1269ERGO   ROH17563  14.562   9.756   5.803 -0.0688 -0.0645 -0.0745
 1269ERGO    R117564  14.537  10.038   5.791  0.0838 -0.0465  0.0084
 1269ERGO    R217565  14.298  10.168   5.839  0.0885  0.0473 -0.2220
 1269ERGO    R317566  14.446  10.306   6.020 -0.0567 -0.0957  0.0121
 1269ERGO    R417567  14.244  10.498   5.927  0.2240  0.0808 -0.2593
 1269ERGO    R517568  14.460  10.527   5.929  0.2527 -0.0920  0.0554
 1269ERGO    C117569  14.352  10.819   6.149  0.1666 -0.0340 -0.0612
 1269ERGO    C217570  14.416  11.150   6.230 -0.0034 -0.0627  0.1086
 1270ERGO   ROH17571   9.455  11.509   5.727 -0.2338 -0.1523 -0.1069
 1270ERGO    R117572   9.335  11.418   5.967 -0.1710 -0.0972 -0.0539
 1270ERGO    R217573   9.446  11.464   6.215 -0.0495 -0.1324 -0.0999
 1270ERGO    R317574   9.201  11.570   6.269  0.0136 -0.0339 -0.0030
 1270ERGO    R417575   9.298  11.472   6.528 -0.0524 -0.3504 -0.0947
 1270ERGO    R517576   9.107  11.423   6.433 -0.0805 -0.1406 -0.1500
 1270ERGO    C117577   8.982  11.576   6.760  0.0053 -0.3848 -0.0008
 1270ERGO    C217578   8.900  11.565   7.073 -0.0860  0.0224  0.0790
 1271ERGO   ROH17579   2.095   5.714   5.634  0.2866  0.0144  0.1190
 1271ERGO    R117580   1.904   5.795   5.827  0.1406  0.0008 -0.0170
 1271ERGO    R217581   1.900   5.693   6.084 -0.1007 -0.0751 -0.0451
 1271ERGO    R317582   1.909   5.956   6.153 -0.0957 -0.0975  0.0367
 1271ERGO    R417583   1.850   5.815   6.404 -0.3656 -0.1461 -0.0573
 1271ERGO    R517584   1.737   5.981   6.317 -0.2409 -0.0953 -0.1170
 1271ERGO    C117585   1.830   6.133   6.654 -0.5153 -0.2086  0.0123
 1271ERGO    C217586   1.736   6.137   7.006 -0.2972 -0.0795  0.2543
 1272ERGO   ROH17587   8.556  11.654   5.649  0.1175 -0.2029  0.0894
 1272ERGO    R117588   8.491  11.540   5.900 -0.0517 -0.0628  0.1116
 1272ERGO    R217589   8.682  11.482   6.091 -0.1336 -0.2948  0.1302
 1272ERGO    R317590   8.522  11.635   6.249  0.0739 -0.0334  0.0918
 1272ERGO    R417591   8.678  11.473   6.437 -0.0879 -0.1326  0.1349
 1272ERGO    R517592   8.462  11.491   6.431 -0.0675  0.1216  0.1670
 1272ERGO    C117593   8.527  11.612   6.786  0.1335  0.2073  0.1016
 1272ERGO    C217594   8.334  11.863   6.997 -0.0093  0.0984 -0.2150
 1273ERGO   ROH17595   1.888   9.388   5.883 -0.1515 -0.1911 -0.2471
 1273ERGO    R117596   1.821   9.528   6.120 -0.0194  0.0047 -0.3244
 1273ERGO    R217597   1.718   9.784   6.116 -0.3016 -0.1066 -0.4977
 1273ERGO    R317598   1.521   9.673   6.266 -0.0058 -0.1589 -0.1319
 1273ERGO    R417599   1.483   9.963   6.296 -0.3249 -0.1608 -0.4730
 1273ERGO    R517600   1.504   9.816   6.458  0.0310  0.0701 -0.2979
 1273ERGO    C117601   1.161   9.962   6.542 -0.0607 -0.2416 -0.1152
 1273ERGO    C217602   0.851   9.984   6.697  0.0060 -0.1774  0.0626
 1274ERGO   ROH17603  14.177   7.517   5.959 -0.3016 -0.0991 -0.0931
 1274ERGO    R117604  14.095   7.504   6.230 -0.3183  0.0026 -0.0935
 1274ERGO    R217605  14.263   7.568   6.440 -0.2541 -0.1576 -0.0987
 1274ERGO    R317606  14.061   7.737   6.507 -0.0818  0.0562 -0.1063
 1274ERGO    R417607  14.253   7.759   6.728 -0.1228 -0.2572 -0.0269
 1274ERGO    R517608  14.041   7.714   6.745 -0.1891 -0.0155 -0.1191
 1274ERGO    C117609  14.058   8.029   6.959  0.1153 -0.1144  0.0078
 1274ERGO    C217610  14.205   8.188   7.250 -0.2202  0.0300  0.0948
 1275ERGO   ROH17611   3.404  15.650   5.633  0.1471  0.0326 -0.0920
 1275ERGO    R117612   3.471  15.788   5.870  0.1454  0.1578 -0.1647
 1275ERGO    R217613   3.518  15.658   6.110 -0.1665  0.3054 -0.0236
 1275ERGO    R317614   3.753  15.795   6.101  0.0018  0.0297  0.0199
 1275ERGO    R417615   3.708  15.743   6.386 -0.2567  0.3040  0.0403
 1275ERGO    R517616   3.746  15.937   6.294  0.0296  0.1940 -0.0940
 1275ERGO    C117617   4.038  15.922   6.539 -0.1513  0.0445  0.1183
 1275ERGO    C217618   4.069  15.968   6.906  0.0119 -0.3375  0.1199
 1276ERGO   ROH17619  14.620   0.506   6.964  0.0979  0.0051 -0.1303
 1276ERGO    R117620  14.478   0.514   7.209  0.1086  0.0752 -0.1245
 1276ERGO    R217621  14.572   0.394   7.440  0.0446  0.0014 -0.1279
 1276ERGO    R317622  14.538   0.643   7.545  0.2001  0.0188 -0.1207
 1276ERGO    R417623  14.544   0.465   7.777 -0.1849 -0.0175 -0.1430
 1276ERGO    R517624  14.389   0.610   7.729  0.0046  0.1429 -0.2584
 1276ERGO    C117625  14.495   0.739   8.072 -0.1726 -0.0121 -0.1451
 1276ERGO    C217626  14.656   0.867   8.409 -0.0013 -0.1549  0.2278
 1277ERGO   ROH17627   5.311  14.135   5.677 -0.3211 -0.0134 -0.0632
 1277ERGO    R117628   5.297  14.308   5.901 -0.0478 -0.0793  0.0095
 1277ERGO    R217629   5.091  14.489   5.936  0.1649  0.1437  0.1501
 1277ERGO    R317630   5.067  14.366   6.177  0.1099  0.0766  0.1099
 1277ERGO    R417631   4.912  14.614   6.204  0.0105  0.0144  0.1076
 1277ERGO    R517632   5.072  14.545   6.336 -0.0194  0.0393  0.1559
 1277ERGO    C117633   4.785  14.570   6.586 -0.1311 -0.1239  0.0451
 1277ERGO    C217634   4.506  14.595   6.646  0.0162  0.0469 -0.5533
 1278ERGO   ROH17635  15.260  18.189   6.274  0.2236 -0.2868  0.2006
 1278ERGO    R117636  15.315  18.124   6.543  0.2672 -0.0014  0.2649
 1278ERGO    R217637  15.307  18.311   6.746 -0.1984  0.1253  0.1517
 1278ERGO    R317638  15.136  18.133   6.860  0.1232 -0.1714  0.1872
 1278ERGO    R417639  15.222  18.306   7.081 -0.4086  0.2022  0.1001
 1278ERGO    R517640  15.231  18.088   7.075  0.0856  0.2161  0.2845
 1278ERGO    C117641  15.011  18.137   7.383 -0.2290 -0.0318  0.1035
 1278ERGO    C217642  15.041  18.159   7.698  0.0778 -0.4253  0.0171
 1279ERGO   ROH17643   8.007   6.758   5.309  0.0425 -0.2240 -0.0420
 1279ERGO    R117644   8.006   6.801   5.588  0.0179 -0.1520 -0.0534
 1279ERGO    R217645   8.028   7.053   5.700  0.0140 -0.1260 -0.1177
 1279ERGO    R317646   7.799   6.980   5.828  0.0012 -0.0853 -0.1162
 1279ERGO    R417647   7.923   7.180   6.004  0.0508 -0.1155 -0.1089
 1279ERGO    R517648   7.859   6.979   6.060  0.0097 -0.1079 -0.1162
 1279ERGO    C117649   7.647   7.186   6.301  0.0601 -0.0711 -0.1024
 1279ERGO    C217650   7.541   7.270   6.699  0.1864  0.1241  0.0130
 1280ERGO   ROH17651   9.970  18.213   6.074 -0.0334  0.4180  0.0109
 1280ERGO    R117652   9.963  18.379   6.303 -0.2064  0.3072  0.0869
 1280ERGO    R217653   9.784  18.340   6.510 -0.0648 -0.0750  0.1414
 1280ERGO    R317654  10.009  18.335   6.662  0.0083  0.2174  0.0507
 1280ERGO    R417655   9.789  18.357   6.855  0.0406 -0.2197  0.1490
 1280ERGO    R517656   9.963  18.488   6.841 -0.1691  0.0695  0.1363
 1280ERGO    C117657  10.004  18.362   7.199  0.1706 -0.0293  0.0683
 1280ERGO    C217658   9.811  18.346   7.427  0.0461 -0.4838 -0.0630
 1281ERGO   ROH17659   3.622   1.559   5.857  0.2002 -0.1186 -0.0291
 1281ERGO    R117660   3.699   1.421   6.091  0.0770 -0.0984  0.0231
 1281ERGO    R217661   3.834   1.544   6.299  0.0374 -0.1003  0.0462
 1281ERGO    R317662   3.628   1.445   6.448 -0.0424 -0.0155 -0.0051
 1281ERGO    R417663   3.867   1.400   6.612 -0.1225  0.0473  0.1343
 1281ERGO    R517664   3.720   1.251   6.553 -0.1046  0.0274  0.1337
 1281ERGO    C117665   3.695   1.223   6.933 -0.2905  0.2127  0.1373
 1281ERGO    C217666   3.843   1.198   7.208  0.1532  0.2109  0.3686
 1282ERGO   ROH17667  18.473   7.601   6.053 -0.0954 -0.1800 -0.1196
 1282ERGO    R117668  18.345   7.384   6.182 -0.1201 -0.1640 -0.1154
 1282ERGO    R217669  18.447   7.264   6.409 -0.1040 -0.2084 -0.1410
 1282ERGO    R317670  18.201   7.319   6.511 -0.0735 -0.1583 -0.0953
 1282ERGO    R417671  18.317   7.125   6.697  0.0175  0.0244  0.0293
 1282ERGO    R517672  18.124   7.109   6.597 -0.0140 -0.0916  0.1166
 1282ERGO    C117673  18.010   7.095   6.960  0.1170  0.2071  0.1713
 1282ERGO    C217674  18.073   7.029   7.330 -0.0358 -0.2012  0.1039
 1283ERGO   ROH17675   0.216  11.342   5.773 -0.3096  0.0134  0.0480
 1283ERGO    R117676   0.276  11.341   6.050 -0.3250 -0.0496  0.0513
 1283ERGO    R217677   0.395  11.554   6.177 -0.1544 -0.1540  0.0686
 1283ERGO    R317678   0.180  11.536   6.342 -0.1796  0.0160  0.0563
 1283ERGO    R417679   0.371  11.702   6.489 -0.0430 -0.1545  0.0780
 1283ERGO    R517680   0.273  11.522   6.561 -0.2005 -0.0794  0.0599
 1283ERGO    C117681   0.153  11.771   6.824 -0.0019  0.0048  0.0718
 1283ERGO    C217682   0.065  11.966   7.145  0.0001 -0.2396 -0.0254
 1284ERGO   ROH17683  13.784   6.266   6.955  0.3547  0.0175  0.0497
 1284ERGO    R117684  13.690   6.408   7.181  0.1000 -0.0646 -0.0012
 1284ERGO    R217685  13.499   6.305   7.353  0.1817 -0.2892 -0.0390
 1284ERGO    R317686  13.687   6.359   7.542  0.0616 -0.0079  0.0059
 1284ERGO    R417687  13.431   6.382   7.683 -0.0189  0.0127 -0.1462
 1284ERGO    R517688  13.589   6.531   7.676 -0.0885  0.0821 -0.2158
 1284ERGO    C117689  13.567   6.476   8.053 -0.2486  0.4527 -0.1665
 1284ERGO    C217690  13.527   6.429   8.397  0.0553  0.0064  0.0071
 1285ERGO   ROH17691  15.152   3.412   5.850  0.0154 -0.2043  0.1164
 1285ERGO    R117692  15.221   3.539   6.093  0.0213 -0.0881  0.0558
 1285ERGO    R217693  15.033   3.653   6.260  0.0259  0.0229 -0.0063
 1285ERGO    R317694  15.148   3.492   6.446 -0.0011  0.0992  0.0760
 1285ERGO    R417695  14.945   3.642   6.594 -0.0606  0.1080 -0.0268
 1285ERGO    R517696  15.156   3.625   6.645 -0.0762  0.1567  0.0367
 1285ERGO    C117697  15.001   3.483   6.963 -0.1364  0.2292  0.0387
 1285ERGO    C217698  15.084   3.330   7.301  0.3462  0.2155  0.4808
 1286ERGO   ROH17699  11.101   1.385   5.977  0.4328 -0.1761  0.1242
 1286ERGO    R117700  10.992   1.333   6.233 -0.0159  0.0252 -0.0184
 1286ERGO    R217701  11.133   1.377   6.466 -0.2159 -0.3125  0.1623
 1286ERGO    R317702  10.915   1.526   6.532  0.0113  0.1569 -0.0922
 1286ERGO    R417703  11.065   1.497   6.783 -0.4506 -0.4279  0.1595
 1286ERGO    R517704  10.855   1.449   6.751 -0.5405  0.0940 -0.2440
 1286ERGO    C117705  10.821   1.707   7.029 -0.3738 -0.0545 -0.0810
 1286ERGO    C217706  10.669   1.882   7.279 -0.1137 -0.1305 -0.0041
 1287ERGO   ROH17707  12.731  14.563   5.856 -0.0926  0.2563 -0.3225
 1287ERGO    R117708  12.540  14.753   5.945 -0.3202 -0.0078 -0.2333
 1287ERGO    R217709  12.310  14.680   6.080 -0.0620 -0.3201  0.0595
 1287ERGO    R317710  12.402  14.858   6.265 -0.1530 -0.0551 -0.1448
 1287ERGO    R417711  12.154  14.752   6.380  0.0243 -0.2236  0.0817
 1287ERGO    R517712  12.204  14.962   6.351 -0.2192 -0.1935 -0.1312
 1287ERGO    C117713  12.149  14.960   6.728 -0.0108  0.0814 -0.0972
 1287ERGO    C217714  12.019  14.881   7.025 -0.1767  0.0015 -0.1620
 1288ERGO   ROH17715   0.856   9.437   5.238 -0.1504 -0.2135 -0.0163
 1288ERGO    R117716   0.928   9.465   5.511 -0.0178 -0.1126 -0.0610
 1288ERGO    R217717   0.770   9.599   5.694  0.0643 -0.0616 -0.0327
 1288ERGO    R317718   0.788   9.366   5.832  0.1493 -0.0103  0.0458
 1288ERGO    R417719   0.642   9.547   6.011  0.1310  0.0194  0.0089
 1288ERGO    R517720   0.822   9.434   6.059  0.1719  0.0813  0.0180
 1288ERGO    C117721   0.585   9.297   6.325  0.2497  0.1146  0.1068
 1288ERGO    C217722   0.490   9.096   6.514 -0.0735 -0.2917  0.1687
 1289ERGO   ROH17723   1.873  17.352   5.602 -0.2211  0.0391  0.0049
 1289ERGO    R117724   1.971  17.515   5.812 -0.1632  0.0316 -0.0165
 1289ERGO    R217725   1.804  17.642   5.991 -0.1122  0.0150  0.0396
 1289ERGO    R317726   1.957  17.514   6.176 -0.0511  0.0137 -0.0112
 1289ERGO    R417727   1.931  17.788   6.278 -0.1785 -0.0312  0.0930
 1289ERGO    R517728   2.116  17.679   6.245 -0.1255  0.0648  0.0482
 1289ERGO    C117729   2.148  17.753   6.618 -0.1597 -0.0595  0.0765
 1289ERGO    C217730   2.122  18.046   6.867  0.0226  0.0243  0.3658
 1290ERGO   ROH17731   4.734  13.238   5.602 -0.3303  0.3292  0.3025
 1290ERGO    R117732   4.869  13.122   5.822 -0.2359  0.1981  0.1774
 1290ERGO    R217733   5.062  13.257   5.967 -0.1245  0.0873  0.1330
 1290ERGO    R317734   4.903  13.192   6.177 -0.0238  0.0305  0.1922
 1290ERGO    R417735   5.169  13.226   6.294  0.0489 -0.0747  0.0628
 1290ERGO    R517736   5.040  13.052   6.315  0.0238 -0.0576  0.0583
 1290ERGO    C117737   5.082  13.147   6.682  0.2443 -0.2224  0.0775
 1290ERGO    C217738   5.049  13.175   7.122  0.1488 -0.0515 -0.2794
 1291ERGO   ROH17739   6.065  18.129   5.456 -0.0106  0.0257 -0.0632
 1291ERGO    R117740   6.043  18.103   5.737 -0.0340  0.0244 -0.0654
 1291ERGO    R217741   5.810  18.021   5.861 -0.0109 -0.0805 -0.0934
 1291ERGO    R317742   5.973  17.834   5.973  0.0619 -0.0009 -0.0651
 1291ERGO    R417743   5.729  17.825   6.134  0.0329 -0.1266 -0.1127
 1291ERGO    R517744   5.932  17.853   6.208  0.0062 -0.0252 -0.0721
 1291ERGO    C117745   5.835  17.537   6.398  0.1269 -0.0790 -0.0975
 1291ERGO    C217746   5.718  17.331   6.636 -0.0163 -0.2280 -0.1991
 1292ERGO   ROH17747  11.588   8.336   5.499 -0.2770 -0.2072 -0.0717
 1292ERGO    R117748  11.677   8.402   5.760 -0.2031 -0.1866 -0.1018
 1292ERGO    R217749  11.681   8.662   5.854  0.0075 -0.1551 -0.1905
 1292ERGO    R317750  11.533   8.556   6.057 -0.0593  0.0280 -0.1415
 1292ERGO    R417751  11.714   8.746   6.188  0.1708 -0.1422 -0.2089
 1292ERGO    R517752  11.688   8.536   6.239 -0.0390 -0.1088 -0.1737
 1292ERGO    C117753  11.594   8.696   6.572  0.2031  0.0372 -0.1736
 1292ERGO    C217754  11.716   8.794   6.931  0.3432 -0.0465  0.1880
 1293ERGO   ROH17755  12.609   8.669   5.812  0.0333  0.0590  0.0544
 1293ERGO    R117756  12.585   8.893   5.984 -0.0752 -0.0113  0.1348
 1293ERGO    R217757  12.340   9.000   6.056 -0.1277 -0.0583  0.0533
 1293ERGO    R317758  12.435   8.962   6.308 -0.2527 -0.1601  0.0844
 1293ERGO    R417759  12.218   9.155   6.340 -0.0697  0.0450  0.0206
 1293ERGO    R517760  12.423   9.178   6.410 -0.0765 -0.1572  0.0911
 1293ERGO    C117761  12.236   9.210   6.741 -0.1534  0.0096  0.0306
 1293ERGO    C217762  12.160   9.024   7.113 -0.0969 -0.3995  0.0708
 1294ERGO   ROH17763  12.999  13.654   6.017  0.0328 -0.0788 -0.1575
 1294ERGO    R117764  12.937  13.507   6.251  0.0667 -0.0668 -0.1408
 1294ERGO    R217765  13.116  13.331   6.368  0.1197  0.0087 -0.1032
 1294ERGO    R317766  13.068  13.482   6.589  0.0538  0.0268 -0.1295
 1294ERGO    R417767  13.133  13.215   6.693  0.2713  0.1059 -0.0751
 1294ERGO    R517768  12.955  13.333   6.739  0.1957 -0.0166 -0.0683
 1294ERGO    C117769  13.098  13.289   7.090  0.2977  0.1795 -0.0835
 1294ERGO    C217770  13.015  13.049   7.421  0.0852 -0.1283  0.0316
 1295ERGO   ROH17771   5.269  11.537   5.510 -0.0979 -0.0512  0.1710
 1295ERGO    R117772   5.430  11.491   5.738 -0.0542  0.0587  0.1632
 1295ERGO    R217773   5.383  11.615   5.981 -0.1798 -0.0378  0.1904
 1295ERGO    R317774   5.382  11.360   6.074  0.0703 -0.0614  0.1352
 1295ERGO    R417775   5.390  11.527   6.315  0.1229 -0.1075  0.1681
 1295ERGO    R517776   5.527  11.365   6.264  0.2046  0.0003  0.0331
 1295ERGO    C117777   5.393  11.236   6.597  0.5339 -0.1703  0.1034
 1295ERGO    C217778   5.367  11.211   6.996 -0.1728  0.0212 -0.0870
 1296ERGO   ROH17779  10.650   8.934   5.527  0.1581 -0.2533  0.0566
 1296ERGO    R117780  10.804   9.024   5.747  0.1127 -0.0510  0.0081
 1296ERGO    R217781  10.834   9.293   5.806 -0.0786  0.0009 -0.1011
 1296ERGO    R317782  10.743   9.215   6.051 -0.0027  0.0280 -0.0646
 1296ERGO    R417783  10.827   9.493   6.088  0.0281  0.0197 -0.1121
 1296ERGO    R517784  10.891   9.321   6.206  0.0537  0.0273 -0.1212
 1296ERGO    C117785  10.738   9.536   6.481  0.1616  0.0561 -0.0844
 1296ERGO    C217786  10.643   9.528   6.874 -0.0665  0.2226 -0.1016
 1297ERGO   ROH17787  17.369   4.302   5.855  0.0987 -0.1757 -0.2143
 1297ERGO    R117788  17.364   4.241   6.132  0.1552 -0.0134 -0.1741
 1297ERGO    R217789  17.438   4.424   6.326  0.1646  0.1205 -0.2850
 1297ERGO    R317790  17.191   4.367   6.426  0.1859  0.1418 -0.2262
 1297ERGO    R417791  17.349   4.448   6.659  0.1913  0.2255 -0.2867
 1297ERGO    R517792  17.235   4.264   6.637  0.2064  0.2231 -0.2021
 1297ERGO    C117793  17.066   4.408   6.947  0.2268  0.3066 -0.2323
 1297ERGO    C217794  16.941   4.329   7.281  0.0993 -0.1359  0.0227
 1298ERGO   ROH17795  10.517   3.013   5.917  0.1542 -0.1583  0.3864
 1298ERGO    R117796  10.467   3.257   6.052  0.0788 -0.1121  0.2771
 1298ERGO    R217797  10.291   3.276   6.265  0.0629 -0.0680  0.2618
 1298ERGO    R317798  10.506   3.384   6.391  0.0276  0.0476  0.2232
 1298ERGO    R417799  10.284   3.423   6.577  0.0201  0.0304  0.2146
 1298ERGO    R517800  10.419   3.577   6.503 -0.0357  0.0529  0.1633
 1298ERGO    C117801  10.482   3.611   6.878 -0.0380  0.1961  0.1509
 1298ERGO    C217802  10.665   3.447   7.237  0.0260 -0.0372 -0.0281
 1299ERGO   ROH17803   5.132   1.179   5.771  0.0821  0.0438 -0.0898
 1299ERGO    R117804   5.142   1.306   6.023  0.1805  0.0087 -0.0765
 1299ERGO    R217805   5.036   1.192   6.252  0.1090  0.0587 -0.0888
 1299ERGO    R317806   5.286   1.234   6.350  0.1418 -0.1268 -0.0877
 1299ERGO    R417807   5.130   1.138   6.580  0.0258  0.1166 -0.0544
 1299ERGO    R517808   5.249   1.321   6.570  0.1978  0.0080 -0.1276
 1299ERGO    C117809   5.420   1.146   6.863  0.0081 -0.0238 -0.0333
 1299ERGO    C217810   5.462   1.052   7.166  0.1249 -0.2988 -0.1758
 1300ERGO   ROH17811   8.353  18.164   5.772  0.0087 -0.2969  0.0772
 1300ERGO    R117812   8.137  18.254   5.931  0.0693 -0.1188  0.0611
 1300ERGO    R217813   8.012  18.092   6.117 -0.0346  0.0049  0.0988
 1300ERGO    R317814   8.071  18.295   6.287  0.1004  0.0048  0.0535
 1300ERGO    R417815   7.957  18.086   6.458 -0.2541  0.1982  0.0697
 1300ERGO    R517816   7.892  18.293   6.446 -0.0048  0.2759 -0.0538
 1300ERGO    C117817   7.981  18.273   6.816 -0.2549  0.3108  0.0102
 1300ERGO    C217818   7.789  18.437   7.200 -0.2638  0.3766  0.0028
 1301ERGO   ROH17819  10.909  16.785   5.884 -0.0211 -0.3106  0.1363
 1301ERGO    R117820  10.853  16.634   6.117 -0.0305 -0.1618  0.2319
 1301ERGO    R217821  11.034  16.608   6.325 -0.0627  0.0215  0.2842
 1301ERGO    R317822  10.826  16.699   6.474 -0.1100  0.0802  0.1834
 1301ERGO    R417823  11.009  16.581   6.669 -0.2512  0.0006  0.2702
 1301ERGO    R517824  10.798  16.534   6.645 -0.2558  0.0747  0.1561
 1301ERGO    C117825  10.800  16.650   7.009 -0.4052  0.0435  0.1674
 1301ERGO    C217826  10.776  16.851   7.257 -0.2198  0.1565  0.0410
 1302ERGO   ROH17827   0.647  10.409   5.827 -0.3384 -0.1507 -0.0249
 1302ERGO    R117828   0.787  10.500   6.056 -0.2385 -0.0457 -0.1261
 1302ERGO    R217829   0.667  10.527   6.303 -0.0710 -0.1688 -0.0280
 1302ERGO    R317830   0.872  10.368   6.384  0.1322  0.0021 -0.1987
 1302ERGO    R417831   0.802  10.527   6.621  0.0745 -0.1807 -0.0900
 1302ERGO    R517832   1.000  10.508   6.531  0.0560  0.0659 -0.1920
 1302ERGO    C117833   1.074  10.378   6.882  0.3501 -0.0270 -0.2864
 1302ERGO    C217834   1.118  10.561   7.059 -0.1628 -0.0064 -0.0188
 1303ERGO   ROH17835   7.373  18.858   5.988 -0.1387 -0.0923 -0.0453
 1303ERGO    R117836   7.488  19.071   6.134  0.0043 -0.1525 -0.0678
 1303ERGO    R217837   7.350  19.207   6.331  0.0497  0.0449 -0.1677
 1303ERGO    R317838   7.565  19.140   6.483 -0.0754 -0.1146 -0.0580
 1303ERGO    R417839   7.452  19.376   6.615  0.1190  0.0581 -0.2007
 1303ERGO    R517840   7.659  19.350   6.550  0.1176 -0.1826 -0.1115
 1303ERGO    C117841   7.713  19.412   6.922  0.0419 -0.0838 -0.1169
 1303ERGO    C217842   7.782  19.637   7.195 -0.3746 -0.1239  0.2105
 1304ERGO   ROH17843   9.644   1.010   5.675 -0.1972 -0.0940 -0.1787
 1304ERGO    R117844   9.510   0.924   5.909 -0.1411 -0.1373 -0.1616
 1304ERGO    R217845   9.405   0.670   5.935 -0.0581 -0.1738 -0.1480
 1304ERGO    R317846   9.557   0.666   6.160 -0.0257 -0.1232 -0.1694
 1304ERGO    R417847   9.382   0.432   6.185 -0.0352 -0.0994 -0.0751
 1304ERGO    R517848   9.407   0.591   6.332 -0.0014 -0.0630 -0.1254
 1304ERGO    C117849   9.511   0.290   6.542  0.0085 -0.0085 -0.0526
 1304ERGO    C217850   9.652   0.024   6.844  0.2995 -0.2841  0.3080
 1305ERGO   ROH17851   6.941   8.956   5.278  0.0138 -0.1447  0.0804
 1305ERGO    R117852   7.014   8.939   5.551 -0.0100  0.0808  0.1024
 1305ERGO    R217853   7.219   8.777   5.640 -0.0712  0.0949  0.2626
 1305ERGO    R317854   7.311   9.008   5.750 -0.0006  0.1656  0.0614
 1305ERGO    R417855   7.468   8.798   5.879  0.1018  0.2390  0.0743
 1305ERGO    R517856   7.353   8.953   5.979  0.1646  0.2966  0.0683
 1305ERGO    C117857   7.699   9.027   6.121  0.2687  0.3893 -0.2242
 1305ERGO    C217858   7.974   9.070   6.410 -0.1048 -0.0026 -0.0416
 1306ERGO   ROH17859  16.268  18.271   6.261 -0.0154  0.5361 -0.0915
 1306ERGO    R117860  16.351  18.274   6.532  0.1062  0.1091 -0.1157
 1306ERGO    R217861  16.245  18.449   6.718  0.5558  0.1814  0.0893
 1306ERGO    R317862  16.195  18.221   6.857  0.1132  0.1489 -0.1063
 1306ERGO    R417863  16.209  18.430   7.061  0.3524 -0.0257  0.0585
 1306ERGO    R517864  16.323  18.245   7.058  0.0538 -0.2125 -0.0206
 1306ERGO    C117865  16.142  18.205   7.391 -0.1814 -0.1772 -0.1430
 1306ERGO    C217866  15.924  18.348   7.626 -0.1679 -0.1229 -0.0860
 1307ERGO   ROH17867   9.054   2.092   5.945  0.2150  0.1442  0.0584
 1307ERGO    R117868   9.016   1.944   6.183  0.2090  0.2325  0.1124
 1307ERGO    R217869   9.107   1.685   6.214 -0.0613  0.1335  0.0989
 1307ERGO    R317870   9.229   1.788   6.434  0.2054  0.0413 -0.0018
 1307ERGO    R417871   9.154   1.515   6.511 -0.2233  0.1981  0.1624
 1307ERGO    R517872   9.105   1.699   6.618  0.1276  0.3392  0.0949
 1307ERGO    C117873   9.296   1.513   6.891 -0.0672  0.1492  0.1048
 1307ERGO    C217874   9.550   1.262   7.139  0.0398 -0.1141  0.2901
 1308ERGO   ROH17875   5.091   3.073   5.867  0.0286  0.0527  0.1282
 1308ERGO    R117876   5.008   2.881   6.057 -0.3283 -0.0872 -0.1587
 1308ERGO    R217877   4.871   2.651   5.986  0.3054 -0.3331 -0.6719
 1308ERGO    R317878   5.072   2.528   6.122  0.0627  0.0181  0.0584
 1308ERGO    R417879   4.844   2.347   6.149  0.2281 -0.3557 -0.7241
 1308ERGO    R517880   4.965   2.429   6.311 -0.4520 -0.1243 -0.2860
 1308ERGO    C117881   5.017   2.056   6.372 -0.0447 -0.0392 -0.0689
 1308ERGO    C217882   5.168   1.834   6.644 -0.1209 -0.0205 -0.2296
 1309ERGO   ROH17883  14.906  12.242   5.834  0.1666  0.2765  0.0534
 1309ERGO    R117884  14.859  12.441   6.031 -0.0711  0.2000  0.0777
 1309ERGO    R217885  14.645  12.429   6.205 -0.0838 -0.0572  0.0558
 1309ERGO    R317886  14.839  12.454   6.394 -0.1257  0.1235  0.0763
 1309ERGO    R417887  14.594  12.545   6.527 -0.2265 -0.1478  0.0664
 1309ERGO    R517888  14.783  12.654   6.512 -0.3412  0.0487  0.0969
 1309ERGO    C117889  14.747  12.636   6.891 -0.3490 -0.0309  0.0917
 1309ERGO    C217890  14.581  12.583   7.286 -0.0744 -0.0137 -0.1845
 1310ERGO   ROH17891   0.575   3.049   5.516  0.2012 -0.0164  0.2250
 1310ERGO    R117892   0.576   2.842   5.710 -0.0181 -0.0829  0.1589
 1310ERGO    R217893   0.725   2.856   5.941  0.0664 -0.3525  0.1263
 1310ERGO    R317894   0.486   2.808   6.060  0.0302 -0.0742  0.1720
 1310ERGO    R417895   0.684   2.761   6.271  0.0448 -0.5820  0.0584
 1310ERGO    R517896   0.528   2.623   6.207 -0.2062 -0.2783 -0.0087
 1310ERGO    C117897   0.436   2.660   6.575 -0.0018 -0.4545  0.0618
 1310ERGO    C217898   0.332   2.554   6.914  0.1645 -0.1338  0.2130
 1311ERGO   ROH17899  18.335  16.073   5.678 -0.1407 -0.0266  0.1009
 1311ERGO    R117900  18.406  15.858   5.849 -0.1317  0.0453  0.1885
 1311ERGO    R217901  18.667  15.803   5.919 -0.0980 -0.0970 -0.0359
 1311ERGO    R317902  18.568  15.819   6.172  0.1653  0.1646  0.0567
 1311ERGO    R417903  18.823  15.678   6.201  0.0576 -0.0669 -0.1073
 1311ERGO    R517904  18.629  15.611   6.273  0.0590  0.1692  0.1300
 1311ERGO    C117905  18.821  15.620   6.602  0.3952  0.1962 -0.0619
 1311ERGO    C217906  18.805  15.421   6.966 -0.3435  0.0756 -0.0006
 1312ERGO   ROH17907  15.337  18.653   6.413 -0.1885  0.0020 -0.0852
 1312ERGO    R117908  15.255  18.787   6.648 -0.0831 -0.0193 -0.0369
 1312ERGO    R217909  15.063  18.685   6.818  0.0104 -0.0435  0.0482
 1312ERGO    R317910  15.257  18.718   7.006  0.0966 -0.0390 -0.0396
 1312ERGO    R417911  15.005  18.744   7.154  0.1550 -0.1883  0.1014
 1312ERGO    R517912  15.170  18.887   7.152  0.1033 -0.1221  0.0670
 1312ERGO    C117913  15.153  18.811   7.525  0.3203 -0.2683  0.0499
 1312ERGO    C217914  14.993  18.943   7.768 -0.0424 -0.2543 -0.0242
 1313ERGO   ROH17915  10.788  18.468   6.067 -0.1288  0.2756 -0.0261
 1313ERGO    R117916  10.936  18.505   6.305 -0.0866  0.0580 -0.0159
 1313ERGO    R217917  10.907  18.729   6.466  0.1171  0.0290  0.0672
 1313ERGO    R317918  10.861  18.543   6.659 -0.0423 -0.0035 -0.0002
 1313ERGO    R417919  10.924  18.789   6.805  0.0013 -0.0731  0.0917
 1313ERGO    R517920  11.020  18.595   6.830 -0.0924 -0.1193  0.0804
 1313ERGO    C117921  10.891  18.650   7.185 -0.2158 -0.1630  0.0427
 1313ERGO    C217922  10.700  18.757   7.432 -0.1810  0.1571 -0.1451
 1314ERGO   ROH17923  15.439   0.564   6.256 -0.1259 -0.1270  0.0956
 1314ERGO    R117924  15.630   0.657   6.444 -0.0670 -0.0411 -0.0047
 1314ERGO    R217925  15.690   0.925   6.474 -0.1691 -0.0104 -0.0376
 1314ERGO    R317926  15.629   0.876   6.734 -0.0134 -0.0399 -0.0067
 1314ERGO    R417927  15.854   1.063   6.745 -0.0919  0.0539 -0.1171
 1314ERGO    R517928  15.841   0.870   6.845  0.0430  0.0500 -0.1135
 1314ERGO    C117929  15.892   1.097   7.147  0.0992  0.0637 -0.1344
 1314ERGO    C217930  15.771   1.156   7.532  0.0042  0.0708  0.1735
 1315ERGO   ROH17931   2.223  10.609   5.847  0.1096 -0.0614  0.1419
 1315ERGO    R117932   2.237  10.469   6.093  0.0795  0.0030  0.1812
 1315ERGO    R217933   2.475  10.428   6.228  0.0742 -0.0214  0.1881
 1315ERGO    R317934   2.341  10.543   6.434  0.1077  0.0726  0.1571
 1315ERGO    R417935   2.588  10.440   6.554  0.0078 -0.0984  0.2134
 1315ERGO    R517936   2.384  10.399   6.621 -0.0349  0.0438  0.1674
 1315ERGO    C117937   2.527  10.554   6.938  0.0005 -0.0549  0.1991
 1315ERGO    C217938   2.622  10.527   7.193 -0.1348  0.0273 -0.0332
 1316ERGO   ROH17939  15.123  17.699   6.234 -0.0049 -0.3285 -0.0065
 1316ERGO    R117940  15.152  17.576   6.487  0.0659 -0.2267  0.0359
 1316ERGO    R217941  15.359  17.637   6.660 -0.0256  0.0280  0.0615
 1316ERGO    R317942  15.157  17.683   6.835 -0.1089 -0.1181  0.0054
 1316ERGO    R417943  15.390  17.634   7.004 -0.1141  0.0807  0.0699
 1316ERGO    R517944  15.197  17.532   7.016 -0.0371 -0.0705  0.0280
 1316ERGO    C117945  15.217  17.676   7.369 -0.2436 -0.0256  0.0221
 1316ERGO    C217946  15.189  17.552   7.718  0.0873 -0.1382  0.1545
 1317ERGO   ROH17947   4.980  16.167   5.740  0.1808 -0.0326  0.0988
 1317ERGO    R117948   4.788  16.098   5.936  0.0453  0.0462 -0.0051
 1317ERGO    R217949   4.857  15.999   6.184 -0.1322 -0.0694 -0.0015
 1317ERGO    R317950   4.703  16.205   6.273 -0.0314  0.0123 -0.0125
 1317ERGO    R417951   4.799  16.074   6.517 -0.3258 -0.2031 -0.0033
 1317ERGO    R517952   4.592  16.117   6.466 -0.2550 -0.0036 -0.1433
 1317ERGO    C117953   4.621  16.310   6.794 -0.3439 -0.2044 -0.0146
 1317ERGO    C217954   4.707  16.496   7.133  0.0773  0.0881  0.1738
 1318ERGO   ROH17955   9.681  12.127   5.889 -0.2882  0.2326 -0.1118
 1318ERGO    R117956   9.493  12.007   6.064  0.0809 -0.1528  0.0383
 1318ERGO    R217957   9.567  11.884   6.301  0.4989  0.1784  0.1007
 1318ERGO    R317958   9.383  12.054   6.407  0.0934 -0.2114  0.0477
 1318ERGO    R417959   9.440  11.863   6.621  0.6617  0.0817  0.1590
 1318ERGO    R517960   9.244  11.914   6.542  0.4942 -0.4754  0.1951
 1318ERGO    C117961   9.193  12.009   6.908  0.3757 -0.3405  0.1431
 1318ERGO    C217962   8.880  12.087   7.140 -0.1597 -0.2481  0.0141
 1319ERGO   ROH17963   9.404  16.389   5.965 -0.0268  0.0417  0.0196
 1319ERGO    R117964   9.513  16.420   6.225  0.0382 -0.1987  0.0224
 1319ERGO    R217965   9.385  16.562   6.424  0.2519 -0.0857  0.0749
 1319ERGO    R317966   9.417  16.331   6.564 -0.0592 -0.1797  0.0016
 1319ERGO    R417967   9.445  16.542   6.764  0.1613 -0.2708  0.0825
 1319ERGO    R517968   9.586  16.381   6.725 -0.0226 -0.4371  0.0543
 1319ERGO    C117969   9.511  16.314   7.093 -0.1835 -0.4668  0.0181
 1319ERGO    C217970   9.396  16.272   7.448  0.0027  0.1085 -0.0981
 1320ERGO   ROH17971   3.935   3.085   5.924 -0.1390  0.1995  0.1204
 1320ERGO    R117972   3.955   3.067   6.206 -0.1481  0.0983  0.1156
 1320ERGO    R217973   3.828   2.870   6.352 -0.0289 -0.0479  0.0279
 1320ERGO    R317974   4.079   2.824   6.447 -0.0044  0.0803  0.0251
 1320ERGO    R417975   3.901   2.687   6.636  0.0635  0.0099  0.0408
 1320ERGO    R517976   4.055   2.834   6.685 -0.0049  0.0883  0.0249
 1320ERGO    C117977   4.179   2.538   6.891  0.1403  0.1640  0.0456
 1320ERGO    C217978   4.237   2.543   7.252 -0.2215 -0.1497 -0.1622
 1321ERGO   ROH17979   2.993  14.820   5.833  0.1049  0.2105  0.1008
 1321ERGO    R117980   2.784  14.787   6.021  0.0227  0.2450  0.0162
 1321ERGO    R217981   2.791  14.595   6.219 -0.0978  0.2324  0.0078
 1321ERGO    R317982   2.749  14.807   6.383 -0.1172  0.2318  0.0040
 1321ERGO    R417983   2.618  14.582   6.518  0.1033  0.1716  0.1239
 1321ERGO    R517984   2.528  14.774   6.467 -0.0443  0.1117  0.1537
 1321ERGO    C117985   2.478  14.774   6.846  0.2022  0.1355  0.1879
 1321ERGO    C217986   2.399  14.793   7.092 -0.2979  0.2220  0.1779
 1322ERGO   ROH17987   8.524  16.829   5.848  0.2853  0.1694 -0.0139
 1322ERGO    R117988   8.461  16.947   6.097  0.1365  0.1121 -0.0231
 1322ERGO    R217989   8.277  16.836   6.272  0.0965  0.0233 -0.1165
 1322ERGO    R317990   8.484  16.853   6.448  0.0170  0.0684 -0.0270
 1322ERGO    R417991   8.253  16.785   6.613 -0.0274 -0.0246 -0.1325
 1322ERGO    R517992   8.389  16.952   6.643 -0.0943  0.0136 -0.0549
 1322ERGO    C117993   8.432  16.771   6.976 -0.1740 -0.0102 -0.0577
 1322ERGO    C217994   8.300  16.615   7.243 -0.1399  0.1751  0.0008
 1323ERGO   ROH17995   5.655  17.220   5.549  0.0049  0.0211  0.0937
 1323ERGO    R117996   5.769  17.123   5.789  0.1140  0.0824  0.0670
 1323ERGO    R217997   6.037  17.147   5.847  0.1120  0.2238  0.0010
 1323ERGO    R317998   5.945  17.264   6.075  0.1097  0.1750  0.0263
 1323ERGO    R417999   6.152  17.076   6.166 -0.0201  0.0028  0.0019
 1323ERGO    R518000   5.946  17.087   6.236 -0.0422  0.0916 -0.0556
 1323ERGO    C118001   6.132  17.145   6.565 -0.0991 -0.1718  0.0262
 1323ERGO    C218002   6.074  17.142   6.959  0.2092 -0.0596  0.2748
 1324ERGO   ROH18003  15.636   0.180   6.141  0.4212  0.0162  0.1264
 1324ERGO    R118004  15.559   0.150   6.412  0.4109 -0.0101  0.1216
 1324ERGO    R218005  15.723   0.220   6.623  0.3098  0.2064  0.1376
 1324ERGO    R318006  15.508   0.368   6.698  0.1406  0.0001  0.0678
 1324ERGO    R418007  15.710   0.419   6.904 -0.0331  0.0854  0.2116
 1324ERGO    R518008  15.506   0.352   6.937  0.0034 -0.0950  0.0580
 1324ERGO    C118009  15.502   0.675   7.140 -0.3918 -0.1787  0.1892
 1324ERGO    C218010  15.368   1.005   7.220  0.1085  0.3362 -0.0940
 1325ERGO   ROH18011  12.431   0.629   6.268 -0.3278  0.0810  0.0057
 1325ERGO    R118012  12.440   0.537   6.536 -0.0651  0.0529 -0.0074
 1325ERGO    R218013  12.659   0.577   6.701  0.0044  0.2646 -0.1302
 1325ERGO    R318014  12.472   0.687   6.866 -0.0194  0.0514 -0.0147
 1325ERGO    R418015  12.700   0.632   7.040  0.0397  0.0963 -0.1079
 1325ERGO    R518016  12.495   0.567   7.071  0.0984 -0.0454 -0.0931
 1325ERGO    C118017  12.550   0.767   7.391  0.0381 -0.2018  0.0134
 1325ERGO    C218018  12.506   0.767   7.793  0.1333 -0.3996 -0.1873
 1326ERGO   ROH18019   4.551   7.759   5.617  0.1517 -0.0477 -0.0606
 1326ERGO    R118020   4.616   8.002   5.745 -0.1169  0.1416 -0.2724
 1326ERGO    R218021   4.434   8.208   5.776 -0.5341 -0.2617  0.0593
 1326ERGO    R318022   4.502   8.185   6.038  0.0956 -0.0453 -0.0672
 1326ERGO    R418023   4.403   8.459   6.011 -0.7521 -0.3028  0.0770
 1326ERGO    R518024   4.595   8.399   6.095 -0.3760  0.2432 -0.3095
 1326ERGO    C118025   4.448   8.584   6.395 -0.2880 -0.1236 -0.0315
 1326ERGO    C218026   4.281   8.722   6.727 -0.1010 -0.1164 -0.1094
 1327ERGO   ROH18027  16.124  16.951   6.100  0.0889  0.0680  0.1647
 1327ERGO    R118028  16.272  17.032   6.328 -0.0269  0.3327  0.1511
 1327ERGO    R218029  16.230  17.274   6.454 -0.5569  0.2090  0.2498
 1327ERGO    R318030  16.198  17.117   6.674 -0.1383  0.0430  0.2011
 1327ERGO    R418031  16.274  17.379   6.781 -0.3903  0.0845  0.2682
 1327ERGO    R518032  16.370  17.189   6.824 -0.0915  0.1887  0.0765
 1327ERGO    C118033  16.268  17.293   7.177  0.0995 -0.1439  0.2332
 1327ERGO    C218034  16.141  17.223   7.484  0.0163 -0.0924 -0.1673
 1328ERGO   ROH18035  11.186  19.261   8.014 -0.0996 -0.3450  0.1290
 1328ERGO    R118036  11.266  19.102   8.234 -0.0944 -0.2611  0.1882
 1328ERGO    R218037  11.512  19.130   8.357 -0.0513 -0.2848  0.1042
 1328ERGO    R318038  11.361  19.158   8.581  0.0226 -0.1183  0.1344
 1328ERGO    R418039  11.625  19.078   8.679  0.0207 -0.1880  0.0948
 1328ERGO    R518040  11.435  18.982   8.725 -0.0101 -0.0872  0.1924
 1328ERGO    C118041  11.549  19.075   9.077  0.1320  0.0247  0.1178
 1328ERGO    C218042  11.678  18.971   9.453 -0.0714 -0.3361 -0.1283
 1329ERGO   ROH18043  10.167   4.839   5.646 -0.3252 -0.0628 -0.0705
 1329ERGO    R118044  10.169   4.776   5.921 -0.3807 -0.1748 -0.0940
 1329ERGO    R218045  10.207   4.966   6.117  0.0334 -0.3119 -0.0220
 1329ERGO    R318046   9.974   4.867   6.215 -0.1450  0.0932 -0.0192
 1329ERGO    R418047  10.133   4.934   6.453  0.1311 -0.5419 -0.0210
 1329ERGO    R518048  10.040   4.742   6.409 -0.3256 -0.2862 -0.2001
 1329ERGO    C118049   9.871   4.823   6.741  0.0207 -0.2955 -0.0177
 1329ERGO    C218050   9.864   4.797   7.212 -0.0123  0.1420  0.0054
 1330ERGO   ROH18051  14.593   2.457   6.072 -0.0717 -0.0076  0.0431
 1330ERGO    R118052  14.656   2.616   6.298 -0.0995  0.0843 -0.0140
 1330ERGO    R218053  14.464   2.752   6.442 -0.1388 -0.0035  0.0129
 1330ERGO    R318054  14.572   2.618   6.652  0.0121  0.1144  0.0132
 1330ERGO    R418055  14.392   2.816   6.774 -0.1621 -0.0381  0.0150
 1330ERGO    R518056  14.604   2.786   6.820 -0.1256  0.1628 -0.0059
 1330ERGO    C118057  14.452   2.727   7.165 -0.0341  0.0525  0.0167
 1330ERGO    C218058  14.220   2.856   7.438 -0.4071  0.0001 -0.0306
 1331ERGO   ROH18059   5.992   9.392   5.830  0.0303  0.0066  0.0505
 1331ERGO    R118060   6.094   9.305   6.079  0.0770 -0.2567 -0.0583
 1331ERGO    R218061   5.999   9.400   6.320  0.5116 -0.0711  0.0437
 1331ERGO    R318062   5.964   9.136   6.374 -0.0264 -0.0132  0.0397
 1331ERGO    R418063   5.948   9.269   6.636  0.4148  0.0162  0.0663
 1331ERGO    R518064   6.078   9.103   6.582  0.0344 -0.2727 -0.0283
 1331ERGO    C118065   5.885   8.944   6.870 -0.1465  0.1214  0.0757
 1331ERGO    C218066   5.668   8.711   7.000 -0.3034 -0.1440 -0.2619
 1332ERGO   ROH18067   2.502   8.366   5.932  0.0910 -0.0941  0.2100
 1332ERGO    R118068   2.542   8.588   6.103  0.0854 -0.0168  0.1129
 1332ERGO    R218069   2.524   8.569   6.379 -0.0268  0.1282  0.1208
 1332ERGO    R318070   2.773   8.679   6.370  0.0074  0.0520  0.1559
 1332ERGO    R418071   2.691   8.705   6.649 -0.0277  0.1062  0.1319
 1332ERGO    R518072   2.762   8.865   6.519  0.0427  0.0683  0.1324
 1332ERGO    C118073   3.021   8.887   6.799  0.0039  0.0220  0.1714
 1332ERGO    C218074   3.363   8.871   7.037 -0.0216 -0.0243  0.0798
 1333ERGO   ROH18075   3.377   4.086   5.890 -0.1512  0.0925 -0.0008
 1333ERGO    R118076   3.454   4.075   6.162  0.1553 -0.0619 -0.0905
 1333ERGO    R218077   3.278   4.009   6.364  0.2775  0.2264  0.1082
 1333ERGO    R318078   3.466   3.822   6.423  0.0325 -0.1077 -0.1260
 1333ERGO    R418079   3.320   3.864   6.675  0.3940  0.1567  0.0612
 1333ERGO    R518080   3.536   3.877   6.646  0.3982 -0.2190 -0.2018
 1333ERGO    C118081   3.522   3.604   6.912  0.2319 -0.1976 -0.1860
 1333ERGO    C218082   3.612   3.379   7.131 -0.1154  0.1494 -0.1824
 1334ERGO   ROH18083   6.861  15.280   5.984 -0.0839 -0.1683  0.1689
 1334ERGO    R118084   6.865  15.308   6.265  0.0432 -0.3679  0.1896
 1334ERGO    R218085   6.680  15.462   6.402  0.4185 -0.0249  0.3313
 1334ERGO    R318086   6.641  15.232   6.542 -0.0845 -0.0418  0.1800
 1334ERGO    R418087   6.530  15.443   6.713  0.2216  0.0746  0.2436
 1334ERGO    R518088   6.679  15.294   6.770 -0.0810 -0.2433  0.2366
 1334ERGO    C118089   6.406  15.217   7.025 -0.3654  0.1167  0.0504
 1334ERGO    C218090   6.347  15.242   7.348  0.0072  0.0510 -0.1501
 1335ERGO   ROH18091  18.586  11.731   5.394 -0.1403  0.1057 -0.0723
 1335ERGO    R118092  18.481  11.769   5.654 -0.1651 -0.0689 -0.0559
 1335ERGO    R218093  18.386  11.560   5.808  0.1652 -0.2248 -0.0583
 1335ERGO    R318094  18.562  11.658   5.991  0.0462  0.0263 -0.0726
 1335ERGO    R418095  18.385  11.480   6.144  0.2778 -0.2014 -0.0518
 1335ERGO    R518096  18.430  11.689   6.189  0.0046 -0.1307 -0.0714
 1335ERGO    C118097  18.549  11.525   6.512  0.2318  0.0478 -0.0614
 1335ERGO    C218098  18.572  11.616   6.794  0.4390  0.3391 -0.1964
 1336ERGO   ROH18099   1.997   7.919   7.563 -0.1147  0.0342 -0.1565
 1336ERGO    R118100   2.073   7.860   7.829 -0.0531  0.0607 -0.1698
 1336ERGO    R218101   1.892   7.785   8.023  0.0028  0.0361 -0.1381
 1336ERGO    R318102   2.059   7.572   8.050  0.0481  0.0681 -0.1490
 1336ERGO    R418103   1.879   7.556   8.282  0.1463  0.1250 -0.0500
 1336ERGO    R518104   2.097   7.557   8.286  0.1581  0.1583 -0.1536
 1336ERGO    C118105   2.029   7.224   8.459  0.2723  0.2068 -0.0090
 1336ERGO    C218106   2.199   7.110   8.791 -0.2044 -0.1709  0.1114
 1337ERGO   ROH18107   3.566  14.277   5.818 -0.1364 -0.1252  0.0076
 1337ERGO    R118108   3.718  14.125   6.002 -0.1204 -0.0244  0.0775
 1337ERGO    R218109   3.670  14.128   6.274 -0.2999 -0.1165  0.0425
 1337ERGO    R318110   3.655  13.858   6.241 -0.0378 -0.1279 -0.0120
 1337ERGO    R418111   3.675  13.896   6.531 -0.1223 -0.1508  0.0097
 1337ERGO    R518112   3.802  13.770   6.407  0.0254 -0.0124  0.0024
 1337ERGO    C118113   3.664  13.509   6.649  0.2271 -0.1814 -0.0606
 1337ERGO    C218114   3.514  13.367   6.916 -0.0364 -0.0889 -0.0532
 1338ERGO   ROH18115  12.083  13.270   5.457  0.4543  0.1895  0.0304
 1338ERGO    R118116  11.943  13.182   5.686  0.2959  0.0887 -0.1033
 1338ERGO    R218117  12.068  13.060   5.900  0.1562  0.0379 -0.0494
 1338ERGO    R318118  11.945  13.256   6.043  0.0163 -0.0305 -0.0740
 1338ERGO    R418119  12.096  13.102   6.242 -0.0898 -0.0585 -0.0154
 1338ERGO    R518120  11.883  13.149   6.248 -0.1049 -0.1050 -0.1481
 1338ERGO    C118121  11.997  13.310   6.575 -0.3644 -0.1789 -0.0187
 1338ERGO    C218122  12.181  13.239   6.759  0.0826 -0.2744  0.0349
 1339ERGO   ROH18123   3.807   7.043   5.765 -0.2216  0.2060 -0.0448
 1339ERGO    R118124   3.830   7.207   5.995 -0.1541  0.1370 -0.0021
 1339ERGO    R218125   3.880   7.103   6.246 -0.0647  0.0637 -0.0477
 1339ERGO    R318126   4.087   7.279   6.242 -0.0766  0.0742 -0.0650
 1339ERGO    R418127   4.080   7.180   6.518 -0.0975  0.1401 -0.0449
 1339ERGO    R518128   4.077   7.388   6.455 -0.1040  0.1225 -0.0926
 1339ERGO    C118129   4.391   7.389   6.672 -0.1278  0.1944 -0.0593
 1339ERGO    C218130   4.492   7.278   7.035 -0.1208 -0.0916 -0.2950
 1340ERGO   ROH18131   8.713  10.701   5.763 -0.1609 -0.3691 -0.2300
 1340ERGO    R118132   8.606  10.541   5.971 -0.1208 -0.2336 -0.1035
 1340ERGO    R218133   8.697  10.556   6.232 -0.0708 -0.0622 -0.1316
 1340ERGO    R318134   8.434  10.599   6.286 -0.0602 -0.0285 -0.1051
 1340ERGO    R418135   8.551  10.525   6.544 -0.0123  0.0704 -0.0904
 1340ERGO    R518136   8.378  10.433   6.449 -0.0357  0.0368 -0.0252
 1340ERGO    C118137   8.219  10.547   6.776  0.0316  0.1794 -0.0415
 1340ERGO    C218138   8.004  10.744   6.940 -0.1145  0.1196 -0.0706
 1341ERGO   ROH18139  12.739   7.710   5.665  0.3277  0.0381  0.1783
 1341ERGO    R118140  12.684   7.801   5.927  0.1843 -0.0072  0.1636
 1341ERGO    R218141  12.469   7.963   5.986  0.2023  0.0468  0.0573
 1341ERGO    R318142  12.412   7.768   6.167  0.0144  0.0262 -0.0196
 1341ERGO    R418143  12.337   8.018   6.301  0.0473  0.0383 -0.0040
 1341ERGO    R518144  12.471   7.864   6.378 -0.0592 -0.0430  0.0381
 1341ERGO    C118145  12.208   7.867   6.654 -0.2194  0.0141 -0.1120
 1341ERGO    C218146  12.177   7.955   7.001 -0.2391 -0.0429  0.0509
 1342ERGO   ROH18147   5.398  18.980   5.316  0.2855  0.2888  0.0294
 1342ERGO    R118148   5.469  19.042   5.583  0.2457  0.3896  0.0185
 1342ERGO    R218149   5.424  19.290   5.695 -0.1657  0.3100  0.0551
 1342ERGO    R318150   5.295  19.144   5.885  0.1323  0.0565  0.0683
 1342ERGO    R418151   5.265  19.423   5.972 -0.4416  0.0019  0.0493
 1342ERGO    R518152   5.344  19.258   6.090 -0.0999  0.1716  0.0580
 1342ERGO    C118153   5.052  19.363   6.311 -0.3224 -0.4155  0.0582
 1342ERGO    C218154   4.957  19.542   6.511 -0.0798 -0.0231 -0.1490
 1343ERGO   ROH18155  11.162  17.500   6.483  0.0329 -0.0091 -0.0443
 1343ERGO    R118156  11.070  17.611   6.727  0.1025  0.0076 -0.0249
 1343ERGO    R218157  11.047  17.462   6.959  0.0101 -0.0197 -0.0481
 1343ERGO    R318158  11.203  17.660   7.062  0.1358 -0.1337 -0.0177
 1343ERGO    R418159  11.023  17.587   7.281 -0.0286  0.0731 -0.0867
 1343ERGO    R518160  11.055  17.787   7.201  0.1837  0.0269 -0.1142
 1343ERGO    C118161  11.156  17.845   7.564  0.0669  0.0199 -0.0807
 1343ERGO    C218162  11.025  17.793   7.864  0.2105 -0.2963  0.4347
 1344ERGO   ROH18163   4.161   6.180   5.931 -0.1919  0.0048 -0.2391
 1344ERGO    R118164   3.942   6.063   6.068 -0.0774 -0.0751 -0.1184
 1344ERGO    R218165   3.680   6.141   6.024 -0.1232 -0.0332  0.1636
 1344ERGO    R318166   3.643   5.876   5.977 -0.1641 -0.0012  0.0191
 1344ERGO    R418167   3.381   5.973   6.062 -0.0993 -0.0540  0.2486
 1344ERGO    R518168   3.491   5.806   6.147 -0.0531 -0.1083  0.0680
 1344ERGO    C118169   3.172   5.625   6.040 -0.1239 -0.0360  0.1623
 1344ERGO    C218170   2.826   5.531   6.160 -0.0655  0.2376 -0.1700
 1345ERGO   ROH18171  17.712   5.788   5.871  0.1401  0.1699 -0.0724
 1345ERGO    R118172  17.607   5.955   6.075 -0.0991 -0.1097  0.0396
 1345ERGO    R218173  17.567   5.867   6.333  0.3091 -0.2594  0.0523
 1345ERGO    R318174  17.719   6.084   6.396 -0.1456  0.1000 -0.0239
 1345ERGO    R418175  17.593   6.003   6.650  0.2953 -0.3337  0.0857
 1345ERGO    R518176  17.588   6.202   6.559 -0.2872 -0.2873  0.1633
 1345ERGO    C118177  17.752   6.284   6.894 -0.1393 -0.0396  0.0337
 1345ERGO    C218178  17.923   6.250   7.118 -0.0836 -0.2633  0.1360
 1346ERGO   ROH18179  12.997  10.311   5.710  0.1067  0.1539  0.0264
 1346ERGO    R118180  12.903  10.216   5.960 -0.0180  0.1003 -0.0402
 1346ERGO    R218181  13.070  10.176   6.176 -0.1017 -0.0855 -0.0084
 1346ERGO    R318182  12.892  10.339   6.302 -0.0463 -0.0388  0.0096
 1346ERGO    R418183  13.025  10.193   6.519 -0.0788 -0.0930 -0.0051
 1346ERGO    R518184  12.810  10.208   6.485 -0.0768 -0.0257  0.0060
 1346ERGO    C118185  12.833  10.356   6.836 -0.0135 -0.0533  0.0137
 1346ERGO    C218186  12.766  10.364   7.160 -0.0486 -0.1743 -0.2217
 1347ERGO   ROH18187   4.606   6.200   5.910  0.1640  0.3984  0.0829
 1347ERGO    R118188   4.575   6.334   6.157 -0.0337  0.1474  0.1966
 1347ERGO    R218189   4.393   6.251   6.349 -0.0075 -0.1999  0.0720
 1347ERGO    R318190   4.612   6.250   6.510 -0.0522 -0.1311  0.1365
 1347ERGO    R418191   4.393   6.338   6.683 -0.0443  0.3060 -0.0503
 1347ERGO    R518192   4.583   6.441   6.652  0.0501  0.1148 -0.1553
 1347ERGO    C118193   4.599   6.388   7.029 -0.1077  0.6652 -0.0610
 1347ERGO    C218194   4.563   6.397   7.428  0.0268  0.1485  0.1649
 1348W        W18195  11.196  11.147  11.965  0.1758 -0.0206 -0.1020
 1349W        W18196   9.137  12.942   2.992 -0.0738 -0.0994  0.3346
 1350W        W18197  13.883  16.091  12.846 -0.1840  0.1015 -0.0540
 1351W        W18198  16.032  16.459  13.344 -0.0314  0.1846  0.0659
 1352W        W18199   4.281   2.802  12.566 -0.1591  0.1175  0.0204
 1353W        W18200   1.413   3.045   5.371  0.2337 -0.0218  0.0836
 1354W        W18201  10.783   4.897   1.116 -0.2264  0.1191 -0.1749
 1355W        W18202  12.630   7.975  14.373  0.1070  0.0111  0.0409
 1356W        W18203  13.950   8.285  12.463 -0.1181 -0.0616  0.1551
 1357W        W18204  10.118  14.155   3.884 -0.0173 -0.3646  0.2872
 1358W        W18205   5.084  14.608  10.235 -0.1379  0.1875  0.0555
 1359W        W18206   1.144  14.347   4.705 -0.0324 -0.1953 -0.1325
 1360W        W18207   1.894  16.843   1.398 -0.0708  0.1003  0.0960
 1361W        W18208   9.004   7.253   1.394 -0.1332  0.1469 -0.0229
 1362W        W18209   2.205  12.275   1.351  0.2270  0.1446 -0.3690
 1363W        W18210  12.557  19.218  11.269  0.0378  0.1205 -0.1381
 1364W        W18211   4.536  12.025  10.691  0.1296  0.1247 -0.2739
 1365W        W18212   7.021   0.324  11.943  0.2387  0.0424  0.0309
 1366W        W18213   6.579   0.803   9.269  0.1363 -0.0503  0.2515
 1367W        W18214   0.951   6.755   0.150 -0.0599 -0.1152  0.0201
 1368W        W18215   7.659   3.893  10.738  0.1404 -0.0663 -0.4810
 1369W        W18216  17.271  15.119  14.916 -0.0465 -0.1431 -0.1449
 1370W        W18217   3.013  18.456   4.524  0.0160  0.2227  0.0944
 1371W        W18218  13.060   5.515  11.288  0.0175 -0.0573  0.1692
 1372W        W18219   0.274   5.190  13.765  0.0297 -0.0012 -0.1335
 1373W        W18220  11.026   3.187  11.535  0.0874 -0.1374 -0.4812
 1374W        W18221   4.182   2.523  11.666  0.0840 -0.3097 -0.1236
 1375W        W18222  12.361   7.339   1.762  0.1676 -0.0638  0.1832
 1376W        W18223  15.323   9.346   3.746  0.1169 -0.0088 -0.0790
 1377W        W18224   7.224  16.372   1.069 -0.0171  0.2165 -0.0555
 1378W        W18225  17.153  14.347   4.120 -0.2457 -0.3629 -0.1960
 1379W        W18226  10.953   7.923  14.670 -0.3582 -0.1244  0.7600
 1380W        W18227  15.894   9.203   0.770  0.2181 -0.1951  0.1447
 1381W        W18228  18.086  11.570   5.342 -0.6356 -0.2132 -0.0367
 1382W        W18229   2.721   8.083  11.957 -0.0382  0.0658 -0.1085
 1383W        W18230  12.822  10.475  10.858  0.1816 -0.4341  0.2294
 1384W        W18231   7.670   7.929   1.563 -0.2220 -0.0947 -0.3226
 1385W        W18232  12.695  17.253   2.086 -0.1040  0.0691 -0.0606
 1386W        W18233   3.427  13.107   2.008  0.1135 -0.0582 -0.1656
 1387W        W18234  16.828  16.759  13.622  0.1694 -0.0469 -0.0411
 1388W        W18235   2.976   3.455   1.758  0.1059  0.3008 -0.1349
 1389W        W18236   7.349  15.091  10.932 -0.0555  0.0952  0.1788
 1390W        W18237   9.920  14.554   4.485 -0.0653  0.2215  0.0273
 1391W        W18238   6.818   9.530   4.506  0.0675  0.0844 -0.4868
 1392W        W18239  16.557  11.747   2.824 -0.4404  0.1502  0.2046
 1393W        W18240   7.348   4.666   4.286  0.1193  0.2399 -0.0192
 1394W        W18241  11.202  14.112  11.342  0.3226 -0.0902 -0.0061
 1395W        W18242  18.873  10.199   2.004 -0.2382 -0.0940 -0.0966
 1396W        W18243  16.970   2.929   0.506  0.3742  0.1722  0.3507
 1397W        W18244  15.835   5.642   4.662  0.1056 -0.0200 -0.0788
 1398W        W18245  18.264   3.435   4.497  0.1816  0.3546  0.0029
 1399W        W18246   7.998  13.477  10.295  0.1841  0.2127  0.0686
 1400W        W18247  16.182  10.235   2.106 -0.1322  0.3153 -0.0645
 1401W        W18248  11.906   3.431  14.217 -0.1628 -0.2164  0.0249
 1402W        W18249  16.350  13.232   2.794  0.0407  0.5171 -0.0301
 1403W        W18250  13.031  16.873  10.496 -0.1256 -0.2494 -0.0743
 1404W        W18251   3.222   3.753  13.032 -0.0420 -0.0238 -0.0039
 1405W        W18252  12.295   8.166  13.341  0.0345 -0.0885 -0.3705
 1406W        W18253  16.164  12.105  11.389  0.0517 -0.1638  0.0562
 1407W        W18254   6.621  12.088   1.166  0.2619 -0.1972  0.4630
 1408W        W18255  10.159   7.956   0.395  0.0653  0.2549 -0.1003
 1409W        W18256   7.157  18.470   0.669 -0.4361  0.3489  0.0363
 1410W        W18257   1.492   7.175   5.829 -0.0666  0.1335 -0.2215
 1411W        W18258  15.867  13.014   3.897 -0.0505  0.1362 -0.0371
 1412W        W18259  13.393  15.670   0.557  0.0657  0.0459  0.1998
 1413W        W18260   3.466   8.571  11.547  0.2020 -0.0031  0.0422
 1414W        W18261   5.619  17.898   2.328  0.1990  0.1691  0.2825
 1415W        W18262  10.552  13.301   3.912  0.1639  0.0484 -0.0021
 1416W        W18263   5.923  14.948  10.978 -0.0609  0.1417  0.1178
 1417W        W18264  11.766   4.443  10.939 -0.1616  0.3265 -0.2920
 1418W        W18265   3.984   4.565   3.147 -0.0335 -0.0920  0.1643
 1419W        W18266  17.265  11.841  12.767  0.1360 -0.2163 -0.0369
 1420W        W18267   9.567   1.668   4.880  0.0592  0.3286  0.2086
 1421W        W18268   9.930  18.421  11.072  0.0392 -0.1372 -0.0360
 1422W        W18269  18.552   4.710   5.000  0.3790  0.2704  0.1814
 1423W        W18270   7.380   7.158  12.087  0.0890 -0.5481  0.3053
 1424W        W18271  17.773   0.321   4.891  0.1542 -0.2542  0.1363
 1425W        W18272   0.827  15.773   0.006 -0.2557 -0.0388 -0.2966
 1426W        W18273   4.161  17.459   4.029  0.2938  0.0476 -0.3768
 1427W        W18274  19.114  10.015  11.043 -0.2484  0.2074 -0.2398
 1428W        W18275  15.241  19.190   1.123  0.0301  0.0946  0.2132
 1429W        W18276  13.253   4.191  11.565 -0.1680  0.2631  0.2636
 1430W        W18277  18.836  13.879  12.178 -0.0634 -0.1470  0.2378
 1431W        W18278   1.957  10.993   2.882 -0.2116  0.0156 -0.1591
 1432W        W18279  14.798  15.229   3.012  0.1367 -0.0484 -0.3287
 1433W        W18280  12.973   7.661   3.783  0.0964  0.0582 -0.1047
 1434W        W18281   9.739   2.913  10.969 -0.0465  0.1022  0.3136
 1435W        W18282  10.233  15.636   3.477 -0.4145 -0.0609  0.2584
 1436W        W18283   9.392   3.305   1.504  0.2339  0.4673 -0.5133
 1437W        W18284   4.851  14.209   1.205  0.0510 -0.2793 -0.0007
 1438W        W18285   6.482   0.987   4.312 -0.3810 -0.0098 -0.1601
 1439W        W18286   5.268  13.394  10.953 -0.1446 -0.3101 -0.0156
 1440W        W18287   4.884  18.960   1.352  0.2627  0.2745 -0.1310
 1441W        W18288  19.108   5.902   4.146 -0.1998 -0.0302 -0.0567
 1442W        W18289  12.964  12.695  11.341 -0.0508 -0.0506 -0.0702
 1443W        W18290  14.920  13.389  14.913  0.0831 -0.1009  0.0315
 1444W        W18291   7.336   4.376  14.253 -0.3235  0.2630 -0.0147
 1445W        W18292  13.737   5.106   4.960  0.0393  0.2196 -0.2365
 1446W        W18293   2.499  14.087  10.916 -0.0771  0.0540  0.1517
 1447W        W18294  14.640  16.517  13.157  0.0359 -0.0373  0.0153
 1448W        W18295   9.988   9.253  13.286  0.3393  0.1074  0.0906
 1449W        W18296  16.408  10.643  14.652 -0.0570  0.2466  0.3145
 1450W        W18297  16.128  15.498   4.214 -0.0237  0.1319 -0.1692
 1451W        W18298   4.897  17.372  14.609  0.1455 -0.1681  0.2136
 1452W        W18299   3.339   3.876  13.600  0.0493 -0.1471 -0.2324
 1453W        W18300   6.622  14.828   2.198 -0.1544  0.0565  0.1406
 1454W        W18301  18.391   6.603   2.818 -0.0088  0.0892  0.1151
 1455W        W18302  17.203   2.355  11.980  0.1494  0.2763  0.0947
 1456W        W18303   3.699  16.056   0.117  0.3395 -0.2752 -0.2402
 1457W        W18304  14.509  15.362   1.864 -0.0457 -0.1546 -0.2184
 1458W        W18305  10.057   1.266  10.699 -0.0451 -0.0942  0.1801
 1459W        W18306   1.190   5.855   4.974  0.2489  0.0204  0.3423
 1460W        W18307   5.673  13.824   2.316  0.0254  0.1930  0.0280
 1461W        W18308  17.145  16.814   2.182 -0.1737  0.3828 -0.0315
 1462W        W18309  11.648   4.760   4.468  0.1281  0.0982  0.0002
 1463W        W18310   5.015  10.711   0.087 -0.1619 -0.3506  0.1970
 1464W        W18311  14.209  10.121   4.402 -0.1732 -0.0970 -0.0963
 1465W        W18312  13.669   3.841   1.704 -0.0486  0.1028 -0.2105
 1466W        W18313  12.377   1.839   3.079 -0.1472  0.3936  0.4014
 1467W        W18314  18.111   4.754  11.036 -0.2563  0.0483  0.1895
 1468W        W18315  11.846   3.662   2.294  0.0729  0.2396 -0.1100
 1469W        W18316   3.403  10.343  14.657 -0.0048 -0.0255 -0.1753
 1470W        W18317  18.807   2.867  10.765  0.2698 -0.0527  0.1510
 1471W        W18318   4.885   6.127   0.191 -0.0024 -0.2498  0.0147
 1472W        W18319  15.614  12.932   1.879 -0.0225  0.0743 -0.1976
 1473W        W18320  16.536   6.155  13.989 -0.0848  0.1290  0.0066
 1474W        W18321   6.694   3.805  12.227  0.0803 -0.0623  0.0193
 1475W        W18322   6.146   1.426  12.241 -0.1068 -0.4721 -0.0329
 1476W        W18323   2.931   5.584  13.994 -0.0139  0.2036 -0.0161
 1477W        W18324  13.101   5.811  14.508  0.1779  0.0180 -0.0046
 1478W        W18325   1.613  11.460   2.053 -0.0377  0.2583  0.1479
 1479W        W18326  12.005   2.595   1.366 -0.2641  0.2728 -0.1649
 1480W        W18327   3.967  11.714   3.205 -0.1242 -0.0574 -0.2206
 1481W        W18328   6.202   0.573  14.591  0.0933 -0.0114 -0.1058
 1482W        W18329  18.175   5.386   2.358  0.2008  0.1361 -0.1450
 1483W        W18330  14.843   5.836   4.775 -0.1461  0.1548  0.2408
 1484W        W18331   4.621  15.753  14.301 -0.0163  0.0520 -0.3104
 1485W        W18332  13.560   6.734   0.459 -0.0393  0.2700  0.0571
 1486W        W18333   8.213  16.673  12.751 -0.1581 -0.0357 -0.1825
 1487W        W18334   2.397  11.407  13.163 -0.1898  0.3000  0.1586
 1488W        W18335   9.371  16.856   0.602  0.0877  0.0501 -0.0565
 1489W        W18336  15.739   2.407  13.262 -0.1024  0.1186 -0.1017
 1490W        W18337  17.403   3.575   1.974  0.0683 -0.2500 -0.0976
 1491W        W18338  16.722  14.321   0.329 -0.0653 -0.1149 -0.0498
 1492W        W18339  18.371   3.199  10.748  0.2000 -0.0883  0.0511
 1493W        W18340   1.017  12.961  11.014 -0.0840  0.5394 -0.1100
 1494W        W18341   4.525   3.951   2.432 -0.1677 -0.1724  0.1754
 1495W        W18342  13.701   3.700   3.160  0.4290 -0.0664 -0.1136
 1496W        W18343   0.282  10.436   0.661  0.5343  0.1577  0.3801
 1497W        W18344  18.365   2.178   3.979  0.1321  0.1904 -0.1098
 1498W        W18345  18.090  13.852  10.891 -0.2996 -0.1982 -0.1603
 1499W        W18346   3.181   7.490   3.528 -0.1971 -0.0387  0.1398
 1500W        W18347   8.949   4.566  11.531 -0.0332  0.0680  0.3346
 1501W        W18348   7.465   0.901   3.640 -0.2410  0.0006  0.0416
 1502W        W18349  19.265  17.602   1.590  0.1512  0.0266  0.2014
 1503W        W18350   8.430   2.542  11.560  0.2101 -0.0524 -0.2844
 1504W        W18351  14.902  15.962   1.399  0.1129  0.1110 -0.0328
 1505W        W18352   5.557  10.720  13.693  0.1785  0.1756  0.2556
 1506W        W18353   1.697   8.273   3.920 -0.1626  0.0084 -0.1250
 1507W        W18354  13.870   2.139   3.843 -0.2272 -0.0475  0.2365
 1508W        W18355  16.517  17.481  14.981 -0.2133 -0.0709  0.0759
 1509W        W18356   9.797   9.103   2.402 -0.0348  0.1339  0.0558
 1510W        W18357   8.921   0.948  11.782  0.1026  0.1326 -0.0170
 1511W        W18358  15.753   6.369  12.595  0.3590  0.1128  0.0445
 1512W        W18359   4.315  19.252   0.596 -0.1285 -0.0000 -0.0538
 1513W        W18360  16.791  15.800   6.202 -0.3653  0.0593  0.3246
 1514W        W18361   1.450  11.244   4.535  0.0404 -0.1176 -0.4340
 1515W        W18362   1.565   2.980  13.561  0.0058 -0.1212 -0.0544
 1516W        W18363   6.811  16.324   4.110 -0.0270 -0.2253 -0.0053
 1517W        W18364   8.258  10.239  11.237  0.0200 -0.0325 -0.0013
 1518W        W18365  12.362   2.043   1.936  0.1026  0.0111  0.1242
 1519W        W18366  14.585   8.153   0.050  0.0949  0.2777 -0.3030
 1520W        W18367   7.793   2.241  12.839  0.2083  0.5432 -0.2648
 1521W        W18368  10.028   3.195  11.731 -0.1073 -0.0404 -0.0865
 1522W        W18369   0.009  15.721  11.043 -0.0072  0.0911  0.0451
 1523W        W18370   1.655  10.121   3.401  0.2789  0.1695 -0.3189
 1524W        W18371  13.528   5.358  14.223 -0.0817  0.1419 -0.1669
 1525W        W18372  13.906  14.725   2.145 -0.3212 -0.0664 -0.2879
 1526W        W18373  18.019   5.404  11.458 -0.0088  0.0225 -0.1368
 1527W        W18374   4.110   3.075  11.693  0.0735  0.2401  0.0049
 1528W        W18375   8.767   0.107   2.675  0.1033  0.0123 -0.0454
 1529W        W18376   5.831   8.066  14.850 -0.1658 -0.1494  0.1125
 1530W        W18377  15.500  12.107  13.935  0.0738 -0.1084  0.5235
 1531W        W18378  17.926   4.956  10.022  0.2099 -0.0806  0.2400
 1532W        W18379  13.141   7.034  11.000  0.2354  0.1409  0.0291
 1533W        W18380  15.734  14.844  11.299  0.2251 -0.1154 -0.1393
 1534W        W18381  16.725  16.591   2.321  0.0303 -0.1492 -0.2197
 1535W        W18382  18.021  13.156  14.575 -0.0306 -0.0523 -0.1821
 1536W        W18383   5.683  10.260  11.702 -0.2405  0.2754  0.2238
 1537W        W18384  17.256   6.702  10.609 -0.0703  0.0106 -0.0823
 1538W        W18385   6.849  12.920   3.295 -0.3254  0.1790  0.0052
 1539W        W18386   9.944   1.966  11.066  0.3005  0.1020  0.0605
 1540W        W18387  11.832   9.999  10.710  0.4436  0.1106 -0.0093
 1541W        W18388   1.348   4.804  10.693 -0.1567 -0.0536 -0.1808
 1542W        W18389   1.365  16.790  12.949  0.2049 -0.1917 -0.0228
 1543W        W18390   0.304   8.410  12.491 -0.0643  0.1462  0.1179
 1544W        W18391   8.857  12.041   1.172  0.2727 -0.1129 -0.1463
 1545W        W18392  16.278  11.569   3.756  0.0807 -0.3273  0.0792
 1546W        W18393   4.546  16.178   4.010 -0.0703 -0.1607 -0.0167
 1547W        W18394  18.448  10.893   0.492  0.0352  0.3141 -0.2564
 1548W        W18395  11.473   5.665  14.477 -0.2498  0.2784 -0.1218
 1549W        W18396  13.308   2.210  11.444 -0.3246  0.2656  0.0534
 1550W        W18397  15.506   0.624   5.764  0.1443 -0.0835  0.2931
 1551W        W18398   2.485  19.265  13.105 -0.0140  0.2351  0.1409
 1552W        W18399  10.945  10.756   2.958  0.1396 -0.0482 -0.1728
 1553W        W18400  18.609  12.671  14.441  0.0226 -0.4016  0.1670
 1554W        W18401  13.328  13.429   0.985  0.0074 -0.0030  0.1031
 1555W        W18402  13.719   9.029   2.476  0.1078  0.0036 -0.0014
 1556W        W18403  14.530   5.505   4.487 -0.2310  0.1259  0.0420
 1557W        W18404   7.311   6.787   4.046  0.0428 -0.1763 -0.1165
 1558W        W18405   2.960  15.547  11.867 -0.0069  0.0909 -0.0461
 1559W        W18406  11.222  11.302   3.735 -0.0280  0.0963  0.2584
 1560W        W18407  13.463   2.528  14.574 -0.0129 -0.0814 -0.0698
 1561W        W18408  14.252   4.170   4.286 -0.0749  0.1041 -0.4249
 1562W        W18409   5.244  14.299   2.899 -0.3103 -0.1266 -0.2226
 1563W        W18410   5.417   2.219  13.845 -0.0913  0.2975 -0.0202
 1564W        W18411  18.525   9.011   3.606 -0.3230  0.1170 -0.5360
 1565W        W18412  17.757  16.195   4.880  0.0379 -0.0012  0.1820
 1566W        W18413  18.683  19.198   4.108  0.0908  0.0647 -0.3328
 1567W        W18414   2.145   1.331  12.745  0.2562 -0.1623 -0.1197
 1568W        W18415  14.995   2.077   0.581  0.0934  0.2693  0.0154
 1569W        W18416   6.133   8.790   0.766  0.1104  0.4042 -0.0132
 1570W        W18417  18.972  15.407  13.386  0.0730 -0.0480 -0.3034
 1571W        W18418   7.216   9.169  13.398  0.1599  0.5898  0.1885
 1572W        W18419  10.830   2.051   2.628  0.0159  0.0097 -0.0497
 1573W        W18420  15.793  16.754   4.589  0.0008 -0.1936 -0.1773
 1574W        W18421   0.805   8.526   3.470 -0.1492 -0.1176 -0.0613
 1575W        W18422  14.610  12.017   3.427 -0.0946 -0.1191  0.0455
 1576W        W18423  15.548   4.939  13.554  0.4906 -0.0784  0.0240
 1577W        W18424   0.767   4.997   4.683  0.0190 -0.2817  0.2307
 1578W        W18425   5.155  16.065   4.214  0.1369  0.0245  0.1752
 1579W        W18426   0.341  16.246   4.879 -0.1136 -0.1493 -0.1638
 1580W        W18427   9.370   6.169   3.617 -0.0589  0.1272 -0.0159
 1581W        W18428  15.570   0.525   3.761  0.3004 -0.1065 -0.0864
 1582W        W18429  16.039   5.255   4.342 -0.2296 -0.2137  0.0460
 1583W        W18430   6.778   5.030   1.110  0.0901 -0.1488 -0.2381
 1584W        W18431   3.006   5.609   3.698  0.0021 -0.3240 -0.1095
 1585W        W18432  13.037  10.016  11.142  0.0438 -0.0407 -0.4173
 1586W        W18433  13.585  16.258  12.500  0.3347  0.0199  0.2861
 1587W        W18434   2.725   3.766   3.355 -0.2747 -0.0568  0.0636
 1588W        W18435  18.012   5.152  13.307  0.1558  0.1316  0.0015
 1589W        W18436   1.622   1.537  11.440  0.2909 -0.2483  0.0961
 1590W        W18437  10.285   2.072  13.720  0.1362  0.2910  0.0356
 1591W        W18438  16.315   6.946   0.700 -0.1530 -0.1875 -0.0154
 1592W        W18439   0.788   5.000  14.461 -0.2333 -0.0039  0.0838
 1593W        W18440  17.032   0.748  11.841 -0.0442  0.2108  0.1557
 1594W        W18441   4.438   1.876   2.071  0.2246 -0.0047 -0.0538
 1595W        W18442  16.682  18.609  12.142  0.1657  0.1341  0.1951
 1596W        W18443   0.089  11.733  11.792 -0.0130 -0.3000  0.3039
 1597W        W18444   5.045   8.507   2.573  0.0603 -0.0187  0.1753
 1598W        W18445  14.769   3.692   0.826  0.2229  0.1950  0.1983
 1599W        W18446   5.019  10.133   0.076 -0.0947  0.2590  0.4196
 1600W        W18447   4.475  15.885   2.648  0.2212  0.0533  0.0585
 1601W        W18448   3.939   6.867  13.299 -0.1178  0.2082 -0.1241
 1602W        W18449   2.213  13.350  11.603  0.0179 -0.2065 -0.0870
 1603W        W18450  12.803   8.688   5.024 -0.1682  0.1654 -0.0707
 1604W        W18451   9.990   8.403   0.530  0.2189 -0.0266  0.0663
 1605W        W18452  15.726   3.819  12.709  0.0455 -0.1153  0.0367
 1606W        W18453   6.111  14.766  10.563 -0.2233  0.0205 -0.2593
 1607W        W18454   9.353   6.551  12.935 -0.1784  0.2378  0.1216
 1608W        W18455   1.253  16.453  13.321 -0.0609  0.0286  0.1013
 1609W        W18456  12.649   1.436  10.594  0.5474 -0.1355 -0.0642
 1610W        W18457   8.782  11.199  14.961 -0.2538 -0.1989  0.0759
 1611W        W18458  17.321   5.006  14.122 -0.1224 -0.2342  0.3039
 1612W        W18459  16.046   0.529  14.750  0.0728  0.0960 -0.0365
 1613W        W18460  18.974  15.686  12.052  0.1236 -0.3394  0.0466
 1614W        W18461  16.506  14.716   3.524 -0.0693 -0.1665  0.0774
 1615W        W18462  12.797  14.195   0.979  0.0165  0.3360  0.0914
 1616W        W18463   3.366  12.086  12.270  0.2216 -0.2071 -0.1894
 1617W        W18464   5.406  12.291   2.833 -0.1765  0.2155 -0.0164
 1618W        W18465  19.271  15.433  13.848  0.3584 -0.1491  0.0239
 1619W        W18466   4.121   1.188   0.696 -0.2738 -0.2790  0.0738
 1620W        W18467   8.560   3.519  14.810  0.0394  0.3793 -0.2838
 1621W        W18468  17.042   6.499  13.607  0.0583 -0.1532 -0.1142
 1622W        W18469   8.326  12.981  14.092  0.3336  0.4282 -0.3649
 1623W        W18470  11.990   0.768   1.041  0.1234  0.0851  0.2060
 1624W        W18471  18.788   7.509  14.497 -0.1386 -0.1937 -0.0014
 1625W        W18472  12.870   0.261  11.565 -0.4252  0.3402 -0.0590
 1626W        W18473   6.808   5.167  12.475  0.1892 -0.2431  0.0874
 1627W        W18474  17.011   1.164   0.380 -0.1904  0.2612 -0.0360
 1628W        W18475   6.573  17.691  12.535 -0.1942  0.0709 -0.1438
 1629W        W18476  18.916   7.810  12.245  0.1467  0.2477 -0.0062
 1630W        W18477  15.910   0.677  11.415  0.0481  0.0653 -0.0856
 1631W        W18478  16.074   3.542  13.053  0.0689 -0.2474  0.0140
 1632W        W18479  11.839   2.906  14.045 -0.0768 -0.3401 -0.1358
 1633W        W18480  15.795  18.800  13.536  0.3017  0.4441 -0.1636
 1634W        W18481   2.239   5.176  14.570 -0.2223 -0.0099 -0.2245
 1635W        W18482   4.425  13.152  14.210  0.0128 -0.0529  0.0470
 1636W        W18483  11.261   1.779   0.346 -0.1610 -0.0267  0.0709
 1637W        W18484  11.271   2.075   1.753  0.4358 -0.0358  0.1823
 1638W        W18485  13.827  13.701  11.401 -0.0664 -0.0987  0.0905
 1639W        W18486   0.830   7.078  12.586  0.2299  0.0254 -0.0347
 1640W        W18487  14.999   7.339   4.014 -0.0627  0.0812  0.0083
 1641W        W18488   1.815  13.912  13.650  0.2999  0.5589  0.0860
 1642W        W18489   5.872   9.337   3.061  0.3599 -0.1084 -0.3091
 1643W        W18490  17.456   2.117   3.594  0.2318  0.1145 -0.4176
 1644W        W18491  18.725   2.683   2.822  0.2166  0.1681  0.0618
 1645W        W18492  17.552  18.062   2.552  0.2257  0.0014 -0.1389
 1646W        W18493  14.412   9.369  12.805  0.0143 -0.1148  0.1972
 1647W        W18494  14.181  14.149  13.082  0.0649 -0.2406  0.3320
 1648W        W18495   8.903  10.237   4.402  0.2531  0.1470  0.0674
 1649W        W18496   9.518   5.706  11.743 -0.4176 -0.0151 -0.0335
 1650W        W18497   7.302  13.795  11.910  0.0394 -0.0021 -0.2687
 1651W        W18498   2.477  10.147  14.366  0.1974 -0.1858 -0.0620
 1652W        W18499  12.191  15.443   3.488 -0.2880 -0.1239 -0.1886
 1653W        W18500   7.695   9.180   3.638 -0.0455 -0.0624 -0.1492
 1654W        W18501  15.487   0.484   5.210  0.1237 -0.0150  0.3745
 1655W        W18502  16.837   6.832  11.904  0.0109 -0.2767 -0.0508
 1656W        W18503   8.035   0.991   0.933  0.4340 -0.0324 -0.0175
 1657W        W18504  11.022   5.281  11.748 -0.1202  0.2398 -0.1111
 1658W        W18505  10.041  18.875  11.331 -0.2539 -0.2162  0.0161
 1659W        W18506   3.469   8.954   0.320 -0.0494  0.0056  0.1984
 1660W        W18507   8.272  13.726   2.911 -0.0962  0.1159 -0.2434
 1661W        W18508   1.849   1.704   0.253 -0.2009  0.2257 -0.5805
 1662W        W18509   1.628   9.681   0.163 -0.0572  0.2140  0.0908
 1663W        W18510  17.744   9.807  11.009  0.0530 -0.1426 -0.1060
 1664W        W18511  11.046   6.611  11.972 -0.0781  0.1462  0.1949
 1665W        W18512  18.116  17.473  14.406 -0.2322  0.3352 -0.0077
 1666W        W18513   9.979  15.415   3.908 -0.1018 -0.0993  0.0122
 1667W        W18514   5.530   6.909   4.264 -0.2423 -0.1498 -0.2538
 1668W        W18515   3.299   3.613   2.639  0.1382  0.3173 -0.1786
 1669W        W18516  16.757   0.707  13.679  0.1943 -0.1450  0.2178
 1670W        W18517   7.634  15.109   1.881 -0.2323 -0.1407  0.0184
 1671W        W18518   6.882  10.527   4.388  0.2457 -0.3038  0.3000
 1672W        W18519  15.842  16.222  13.748  0.1690 -0.5173 -0.1527
 1673W        W18520  10.107   5.470  12.678  0.0316  0.3373 -0.0870
 1674W        W18521   8.042  12.689   2.602 -0.1620  0.1005  0.1431
 1675W        W18522  12.004  12.850  13.656 -0.1365 -0.3351  0.1508
 1676W        W18523  12.337  15.049  12.634 -0.3185 -0.2449 -0.1055
 1677W        W18524   4.360   7.297   3.451 -0.3753  0.0174  0.3979
 1678W        W18525  12.458  16.627   4.767  0.4543  0.1058 -0.3541
 1679W        W18526  10.283   7.130  14.308  0.1458 -0.0610  0.0547
 1680W        W18527   4.803  11.071  10.697 -0.3334  0.1034  0.0399
 1681W        W18528  14.826  16.910   5.329  0.2311  0.1301 -0.0751
 1682W        W18529   4.418   3.384  14.810  0.1123 -0.1077 -0.1234
 1683W        W18530  18.146   4.313   4.925  0.3678 -0.0120  0.0991
 1684W        W18531   2.097  15.438   0.705 -0.3272 -0.0158 -0.0047
 1685W        W18532  17.154  16.309   2.233 -0.1582  0.0215  0.0338
 1686W        W18533   3.828  10.686  14.614  0.0549  0.3512 -0.1405
 1687W        W18534   6.449  12.962   1.976 -0.2389 -0.1982 -0.3429
 1688W        W18535  14.488  14.213  12.585  0.0503  0.4563 -0.0022
 1689W        W18536   4.814   4.893   0.357 -0.0285 -0.0927 -0.1110
 1690W        W18537   0.589  12.597  12.755  0.0709  0.0606 -0.0136
 1691W        W18538  14.581   2.579   2.262  0.2612 -0.1764  0.2455
 1692W        W18539  15.360   8.892  13.720 -0.0297  0.0349 -0.2118
 1693W        W18540   1.837   9.088   1.079  0.1424  0.3084 -0.1268
 1694W        W18541  16.030  13.839   1.977 -0.0987 -0.0331  0.0026
 1695W        W18542   2.223   4.726   4.133 -0.2244  0.1695 -0.1521
 1696W        W18543   7.571   9.021  12.778  0.3650  0.1685 -0.1189
 1697W        W18544  16.681  19.075  12.278 -0.3739 -0.3517  0.2627
 1698W        W18545  14.854  16.936  14.716 -0.3957 -0.3491 -0.0763
 1699W        W18546  10.823  14.788  10.195 -0.1383  0.1012 -0.1369
 1700W        W18547   9.353  19.136   9.873  0.0867 -0.1981  0.0662
 1701W        W18548  19.132   8.050   1.667  0.1773 -0.0219 -0.0707
 1702W        W18549  15.267  15.282  13.640  0.2141  0.0395 -0.2210
 1703W        W18550   2.647   7.943   2.367 -0.1489 -0.1074 -0.0707
 1704W        W18551  16.685  11.180  13.150 -0.2071  0.2736  0.0710
 1705W        W18552   3.187   2.860   1.653  0.2193  0.1408  0.0624
 1706W        W18553   1.208   6.315   2.093 -0.3210  0.0116 -0.1890
 1707W        W18554  11.258  18.470   0.955 -0.2131  0.2119 -0.0775
 1708W        W18555   7.177   1.579   1.817 -0.0685  0.1507  0.2645
 1709W        W18556  17.110   5.786   5.150 -0.3021 -0.0284 -0.0125
 1710W        W18557   6.146   0.055  11.478  0.1238 -0.0883  0.0712
 1711W        W18558  15.012  12.104   2.045  0.2379 -0.0333 -0.0280
 1712W        W18559   3.610   1.776   2.604 -0.0095  0.3921  0.1074
 1713W        W18560  12.708  19.066   4.801 -0.0719  0.1071 -0.1445
 1714W        W18561   0.646   0.294  13.334 -0.0353 -0.0208  0.4619
 1715W        W18562   0.842  11.599   2.072  0.0180 -0.0533 -0.3575
 1716W        W18563   4.198  16.200   1.066 -0.2134 -0.2043  0.1578
 1717W        W18564   7.945  16.973  12.369 -0.2010  0.2225  0.0616
 1718W        W18565  16.284  16.271   1.432  0.4680 -0.3371  0.0854
 1719W        W18566  15.004  10.695   1.626  0.0026 -0.2733 -0.2552
 1720W        W18567   4.552  12.310   2.079 -0.0183  0.2166  0.1383
 1721W        W18568  18.560   1.015   1.973  0.0081  0.2072  0.1051
 1722W        W18569  17.825   1.383  11.521  0.0519  0.2401 -0.3846
 1723W        W18570   6.924   4.146  14.242  0.0821 -0.1428  0.2573
 1724W        W18571   1.857  13.852   1.449  0.2643  0.0571  0.0561
 1725W        W18572   0.139   6.697  12.307  0.0280  0.4358 -0.1780
 1726W        W18573  18.838   8.745   3.346  0.0008 -0.0090 -0.0102
 1727W        W18574   9.802  12.540  11.723  0.0477  0.2430  0.0693
 1728W        W18575   5.961  18.995   3.339 -0.0334 -0.0627 -0.0330
 1729W        W18576  17.177   1.961   0.271  0.1833  0.0135 -0.0740
 1730W        W18577   0.261   5.945   3.432 -0.0913  0.2534 -0.1571
 1731W        W18578  17.406  17.083  10.253 -0.2550  0.0883 -0.1239
 1732W        W18579   7.726  10.840  10.215 -0.2237 -0.1477 -0.0468
 1733W        W18580   2.521  13.240  10.610  0.0678  0.1464  0.1169
 1734W        W18581   8.181   3.225   3.450 -0.3294 -0.1554  0.1184
 1735W        W18582   6.147   0.467  10.867 -0.3176  0.0806 -0.0130
 1736W        W18583  11.240   2.304   3.434  0.0685  0.0957  0.0968
 1737W        W18584  17.945   2.195   0.456 -0.0211  0.0340 -0.0015
 1738W        W18585  16.918   5.290   2.720 -0.0333 -0.1396  0.3333
 1739W        W18586   5.468   2.140   0.036  0.3179 -0.1113  0.1805
 1740W        W18587  18.442  14.521   4.438 -0.0707  0.0012  0.0916
 1741W        W18588  12.593  16.009   2.484  0.0503  0.2059  0.2085
 1742W        W18589  16.713   0.851  12.262 -0.2443 -0.0391 -0.3420
 1743W        W18590   3.693   3.642  13.294  0.2165  0.1080  0.3098
 1744W        W18591   2.496  15.305  14.225  0.0887 -0.1970  0.1923
 1745W        W18592   0.382  10.053   2.627  0.0778 -0.3811 -0.1850
 1746W        W18593   9.748   0.852  11.896  0.0504 -0.0353  0.0324
 1747W        W18594   2.946  14.635  14.691  0.1009 -0.0306  0.2919
 1748W        W18595   7.900  18.832  12.796  0.5416 -0.1066 -0.0365
 1749W        W18596  16.067  19.132  11.660  0.1423 -0.3742 -0.1461
 1750W        W18597   8.671   3.948  13.413  0.2029 -0.0220 -0.1786
 1751W        W18598   7.857  11.540   3.090 -0.0523  0.2460  0.3166
 1752W        W18599   6.940  19.203   1.209 -0.2140 -0.3129 -0.1664
 1753W        W18600  19.264  18.040   2.278 -0.1044 -0.0896 -0.3506
 1754W        W18601  13.442   4.369   0.814 -0.0542  0.0540  0.2244
 1755W        W18602   3.175  18.813   2.410  0.2213  0.0208  0.2144
 1756W        W18603   3.273   4.107  11.314  0.2155 -0.0974  0.0199
 1757W        W18604   7.841  16.217  11.154  0.0836 -0.1513  0.3666
 1758W        W18605   8.797  15.298  12.405  0.0996  0.0613 -0.1011
 1759W        W18606  17.815   4.107   0.558 -0.0988  0.0165 -0.2037
 1760W        W18607  17.096   7.189   1.881  0.1992  0.1325  0.0239
 1761W        W18608   2.490  16.079   9.712 -0.1426 -0.0360 -0.1210
 1762W        W18609  12.446  14.615  12.897  0.0894  0.2040 -0.1240
 1763W        W18610  10.527  17.199  11.046  0.0777  0.0908 -0.0200
 1764W        W18611   5.127  15.604   3.998  0.2013 -0.1380 -0.0642
 1765W        W18612   1.653  13.125  10.634 -0.0131  0.2352 -0.0694
 1766W        W18613   6.136  13.464  12.321  0.3152 -0.0158 -0.2428
 1767W        W18614  14.677  15.487  14.380 -0.0566  0.2023 -0.0956
 1768W        W18615  17.223   8.334   5.745  0.1541  0.0072  0.0296
 1769W        W18616  12.096  17.849   3.039  0.0167  0.3407 -0.2388
 1770W        W18617  12.582   4.193  14.959  0.0730 -0.1649  0.0978
 1771W        W18618   2.611   2.825  14.732 -0.1713  0.1014 -0.1566
 1772W        W18619   0.516  15.361   0.643  0.1187 -0.0034  0.1383
 1773W        W18620   8.925   1.830   0.296  0.2859  0.0091 -0.1424
 1774W        W18621   9.836   4.804   0.974 -0.2196 -0.2354  0.0867
 1775W        W18622   4.951  10.701   3.669 -0.0637  0.0225  0.3248
 1776W        W18623   0.971   6.407  10.704  0.1366 -0.1755  0.3830
 1777W        W18624   8.533  15.195   1.881 -0.0796  0.3691  0.3342
 1778W        W18625  14.328   4.949   0.132 -0.3029 -0.1296  0.1072
 1779W        W18626  19.195  10.868  11.099 -0.0189  0.0641  0.0794
 1780W        W18627   3.641   4.197  13.246 -0.0969 -0.1570  0.2245
 1781W        W18628   5.655  13.460   1.279  0.0472 -0.2541  0.0021
 1782W        W18629   8.226   6.189   0.541 -0.0615  0.2583 -0.1095
 1783W        W18630  15.245  11.018   0.740 -0.0373  0.0239 -0.2568
 1784W        W18631  11.407   3.602  14.369 -0.2156 -0.0359  0.1032
 1785W        W18632  13.896  11.451  12.918  0.0253 -0.3119  0.0207
 1786W        W18633  18.551   4.705   0.743 -0.0198 -0.0770  0.0673
 1787W        W18634  14.600  16.396   2.803  0.3320 -0.0377 -0.2757
 1788W        W18635   0.966   7.372  12.118 -0.0152  0.1513  0.0971
 1789W        W18636   1.427   4.176   4.221 -0.0892  0.2644  0.2864
 1790W        W18637   8.393   4.966  10.988 -0.0743 -0.1020  0.0979
 1791W        W18638   6.004  15.776   2.856 -0.0146  0.1262  0.2795
 1792W        W18639   7.049  17.811   2.952  0.0127 -0.0569 -0.0852
 1793W        W18640   3.180  16.462  11.164 -0.2669 -0.1300 -0.0414
 1794W        W18641  10.348   5.483   3.590  0.0346 -0.1165 -0.2614
 1795W        W18642   4.705  16.555   0.236  0.2549 -0.1793  0.0112
 1796W        W18643   7.126   0.913  10.646 -0.0022 -0.1252 -0.0816
 1797W        W18644   2.358  10.996   0.416 -0.3013 -0.0295 -0.3653
 1798W        W18645  13.560   0.058   5.299 -0.0349 -0.1503 -0.3204
 1799W        W18646  17.013   3.964   2.664 -0.1661 -0.1634 -0.1622
 1800W        W18647  10.710  10.202   4.309  0.4288  0.1656 -0.1520
 1801W        W18648  13.110   8.522  13.800 -0.1982 -0.0292 -0.0572
 1802W        W18649  11.033  10.638   2.008  0.0711 -0.0764  0.1276
 1803W        W18650  15.051   1.316  12.304 -0.2903 -0.0293 -0.1915
 1804W        W18651   5.615   0.380  10.641 -0.1278  0.0582 -0.2611
 1805W        W18652  13.007  12.453  10.513  0.2882 -0.0915  0.2190
 1806W        W18653  15.915  11.232   3.014  0.0895 -0.0981  0.3301
 1807W        W18654  11.906   3.099  13.058  0.0054  0.0409  0.0767
 1808W        W18655   6.947   5.476   1.710 -0.1183  0.1031 -0.1308
 1809W        W18656  17.608   5.815  13.778 -0.2805 -0.0866 -0.1665
 1810W        W18657  10.538  16.295   2.373  0.3584 -0.1365 -0.2799
 1811W        W18658   8.085   5.178  12.892 -0.1159 -0.0017  0.0246
 1812W        W18659   5.886  18.163  11.217 -0.5062  0.2619  0.3678
 1813W        W18660   0.178   0.971  14.542 -0.3505  0.6010  0.4963
 1814W        W18661  14.259   7.388   4.465  0.1991  0.1348 -0.1100
 1815W        W18662   1.938   4.350   4.987 -0.0512  0.3780  0.3452
 1816W        W18663  10.814   8.142   2.151  0.2031  0.1264  0.0903
 1817W        W18664  16.993  18.359  14.103 -0.0164  0.0074  0.3068
 1818W        W18665   2.493  18.751  13.930 -0.2585 -0.3571  0.0840
 1819W        W18666   9.073  13.202  13.569  0.1155 -0.1517 -0.3772
 1820W        W18667  14.241   3.999   3.814 -0.0957  0.3470 -0.1309
 1821W        W18668  12.255   2.911   1.027 -0.4663 -0.1248 -0.1616
 1822W        W18669   4.648  17.911   2.424 -0.1302  0.1957 -0.1390
 1823W        W18670  12.330  13.638   3.818  0.1502  0.1012 -0.2983
 1824W        W18671   2.902   9.688   5.036  0.0637 -0.3048 -0.0627
 1825W        W18672  17.619  14.249  12.937  0.4100  0.0730  0.0816
 1826W        W18673   9.024  13.328  12.159 -0.4680  0.1279  0.0036
 1827W        W18674  14.397   5.497   9.892 -0.0673 -0.0325 -0.1484
 1828W        W18675  11.232   9.734   4.578 -0.1394  0.0469  0.0814
 1829W        W18676   4.319  12.796  13.394  0.0079 -0.1073  0.3587
 1830W        W18677  14.475   3.960  12.944 -0.0128  0.0410  0.0283
 1831W        W18678  17.911  11.184   3.674  0.2854 -0.0392  0.0731
 1832W        W18679  15.154   2.330   0.128 -0.1643  0.3746  0.3011
 1833W        W18680   2.566   8.225  11.110 -0.2877 -0.0293 -0.3479
 1834W        W18681   5.052   1.532   9.052  0.1165  0.2109  0.0501
 1835W        W18682  13.556   8.283  10.935 -0.1732  0.0578  0.1482
 1836W        W18683  18.029  14.518   4.116 -0.1080  0.1109 -0.1377
 1837W        W18684   1.562  17.622  12.940 -0.2136  0.0115  0.1481
 1838W        W18685  14.823  10.353  11.727  0.2961  0.1769  0.1557
 1839W        W18686  13.573  14.013   2.373  0.1377  0.2716 -0.2802
 1840W        W18687   0.774   3.620  13.405 -0.0925 -0.0760 -0.1159
 1841W        W18688   6.835  14.910   3.119  0.1204  0.1222  0.0702
 1842W        W18689  13.344   3.764   4.082 -0.0378 -0.2529  0.3761
 1843W        W18690   6.494   9.728  11.690 -0.3667 -0.1227 -0.1328
 1844W        W18691  18.000  14.156   1.121 -0.0501 -0.1305  0.1010
 1845W        W18692   4.569   5.400  14.091 -0.3362  0.3340  0.1208
 1846W        W18693  16.431   9.037   4.352  0.0856  0.1323  0.1619
 1847W        W18694  15.773  15.328   2.998 -0.0522  0.1195 -0.0069
 1848W        W18695  13.270   9.303   4.196 -0.1381  0.3943 -0.2199
 1849W        W18696   9.200  13.065   3.472  0.2401 -0.0356 -0.2226
 1850W        W18697  11.369   0.836   4.702  0.1135  0.3834 -0.0878
 1851W        W18698  17.385   9.958   4.059 -0.1310 -0.0588 -0.1419
 1852W        W18699  14.195   4.807  13.162  0.1789 -0.0070 -0.0211
 1853W        W18700   8.452   0.340   3.498  0.0684  0.1759 -0.0074
 1854W        W18701  10.976   6.538   1.545  0.0184 -0.1204  0.1044
 1855W        W18702   5.764   8.697  10.478 -0.0328 -0.0328 -0.0627
 1856W        W18703   0.740  17.662   2.973 -0.0272 -0.1909  0.0698
 1857W        W18704  12.964   8.044   0.210  0.0252 -0.0130  0.1763
 1858W        W18705  17.059  19.019   2.443  0.2199  0.2237  0.2911
 1859W        W18706   4.208  13.593  14.021 -0.0889 -0.5653 -0.1682
 1860W        W18707  17.790   1.183  10.529  0.2308  0.1499  0.1549
 1861W        W18708  15.575  17.178   3.565  0.1296 -0.0473  0.0661
 1862W        W18709  16.536   2.276  12.795 -0.1419 -0.1975 -0.1358
 1863W        W18710   9.924   6.015  11.836 -0.0430 -0.0319 -0.1219
 1864W        W18711   0.945  12.501  14.937 -0.0092  0.0965 -0.0843
 1865W        W18712   4.949   8.822  13.654 -0.1810 -0.0086  0.2755
 1866W        W18713  11.000  15.359  13.567 -0.1531  0.2131 -0.0831
 1867W        W18714  10.153   7.610   1.361 -0.0303 -0.2457  0.0562
 1868W        W18715   9.698   5.753   1.036  0.1447  0.1287  0.0312
 1869W        W18716   9.403   1.179   3.579  0.0743  0.2941 -0.0414
 1870W        W18717  12.124   9.869  14.543  0.0515 -0.4267 -0.0802
 1871W        W18718   5.755  14.332   4.231  0.0838  0.0020  0.0233
 1872W        W18719   6.860   7.113  12.403 -0.2713 -0.0877  0.2551
 1873W        W18720  13.160  15.949  12.042 -0.2085  0.1052  0.5120
 1874W        W18721   0.793   8.159   2.841 -0.1082  0.0782  0.2134
 1875W        W18722   3.085   6.518   5.920  0.0662  0.1981  0.0158
 1876W        W18723   3.150   8.449  14.197 -0.0675 -0.0637  0.1425
 1877W        W18724  11.213  16.619   4.625  0.3052  0.1439  0.0111
 1878W        W18725   9.576  14.377   0.409 -0.0546 -0.1706 -0.1399
 1879W        W18726  13.702   7.365  10.440  0.2267  0.2471 -0.0191
 1880W        W18727  16.094   7.146  10.794  0.0881  0.0165 -0.1545
 1881W        W18728   6.032  18.845  14.212  0.0867  0.0114  0.2586
 1882W        W18729   0.427  14.665   4.417  0.1014 -0.1248 -0.1233
 1883W        W18730   5.974   9.401  14.513 -0.3137  0.2069 -0.0871
 1884W        W18731   7.808   1.572  12.346  0.1444 -0.1293 -0.2508
 1885W        W18732   5.911  14.840   0.958  0.0181 -0.0036 -0.0328
 1886W        W18733   7.828   1.384   9.290  0.1569 -0.0441  0.2921
 1887W        W18734  18.839   9.056  11.357  0.0386  0.0837  0.0409
 1888W        W18735   3.402  15.767  11.737 -0.0479 -0.2421 -0.1506
 1889W        W18736  16.408  18.300   0.395 -0.0929 -0.0737  0.2078
 1890W        W18737   0.164  12.771   2.633  0.1978 -0.2823 -0.3132
 1891W        W18738  13.618   2.309  12.550  0.0127 -0.1013  0.0120
 1892W        W18739   1.080   0.288  11.854 -0.2587 -0.1403  0.1455
 1893W        W18740   3.370   7.086   4.768  0.0300 -0.1466 -0.1505
 1894W        W18741  18.411   8.248   1.006 -0.0990 -0.2075 -0.1344
 1895W        W18742  16.473   5.757  11.114  0.0849 -0.1656  0.3266
 1896W        W18743  19.143  14.420   0.404 -0.4486  0.1562 -0.1792
 1897W        W18744  16.821  12.241   1.310 -0.1530  0.4025  0.1404
 1898W        W18745   2.059  11.705   2.579  0.3047 -0.1119 -0.0092
 1899W        W18746   4.317   1.537   3.929 -0.0817 -0.1385  0.2921
 1900W        W18747  15.826  17.485  13.199 -0.0849 -0.2000 -0.1353
 1901W        W18748   1.417  13.716   0.221 -0.0446 -0.1460  0.4701
 1902W        W18749  15.132  14.208   0.949  0.2264 -0.1727  0.0355
 1903W        W18750  11.361  18.532   0.410 -0.0783 -0.3507  0.0652
 1904W        W18751   6.277  11.219   1.763 -0.2092 -0.0677 -0.1144
 1905W        W18752   6.600  16.942  11.648 -0.0660 -0.4966 -0.1670
 1906W        W18753   5.747   5.755  13.875 -0.1763  0.1376 -0.0347
 1907W        W18754   7.043   2.073  11.873  0.2858 -0.4259  0.2162
 1908W        W18755   8.275  18.471   3.290  0.0475  0.0149 -0.0207
 1909W        W18756  11.621  17.584  14.244  0.1881  0.0549  0.1302
 1910W        W18757  12.945  13.729  11.439  0.0564 -0.0121  0.1320
 1911W        W18758   6.988   8.245  10.676 -0.1503  0.0476 -0.1173
 1912W        W18759   2.395  12.903   0.684 -0.1780 -0.2079 -0.0679
 1913W        W18760   4.119  18.544  13.948 -0.0745 -0.2339  0.2600
 1914W        W18761  12.433  14.151   3.666 -0.0637 -0.0395 -0.1015
 1915W        W18762  14.767   3.311  14.041  0.0311 -0.0863 -0.1564
 1916W        W18763   3.213  15.199   1.250 -0.0652 -0.1389 -0.0178
 1917W        W18764  16.474   7.965  12.827 -0.0077 -0.0858 -0.2176
 1918W        W18765   4.168   4.175   0.818  0.2336  0.0902  0.3280
 1919W        W18766  11.569   9.585  11.041 -0.0949 -0.1606  0.0716
 1920W        W18767  17.896  18.891  11.269 -0.1451  0.1146  0.0056
 1921W        W18768  15.700  11.448  11.441  0.0209  0.0137 -0.0056
 1922W        W18769  10.791   6.283   3.120  0.0288  0.2071  0.3942
 1923W        W18770  16.270  14.905  14.298 -0.3584  0.0859  0.1927
 1924W        W18771   8.292   3.584   4.065 -0.2413 -0.0256 -0.1395
 1925W        W18772   1.085  18.268   3.727  0.0360 -0.1547 -0.0966
 1926W        W18773   1.905   7.486  13.952  0.2842 -0.1697 -0.0637
 1927W        W18774   9.510   2.086  13.443 -0.1950  0.3219 -0.0869
 1928W        W18775   0.332   6.466   1.256  0.2017 -0.0108  0.0744
 1929W        W18776   8.872  10.167  14.820  0.1468  0.0166  0.2321
 1930W        W18777   4.074  12.337   1.869  0.4071  0.1335 -0.0831
 1931W        W18778  13.406   0.175   4.801  0.3568 -0.0564 -0.1429
 1932W        W18779  13.664  18.977  13.940 -0.0135 -0.2108 -0.1365
 1933W        W18780   3.755   2.621  12.137 -0.3746  0.3410 -0.3262
 1934W        W18781   5.184   9.536  14.600  0.2928 -0.0340  0.1000
 1935W        W18782   9.009   9.361   2.347  0.0444  0.0808 -0.1147
 1936W        W18783   2.510   1.866   3.260 -0.1829 -0.5624  0.1829
 1937W        W18784  14.310   4.729   0.729  0.1328 -0.1530 -0.4452
 1938W        W18785   2.637  11.915  13.146 -0.0846 -0.2135  0.1601
 1939W        W18786  17.270  15.998   3.373 -0.0367  0.2158 -0.0788
 1940W        W18787  18.166  12.469   2.822  0.1756  0.1063 -0.0448
 1941W        W18788  11.145   3.838   0.297 -0.0813 -0.2591 -0.2885
 1942W        W18789  14.602   4.728  12.575  0.2528 -0.4372 -0.0175
 1943W        W18790  13.693  14.547   1.265 -0.0600 -0.0223  0.0090
 1944W        W18791  17.021   6.753   3.131  0.0309  0.0423 -0.0727
 1945W        W18792   1.562   8.580  10.186  0.0973  0.1527 -0.2080
 1946W        W18793  10.444  10.575   9.237 -0.1750 -0.2367 -0.1250
 1947W        W18794  13.113   1.358   2.341  0.0093 -0.0535  0.0733
 1948W        W18795  11.157   4.160   3.950  0.1116  0.2991  0.2593
 1949W        W18796  14.940  17.129   6.318 -0.0680 -0.1118  0.0399
 1950W        W18797   7.922  16.686   3.205 -0.0268 -0.2173 -0.0846
 1951W        W18798   0.559  17.635   3.968  0.0833  0.0339  0.0554
 1952W        W18799   9.492  13.994   5.340 -0.4397  0.0068  0.0479
 1953W        W18800  13.535  15.225   5.205  0.1235 -0.1642 -0.0186
 1954W        W18801  13.331   0.875  14.426  0.1048  0.0949 -0.0473
 1955W        W18802  17.635   6.344   4.860 -0.3135 -0.0053  0.0622
 1956W        W18803  12.344  13.428   1.309  0.0736  0.1083 -0.0096
 1957W        W18804  16.504  14.641   2.044  0.2075 -0.1968  0.1785
 1958W        W18805   3.802  16.073   1.380 -0.2096 -0.1542 -0.3145
 1959W        W18806   3.175  11.561  14.513 -0.3507 -0.1248  0.1250
 1960W        W18807   1.417   9.820  12.794  0.2062 -0.0557  0.0208
 1961W        W18808  14.175   9.671  11.971  0.0967  0.0618  0.0339
 1962W        W18809  11.818  19.233  12.326  0.0493  0.2898  0.2862
 1963W        W18810  11.190   1.351   2.421  0.1412 -0.1035  0.0733
 1964W        W18811  12.954  12.584   2.285 -0.1124  0.0830  0.0298
 1965W        W18812   9.463  18.634  11.994  0.1554 -0.1961  0.2605
 1966W        W18813  17.542   7.080   0.611  0.0351 -0.1187  0.3417
 1967W        W18814  18.287   5.796   3.144 -0.1639  0.3077  0.4219
 1968W        W18815  16.160  11.081   5.653 -0.1819  0.2699 -0.0790
 1969W        W18816  17.982  15.441  14.837 -0.0000  0.1989 -0.2189
 1970W        W18817   8.261   5.835   4.433  0.2997 -0.0446  0.2494
 1971W        W18818   2.674  10.786   3.466  0.1133 -0.3892  0.2998
 1972W        W18819  11.790   4.150  11.413  0.3584 -0.1315 -0.0353
 1973W        W18820   5.420   7.330  11.636 -0.0397  0.0795 -0.2200
 1974W        W18821   3.931   9.035  10.180 -0.2010  0.2111 -0.2154
 1975W        W18822   7.693   3.063  12.656 -0.0093 -0.2526 -0.2716
 1976W        W18823  18.409  11.719   4.157  0.0357  0.1213 -0.2681
 1977W        W18824   2.009  14.471   1.314 -0.0094 -0.0885 -0.2275
 1978W        W18825   1.492   7.703   4.590 -0.0923  0.0015 -0.2263
 1979W        W18826   1.081   6.119  10.257  0.5136 -0.1810  0.1387
 1980W        W18827  11.621   4.069   0.916 -0.0105  0.1603 -0.0701
 1981W        W18828  19.064   2.484   5.248 -0.0002 -0.0454  0.2748
 1982W        W18829   9.872   4.197   0.175  0.0686 -0.0268 -0.0600
 1983W        W18830  10.251   0.226   0.447  0.1214  0.3085  0.2090
 1984W        W18831  11.501   7.045  11.406  0.1213  0.3192 -0.1787
 1985W        W18832  10.510  16.769   2.139 -0.0366 -0.1445  0.1401
 1986W        W18833   4.021   3.396   9.847  0.0472 -0.1265  0.2933
 1987W        W18834  19.281   5.573   2.142  0.0725  0.1301 -0.1002
 1988W        W18835  13.567   6.800  14.365  0.2624 -0.0249  0.2066
 1989W        W18836   8.876   8.574   1.509 -0.0153 -0.1154  0.0190
 1990W        W18837   4.370  11.963   1.626  0.0109  0.3288  0.0696
 1991W        W18838  10.183  16.484  14.781 -0.0377 -0.0563 -0.0982
 1992W        W18839  18.072  12.733  14.359  0.0857  0.1935 -0.1139
 1993W        W18840  13.673  12.273   1.695 -0.1308  0.2584  0.3527
 1994W        W18841   2.044   6.761   2.900 -0.0371  0.0723  0.1191
 1995W        W18842   4.449   2.963  13.332  0.1323  0.2916  0.0862
 1996W        W18843  13.356  19.160   1.015 -0.1736 -0.1097 -0.2308
 1997W        W18844  18.013   1.139   2.253 -0.1421 -0.4367 -0.0411
 1998W        W18845  15.082  15.298   9.747  0.0878 -0.3632 -0.0450
 1999W        W18846  16.902   6.937  14.211 -0.0652 -0.1148 -0.0185
 2000W        W18847  17.181  15.152  12.599  0.2290  0.0492 -0.2638
 2001W        W18848   5.187   1.970   3.902  0.2878  0.2286  0.0906
 2002W        W18849   2.499   4.429  14.848 -0.1694 -0.2440 -0.0473
 2003W        W18850  17.715   4.950  11.248 -0.1423 -0.1135 -0.3601
 2004W        W18851  17.446   0.890   2.435 -0.3696  0.2013  0.0041
 2005W        W18852  14.656   2.268   0.186  0.0528 -0.0694  0.0970
 2006W        W18853  15.382  13.434  13.818  0.1490 -0.2771 -0.2530
 2007W        W18854   7.098   5.868   0.619  0.1673 -0.0391  0.0293
 2008W        W18855  18.004  11.232   1.919  0.1352  0.0052 -0.2211
 2009W        W18856  14.830  12.186   0.414 -0.0771  0.1301 -0.0737
 2010W        W18857   7.283  18.897   1.656 -0.0197 -0.1162  0.4642
 2011W        W18858   5.903  16.634   3.650 -0.2138 -0.2543 -0.1349
 2012W        W18859   3.461   0.688   4.263 -0.0867  0.0306 -0.3403
 2013W        W18860  12.583   1.107  10.107 -0.0939 -0.1500  0.2935
 2014W        W18861   3.830  14.593   0.649 -0.1039  0.0616 -0.2288
 2015W        W18862  19.263  18.272  11.400  0.0834  0.0092 -0.0408
 2016W        W18863  15.737  12.425   2.301 -0.0213  0.0750 -0.0083
 2017W        W18864   0.172   9.593  13.891  0.0051  0.0546  0.0212
 2018W        W18865  16.961  12.434  10.899  0.3027  0.1958  0.0604
 2019W        W18866   8.779   8.960   2.257 -0.2154  0.1896  0.2556
 2020W        W18867  10.505   3.183   0.843 -0.0214 -0.0192 -0.0504
 2021W        W18868  14.280   3.859   1.785  0.5064  0.1573  0.0239
 2022W        W18869  14.594   8.939   2.030  0.0652 -0.0878  0.0248
 2023W        W18870  19.067  15.871  14.664 -0.0073  0.0894  0.0023
 2024W        W18871  18.478   3.512   3.125 -0.1641  0.0997 -0.1114
 2025W        W18872  18.756  18.924   0.354 -0.2403 -0.2416  0.1103
 2026W        W18873  12.377  13.130   3.605  0.0292 -0.3638 -0.2814
 2027W        W18874  10.954  18.373   3.321 -0.1833 -0.0463 -0.2224
 2028W        W18875  15.878   2.653   0.640  0.1974 -0.0160 -0.1702
 2029W        W18876  16.047  19.176   0.487 -0.0294  0.3736 -0.2212
 2030W        W18877   0.118  11.910  12.291 -0.0899 -0.1843 -0.3081
 2031W        W18878   4.412   0.502  10.565 -0.2011  0.2208  0.0844
 2032W        W18879   9.026   3.827  11.617 -0.1059 -0.2565  0.2916
 2033W        W18880   8.950  10.050  14.291  0.0700  0.1019  0.1254
 2034W        W18881   7.475  13.188  11.107  0.0704 -0.2455  0.1216
 2035W        W18882  16.425   6.534  10.639  0.1804  0.0875 -0.0223
 2036W        W18883   0.390  15.693   3.125  0.0798 -0.1242  0.0231
 2037W        W18884   0.523  18.137   1.522  0.2259 -0.1349 -0.2391
 2038W        W18885  11.172   1.564  14.534  0.1598 -0.2714  0.0430
 2039W        W18886   1.197   0.527  12.463 -0.0505 -0.1419  0.1574
 2040W        W18887  16.788  13.537   4.089  0.1542 -0.1248  0.2714
 2041W        W18888  12.182   7.987  11.230 -0.0190  0.1408 -0.2336
 2042W        W18889  12.995   2.156   3.967  0.4193  0.2529  0.1582
 2043W        W18890  11.436   3.956  13.132 -0.1065  0.1535 -0.0649
 2044W        W18891  17.347   7.793  11.601  0.0169  0.3520  0.2042
 2045W        W18892   1.082  13.977   1.954 -0.0436  0.1373 -0.1436
 2046W        W18893  10.715   1.671   2.329 -0.0165  0.0797 -0.2059
 2047W        W18894  14.651  12.619   9.696 -0.1063  0.0044 -0.3495
 2048W        W18895   7.733  15.491  13.353 -0.0854 -0.1554  0.0272
 2049W        W18896  10.083  14.450  14.692  0.0247  0.2017 -0.0284
 2050W        W18897   1.681   7.117   0.995  0.2067  0.1037  0.1199
 2051W        W18898  17.019   0.263   3.444  0.1759  0.1420 -0.2573
 2052W        W18899  18.991   4.067   3.880 -0.0873  0.3429 -0.0104
 2053W        W18900   9.670  17.296  13.385 -0.2752 -0.2164  0.1422
 2054W        W18901  17.445  13.358   0.952 -0.1330  0.2484 -0.0713
 2055W        W18902   4.772   7.903  12.319  0.1440  0.2030  0.0225
 2056W        W18903  18.941  11.433  13.117 -0.0626 -0.1298  0.0697
 2057W        W18904   0.908  18.164   0.734  0.0761 -0.3097 -0.2364
 2058W        W18905  14.601   9.701   2.823 -0.1086 -0.2530  0.1063
 2059W        W18906  12.152   9.936  12.830  0.1009 -0.1523  0.2133
 2060W        W18907  14.049  17.898  12.317 -0.2338  0.0087 -0.1781
 2061W        W18908   5.227  10.087  10.628  0.2938 -0.1524 -0.3258
 2062W        W18909   9.820  10.666   4.534 -0.0746  0.0967  0.0005
 2063W        W18910   7.750  10.608  13.423  0.1216 -0.1471 -0.2951
 2064W        W18911  18.034  19.215  12.983 -0.4131 -0.1736 -0.1145
 2065W        W18912   0.605   9.232  11.001  0.2022  0.1080  0.0543
 2066W        W18913  17.797  11.207   4.512 -0.3341 -0.0755  0.2177
 2067W        W18914  18.198   2.057   3.027 -0.2935 -0.0911 -0.0496
 2068W        W18915   8.350  13.952  12.197 -0.3992 -0.1391 -0.1123
 2069W        W18916  16.818  11.233   0.602 -0.1446 -0.0148  0.1501
 2070W        W18917  14.434  16.986   5.623 -0.2017 -0.3815  0.2355
 2071W        W18918  13.954   1.672   4.240 -0.2044 -0.0311  0.3169
 2072W        W18919  16.421   4.564  11.580  0.5020  0.1228  0.2666
 2073W        W18920   3.052   0.751   3.904 -0.4604 -0.2378 -0.0847
 2074W        W18921  15.211  14.210   3.169  0.0800  0.1559 -0.3646
 2075W        W18922   4.990   5.148  14.981  0.2105  0.2738 -0.2288
 2076W        W18923   4.821   8.374   0.033 -0.1801  0.2415  0.0602
 2077W        W18924   1.243  18.013  13.090 -0.3348  0.0239  0.2191
 2078W        W18925   3.111   1.210  12.525 -0.1354 -0.1125 -0.1346
 2079W        W18926  14.966  14.127  12.733  0.1184  0.0795  0.0129
 2080W        W18927  10.744   4.181   1.207 -0.0057  0.0778 -0.1917
 2081W        W18928  18.610  14.102  14.687  0.0860  0.0566 -0.2687
 2082W        W18929   3.005  14.149  11.304 -0.0148  0.1514  0.0408
 2083W        W18930   1.178   9.155  10.732 -0.0874  0.0231 -0.1736
 2084W        W18931   5.735   2.924   1.096  0.0614 -0.2683 -0.0036
 2085W        W18932  13.689  19.032  11.557 -0.1282 -0.1545 -0.0163
 2086W        W18933   4.332  14.616   0.799 -0.0204  0.3421 -0.3927
 2087W        W18934  17.063  12.429  11.657 -0.1104  0.0254  0.1796
 2088W        W18935  13.963  11.662   1.983 -0.2671  0.0156  0.0397
 2089W        W18936  15.864  12.014   3.055 -0.0784  0.6310 -0.0283
 2090W        W18937   6.000   9.243  12.312  0.0108  0.1403  0.0491
 2091W        W18938   1.018   5.011  13.124  0.2505  0.0696 -0.0200
 2092W        W18939   7.162  14.010   0.353 -0.0292 -0.3202  0.1723
 2093W        W18940   6.311  11.989  12.338  0.2621 -0.0565  0.1049
 2094W        W18941   3.071   8.742  14.999  0.2373 -0.0325 -0.0341
 2095W        W18942  17.777   7.136   1.574 -0.0204 -0.1304  0.3871
 2096W        W18943  14.700   4.486   1.374 -0.0165  0.1187 -0.0852
 2097W        W18944   3.261  17.378   4.904 -0.4046 -0.3066 -0.0230
 2098W        W18945   6.402   4.865  12.378 -0.0939 -0.0980  0.0506
 2099W        W18946   8.097   0.082   3.745  0.0416  0.1212  0.1171
 2100W        W18947  10.667   8.571  11.296 -0.2070  0.2543  0.0710
 2101W        W18948   1.757   8.886  10.503 -0.1889  0.1407 -0.1262
 2102W        W18949   4.034   3.977  13.003  0.0641  0.1041  0.2453
 2103W        W18950   9.230  13.698   0.900 -0.1467 -0.0667  0.1391
 2104W        W18951   4.118  13.629  10.452  0.0930 -0.2048  0.0211
 2105W        W18952   6.389  16.672  11.964  0.2714  0.0285 -0.0705
 2106W        W18953  12.564   0.908  14.330 -0.0922 -0.1497 -0.0260
 2107W        W18954   8.237  12.077   0.416  0.3876  0.2321  0.3082
 2108W        W18955  15.582   2.392   2.888  0.0138  0.0756  0.0064
 2109W        W18956   9.695  17.287  14.463 -0.2828  0.2095  0.1267
 2110W        W18957   6.407   4.344   4.029  0.1081  0.0586 -0.1370
 2111W        W18958  12.648   6.700  14.819 -0.2637  0.1499  0.1486
 2112W        W18959  16.504   6.182   0.184 -0.0467  0.1760 -0.0708
 2113W        W18960   9.857   0.333   5.006 -0.0664 -0.1991 -0.1759
 2114W        W18961   6.902  15.900   3.825  0.1448 -0.0603  0.0924
 2115W        W18962  13.141  17.159   5.995 -0.0016 -0.2466  0.0751
 2116W        W18963  19.158  14.639  12.447 -0.0747  0.0438  0.0843
 2117W        W18964   9.808  10.443   2.921 -0.0064 -0.0207 -0.0254
 2118W        W18965  11.656   9.462   0.305  0.0806 -0.2685  0.3555
 2119W        W18966  16.950  16.574   0.852  0.0843 -0.0110  0.3455
 2120W        W18967  10.928  13.107  13.095 -0.3139 -0.1048 -0.0257
 2121W        W18968  11.826   3.123   1.428 -0.0203  0.0884 -0.0233
 2122W        W18969  15.766  10.182  12.419  0.1787  0.3728 -0.4809
 2123W        W18970   3.873   1.701  13.117  0.5067  0.0768 -0.1807
 2124W        W18971  11.973  13.741  14.413 -0.0423 -0.3314  0.1205
 2125W        W18972   7.734   0.529   0.288  0.1727 -0.0704 -0.2159
 2126W        W18973   7.803   4.185  11.193  0.0930 -0.0441  0.0870
 2127W        W18974  14.835   3.283  12.665 -0.0390 -0.0722 -0.2480
 2128W        W18975  10.696   0.333  14.383 -0.0411  0.2367 -0.1507
 2129W        W18976  18.402   9.835   2.363 -0.1732  0.1492 -0.0462
 2130W        W18977   4.367   7.952   5.152  0.1021 -0.0446  0.2603
 2131W        W18978   6.322  14.968   4.524 -0.0505 -0.0507 -0.0205
 2132W        W18979  17.811  13.400   4.233  0.0876  0.2358  0.0736
 2133W        W18980  12.707  14.759  14.153  0.1942 -0.2443 -0.2866
 2134W        W18981   3.796   5.003  14.554  0.0503  0.1143 -0.1928
 2135W        W18982  14.335  17.908   3.527 -0.0130  0.0328 -0.1000
 2136W        W18983   8.479  15.757   1.672  0.0603 -0.0204  0.1177
 2137W        W18984   3.571   2.952  14.858  0.0194 -0.1266  0.0185
 2138W        W18985   6.283   4.611  11.033  0.0532 -0.3593  0.1871
 2139W        W18986  11.040  11.491   3.218  0.0764  0.0340 -0.0058
 2140W        W18987   1.887   6.142   0.840  0.2183 -0.5508  0.3562
 2141W        W18988   5.754  11.330  10.987 -0.1474 -0.0877 -0.0093
 2142W        W18989   9.878  13.704  14.182 -0.0517 -0.3477 -0.0388
 2143W        W18990   8.460   5.004  11.517  0.1180  0.1238  0.1447
 2144W        W18991  17.869   3.613   2.154 -0.2245  0.0129  0.0214
 2145W        W18992  16.597  12.397   3.396  0.3047 -0.1218 -0.0294
 2146W        W18993  16.179   9.982  12.632 -0.2108  0.0032  0.0420
 2147W        W18994   1.507   1.375  11.926  0.2208 -0.0481 -0.4758
 2148W        W18995  17.037  13.047   1.162 -0.0290  0.0705 -0.2850
 2149W        W18996   8.781   3.535   0.740 -0.2485  0.0199  0.2693
 2150W        W18997  17.760  18.842   0.434 -0.2524 -0.0042  0.1714
 2151W        W18998   6.627   6.405  13.159 -0.0649 -0.1089  0.1053
 2152W        W18999   3.947   2.033  14.535  0.1421  0.2573 -0.0291
 2153W        W19000  19.065   4.846   0.438 -0.0780 -0.0666  0.0228
 2154W        W19001   4.666   3.018  12.923  0.0000  0.2536  0.1169
 2155W        W19002   1.311   5.095   0.830 -0.1328 -0.0855 -0.3544
 2156W        W19003  10.784  17.045   2.749 -0.0182 -0.1654  0.2268
 2157W        W19004  11.775  17.643   2.024  0.3389 -0.0156  0.0094
 2158W        W19005  17.133   2.722   2.491  0.0698  0.0713  0.0358
 2159W        W19006  16.624   1.233  13.180  0.0995 -0.1458 -0.0345
 2160W        W19007   7.578  13.075  12.143  0.0290  0.2526  0.1545
 2161W        W19008  11.606  12.151   3.060 -0.0261  0.2923 -0.1721
 2162W        W19009  12.512  14.519   4.318  0.2115 -0.0753  0.0877
 2163W        W19010   0.294  10.794   0.996  0.0600  0.1648  0.1087
 2164W        W19011  15.247  18.678   1.309  0.2767 -0.3914 -0.2801
 2165W        W19012   6.400   4.876   3.936  0.3562 -0.1622 -0.0279
 2166W        W19013  17.104  16.508  12.813 -0.2107  0.1236  0.1510
 2167W        W19014   2.459   7.428  14.340 -0.0637 -0.0661 -0.3779
 2168W        W19015  10.798   1.848   0.107  0.3828 -0.1099 -0.1608
 2169W        W19016   5.784  10.998   3.104  0.0924 -0.3540 -0.4195
 2170W        W19017   8.773   2.560   0.632  0.0834  0.0848 -0.0922
 2171W        W19018   3.451  15.422   0.866 -0.1948 -0.0932 -0.0305
 2172W        W19019  15.528  11.637  11.901  0.2139 -0.2855 -0.0101
 2173W        W19020  13.676   0.608  11.814 -0.1215 -0.2576  0.1413
 2174W        W19021  14.814  11.231   4.406 -0.0612  0.0741  0.0943
 2175W        W19022  12.159   6.731   5.039  0.0558 -0.1225  0.1385
 2176W        W19023   1.723  10.826   2.419 -0.2005  0.1336 -0.3429
 2177W        W19024  16.597  12.690   0.408  0.0313  0.2181 -0.0732
 2178W        W19025  14.854  19.214   0.088  0.2661  0.0846  0.3802
 2179W        W19026  12.411   0.714  14.772  0.1104 -0.1225 -0.1191
 2180W        W19027   5.878   7.116  12.927 -0.2146  0.0110 -0.3415
 2181W        W19028   1.684  14.495   3.101  0.0634  0.1788  0.0013
 2182W        W19029  19.104   7.296   0.956 -0.3505 -0.2437  0.1673
 2183W        W19030  14.373  19.100   4.850 -0.0192 -0.1475  0.0814
 2184W        W19031   6.363   4.410   5.194  0.2778 -0.0475  0.1100
 2185W        W19032  13.571   2.156  10.191 -0.3795  0.0511 -0.0884
 2186W        W19033   4.620  18.309   0.840  0.0019 -0.2925 -0.2044
 2187W        W19034   1.303  10.012   0.433 -0.2192  0.1592  0.0026
 2188W        W19035  10.045   5.924   3.437  0.0379  0.2101 -0.2477
 2189W        W19036   8.830  14.342   1.830  0.1984 -0.2323  0.1016
 2190W        W19037   7.656   9.881  13.016 -0.1828  0.1454  0.1209
 2191W        W19038   3.730   4.122  13.770 -0.1689  0.1006 -0.1104
 2192W        W19039   6.008  14.742   3.000  0.3472 -0.2372 -0.0933
 2193W        W19040   3.766   8.837   2.823  0.1673 -0.0999  0.0834
 2194W        W19041  14.441  16.089   1.304  0.0308  0.0075 -0.0270
 2195W        W19042  14.695  18.480  12.269  0.1594 -0.2724 -0.2727
 2196W        W19043  18.326   8.784  11.540  0.0644  0.0201  0.0034
 2197W        W19044   9.205  15.418   4.580 -0.3475  0.0806  0.3034
 2198W        W19045   7.692   9.156   3.078  0.0668  0.0648  0.1736
 2199W        W19046  17.511  16.396   5.311  0.0164  0.0265 -0.1621
 2200W        W19047   0.640   4.188   2.823 -0.0117 -0.2403  0.1241
 2201W        W19048   0.592   4.454  11.052 -0.0261 -0.1914 -0.2769
 2202W        W19049  12.582   9.927   3.970 -0.1317  0.0965  0.2357
 2203W        W19050   9.947   2.651   3.475  0.1354 -0.4429  0.3207
 2204W        W19051  14.938   9.360   1.989 -0.0477 -0.1282  0.1771
 2205W        W19052  13.929  17.809   5.424  0.2388  0.3115  0.1525
 2206W        W19053   7.279  10.264   4.250 -0.3021 -0.0506 -0.2362
 2207W        W19054  18.131   7.383  13.843 -0.1164 -0.0116  0.2634
 2208W        W19055  16.663  18.886   1.292  0.1012 -0.0145  0.1433
 2209W        W19056   3.787   8.533  13.881 -0.0023  0.1635 -0.2680
 2210W        W19057   5.854   2.718  10.541 -0.0076 -0.2853  0.0767
 2211W        W19058  14.565   0.551   3.936  0.1724  0.1309  0.2133
 2212W        W19059   2.759  16.589  13.125  0.3407  0.2560 -0.1137
 2213W        W19060   3.097   3.379  10.224  0.0836  0.0411  0.1621
 2214W        W19061   9.815  10.223   4.061  0.1228  0.2007 -0.1886
 2215W        W19062  16.060   4.833  13.498  0.0475 -0.1266 -0.0073
 2216W        W19063  16.400   8.871   1.643 -0.1330  0.1638  0.1286
 2217W        W19064  13.852  13.345   9.942  0.2031  0.1202 -0.0768
 2218W        W19065  11.696   2.625  14.958  0.1383 -0.3525  0.1896
 2219W        W19066   5.241   4.497  11.650 -0.0635 -0.2455  0.2344
 2220W        W19067  15.222  14.738   0.005 -0.1935  0.0641  0.1198
 2221W        W19068  11.016  13.488  11.169 -0.2133  0.2955 -0.2036
 2222W        W19069   8.374   0.250   0.804 -0.0961 -0.4233  0.1798
 2223W        W19070  11.491  13.772  14.342 -0.1133 -0.2155 -0.2681
 2224W        W19071  13.143  18.831  11.757  0.1663 -0.0881  0.2655
 2225W        W19072   5.151   7.450   4.229  0.0492 -0.0874 -0.1081
 2226W        W19073   2.928  11.214  13.822  0.2839  0.2106  0.2229
 2227W        W19074   5.747   4.504  11.756  0.0646 -0.1890  0.3057
 2228W        W19075   0.275   2.325   5.059  0.0201  0.0164  0.1057
 2229W        W19076  10.346   5.066  12.923 -0.0447 -0.1817  0.3544
 2230W        W19077   1.085   9.045   5.001  0.1348  0.2101 -0.2796
 2231W        W19078   8.490   9.548   1.836  0.0248  0.1201 -0.3023
 2232W        W19079  19.249   5.065  11.147 -0.0941 -0.4122 -0.2779
 2233W        W19080  18.216   9.893  12.522 -0.0228 -0.1023  0.1839
 2234W        W19081   0.037   2.395  11.176  0.0676  0.0725  0.0307
 2235W        W19082   1.127   7.494   3.412 -0.0457 -0.2066 -0.0332
 2236W        W19083   4.881   8.900  11.345  0.1592  0.2308 -0.0812
 2237W        W19084   3.518  15.754   2.612  0.2539  0.0415  0.1523
 2238W        W19085  13.352  18.603  11.179 -0.1861 -0.1211 -0.1802
 2239W        W19086  11.369   7.635   0.631 -0.1898  0.1028 -0.2040
 2240W        W19087   2.997   4.604  11.522  0.0724  0.3237 -0.0175
 2241W        W19088  14.450   3.585   0.405 -0.2479 -0.1596  0.0993
 2242W        W19089  11.448  10.604  11.307 -0.4617  0.0102 -0.3009
 2243W        W19090  11.475   3.347   4.603 -0.1665 -0.2678 -0.1835
 2244W        W19091   2.063   8.383  14.165  0.2628  0.2260 -0.0345
 2245W        W19092   5.093   7.718  11.890  0.0867  0.0219 -0.4551
 2246W        W19093  11.401   2.765  10.020  0.2187 -0.0324 -0.1025
 2247W        W19094   5.036   6.600   4.837 -0.4063  0.0403 -0.0996
 2248W        W19095   8.189   1.293  12.287  0.0477 -0.2338  0.0784
 2249W        W19096  16.245  12.499  13.827  0.1469 -0.6623 -0.3357
 2250W        W19097   5.721   7.663   4.110 -0.1218 -0.1795 -0.0660
 2251W        W19098  18.859   5.786  12.327 -0.2112 -0.0296  0.0642
 2252W        W19099  11.473  10.417  12.412  0.1006  0.0250 -0.2292
 2253W        W19100   7.630   1.555   1.573 -0.0349  0.0772  0.2224
 2254W        W19101  17.741   7.483   3.160  0.1675  0.1177  0.0733
 2255W        W19102   7.179  13.410  12.179 -0.0978 -0.1703 -0.0300
 2256W        W19103   9.898   8.820   3.592 -0.0102  0.1760  0.0941
 2257W        W19104   6.843   7.442  12.850  0.0813  0.0159 -0.0644
 2258W        W19105  19.256  16.582  12.475 -0.0987  0.1083  0.1315
 2259W        W19106   3.494  12.685  11.153 -0.0734 -0.1196  0.1245
 2260W        W19107   5.986  15.014  12.401 -0.0414  0.1496  0.1014
 2261W        W19108  14.344  17.106   1.271  0.0222 -0.1403 -0.2089
 2262W        W19109   5.404  13.016  13.866 -0.0802 -0.1103 -0.0824
 2263W        W19110   0.031   8.695  11.585 -0.0726 -0.0229 -0.1089
 2264W        W19111  19.205  15.676   1.854 -0.1533  0.2202 -0.1905
 2265W        W19112   9.646   5.679  12.745 -0.0154 -0.2515 -0.1086
 2266W        W19113  15.245   1.933  10.938  0.0189 -0.1832 -0.1009
 2267W        W19114  10.733   4.604  13.897  0.0858  0.0355  0.2589
 2268W        W19115   5.436   3.275  13.981  0.0005 -0.2392  0.1854
 2269W        W19116  14.725   5.412  11.600 -0.1380 -0.1532  0.5271
 2270W        W19117   4.492   7.687  13.363  0.0983  0.0949 -0.2378
 2271W        W19118   5.465  16.242   2.332  0.1952 -0.0210 -0.1281
 2272W        W19119  15.968   9.809   2.013  0.1966 -0.0667  0.2903
 2273W        W19120  12.047  18.954   0.189  0.3401  0.2723 -0.0100
 2274W        W19121   2.525  18.909  14.839 -0.0994 -0.1500 -0.0201
 2275W        W19122   4.957   3.205  10.932 -0.0109  0.1980  0.0928
 2276W        W19123  17.168   0.906   4.167 -0.0566  0.0205  0.0088
 2277W        W19124   6.176   7.004   1.875  0.2068  0.1420 -0.0963
 2278W        W19125   0.287   0.376   3.972 -0.1872 -0.2665 -0.0264
 2279W        W19126   8.357  18.637   1.969  0.1572  0.0366 -0.1291
 2280W        W19127   5.112  14.759  12.276 -0.2483 -0.0368 -0.1337
 2281W        W19128   7.290  12.189  15.016  0.1560 -0.0738 -0.2061
 2282W        W19129   9.624   3.563  14.202 -0.2493 -0.2276 -0.1812
 2283W        W19130   0.283   4.775   0.487  0.1122  0.0536  0.1623
 2284W        W19131  12.076  19.132  14.364  0.3275  0.0305  0.1717
 2285W        W19132   6.523   3.412   1.348  0.0293 -0.1007  0.0740
 2286W        W19133  14.105  13.433  13.695 -0.1595 -0.1381  0.2157
 2287W        W19134  15.293   3.855   2.124 -0.1963 -0.1705  0.0318
 2288W        W19135  17.313   6.928  14.495 -0.1345  0.0465 -0.0604
 2289W        W19136   3.756   2.441   2.373  0.3778 -0.1119 -0.3166
 2290W        W19137   6.794  15.094  13.630  0.0348 -0.1093 -0.1006
 2291W        W19138   2.372  11.557   4.171 -0.0312 -0.3285 -0.1714
 2292W        W19139   4.251   0.804   2.462 -0.1770  0.1667 -0.2761
 2293W        W19140  15.651   3.122  10.677 -0.0222  0.4239 -0.3086
 2294W        W19141   1.194  15.942   4.032  0.0709 -0.1579  0.0574
 2295W        W19142   8.156  18.356  11.808 -0.3502 -0.0424 -0.1273
 2296W        W19143  14.952  18.587   5.203 -0.2124  0.0385  0.1632
 2297W        W19144  14.111  14.918   0.613 -0.2576 -0.0158 -0.1696
 2298W        W19145  11.597   6.367  14.173  0.2203 -0.0001 -0.0684
 2299W        W19146  13.581  17.027   1.019  0.1079 -0.3978  0.1187
 2300W        W19147  13.038  13.167  12.122 -0.0167  0.1912 -0.3194
 2301W        W19148   1.019   4.862   4.229 -0.2264  0.1341  0.0572
 2302W        W19149   8.766  16.027   0.897  0.0290 -0.1266 -0.0154
 2303W        W19150  12.873   0.651   3.566  0.0052  0.1115  0.1538
 2304W        W19151  15.018   5.577   4.138 -0.0730 -0.1126 -0.0840
 2305W        W19152  10.079  14.698   3.773  0.0146  0.0651 -0.3723
 2306W        W19153  17.438  11.542  14.745 -0.3127  0.1016  0.0324
 2307W        W19154  10.377   7.876   4.146  0.2624 -0.2909 -0.1632
 2308W        W19155  19.040   6.868   4.482  0.0393  0.4139  0.1106
 2309W        W19156   4.209  18.527   9.495  0.1731  0.1166 -0.0548
 2310W        W19157  10.173   4.364  14.644  0.0513  0.1096 -0.1906
 2311W        W19158   2.490   5.109   4.116  0.0867 -0.2246  0.1093
 2312W        W19159  11.528   3.514  14.970 -0.1742  0.0700  0.1258
 2313W        W19160  15.302  16.046  13.837 -0.5150 -0.2090 -0.0121
 2314W        W19161  16.009   8.912   2.543 -0.1228  0.2115  0.1405
 2315W        W19162  10.361  14.663   4.952  0.1688 -0.0010  0.0875
 2316W        W19163   6.024   5.870  12.386 -0.0465 -0.0443 -0.3391
 2317W        W19164  18.094  15.419  13.916  0.2756  0.0170  0.2182
 2318W        W19165   0.359   0.191  11.323  0.0134 -0.3917 -0.0273
 2319W        W19166   3.549   0.840   2.971 -0.1111 -0.1570  0.1348
 2320W        W19167   8.363   3.966  14.964  0.1119  0.3966 -0.0766
 2321W        W19168  15.965   9.379   2.433 -0.0566  0.1023 -0.2186
 2322W        W19169   1.727   1.630  12.647 -0.2094 -0.1838 -0.1129
 2323W        W19170  13.259  12.240  12.195  0.2787 -0.0938  0.1466
 2324W        W19171  16.923  18.003  13.003 -0.0738  0.1313 -0.0133
 2325W        W19172  18.677   0.166   3.126  0.4396 -0.0310  0.2897
 2326W        W19173   2.662   2.244   0.344 -0.1271 -0.1263 -0.2344
 2327W        W19174  12.009   0.527  14.476  0.1681  0.3311  0.4036
 2328W        W19175   4.806  15.864  14.759  0.0569 -0.1316 -0.1154
 2329W        W19176  11.979  18.005  11.223 -0.2936  0.0375  0.3245
 2330W        W19177  10.827   5.814   2.939  0.1416  0.0495 -0.3576
 2331W        W19178  18.162  14.542  13.802 -0.3222  0.0378  0.1014
 2332W        W19179  15.199  16.811  11.145  0.3184  0.1149  0.1626
 2333W        W19180  12.048  19.186   5.378 -0.0072 -0.1949  0.0437
 2334W        W19181   2.940  14.146   1.020 -0.1216  0.0679  0.0235
 2335W        W19182   0.191  13.433  11.973 -0.0260 -0.0105 -0.0076
 2336W        W19183   5.559   2.020   4.231 -0.1896  0.0703 -0.1943
 2337W        W19184  14.995   1.531   0.908  0.0169 -0.1339  0.0724
 2338W        W19185   0.951  15.986   2.399  0.1591 -0.2175 -0.4411
 2339W        W19186   1.830   3.775   3.146 -0.0361 -0.0102 -0.1275
 2340W        W19187   7.053   5.862   2.565  0.3007 -0.1243 -0.0171
 2341W        W19188  10.974   7.800  12.659  0.1565 -0.2451  0.0901
 2342W        W19189  19.167   6.636  13.729 -0.3041  0.1256  0.1913
 2343W        W19190   3.692   7.679  11.394  0.1956  0.1526 -0.1446
 2344W        W19191  14.875  17.101  12.062  0.0079  0.0698  0.2039
 2345W        W19192  17.000  13.126   5.189 -0.1627  0.1538  0.2359
 2346W        W19193   8.183   2.349  14.344  0.3799  0.2966  0.1677
 2347W        W19194   3.625   0.460   3.306  0.1515  0.2665 -0.0817
 2348W        W19195   1.696  11.925   2.916  0.2551  0.1626  0.0382
 2349W        W19196   9.205  15.516   1.146 -0.0892 -0.1259 -0.3795
 2350W        W19197   2.264   7.384  14.803  0.0913  0.1222 -0.3157
 2351W        W19198  13.620  16.185   2.316 -0.1460  0.1715 -0.1351
 2352W        W19199  16.962   7.094  10.432 -0.1121 -0.3692  0.2288
 2353W        W19200  17.505  13.911  12.495  0.1710  0.1698 -0.0907
 2354W        W19201  15.215  17.158  12.545  0.0762 -0.2472 -0.0708
 2355W        W19202  10.448   3.703   2.796 -0.2174  0.0578 -0.3566
 2356W        W19203  15.779   9.903   0.010  0.1343 -0.1286 -0.1434
 2357W        W19204   6.514  13.228  11.009  0.2618 -0.1909 -0.1842
 2358W        W19205   5.353   5.715   0.162  0.0179  0.0586 -0.2383
 2359W        W19206  16.133  10.669   3.869 -0.1064 -0.0359 -0.2370
 2360W        W19207  16.958   3.320  14.564 -0.3432 -0.1459  0.2765
 2361W        W19208   6.317   2.577   4.625 -0.0795  0.4410  0.0802
 2362W        W19209  17.410   3.432  11.644 -0.0517  0.3076 -0.2630
 2363W        W19210   1.095  11.333  14.039  0.0399 -0.0562  0.0969
 2364W        W19211   4.033  14.622  12.883  0.1817  0.1952 -0.1330
 2365W        W19212   3.663   5.625  14.134 -0.0346  0.1932 -0.2177
 2366W        W19213   0.229  14.702  10.545  0.2631  0.1172 -0.0528
 2367W        W19214  17.486   9.924  14.000 -0.1089 -0.5149  0.1010
 2368W        W19215  18.888   2.871   0.533 -0.0164 -0.0244 -0.0500
 2369W        W19216  17.853   1.507   0.468  0.0175  0.0827 -0.1285
 2370W        W19217   0.075   7.886  11.955 -0.0035  0.0935  0.0007
 2371W        W19218  10.083  11.143   1.664 -0.0317  0.0515  0.0997
 2372W        W19219  13.572   8.268  12.968  0.0638  0.0058 -0.1254
 2373W        W19220   0.682  12.140  13.967 -0.2421 -0.1133 -0.3342
 2374W        W19221   6.360  18.118   0.991  0.3793  0.0637 -0.0429
 2375W        W19222   4.451  13.976   1.521 -0.1185 -0.3510  0.0015
 2376W        W19223  11.683  14.424  14.379  0.0275 -0.0799 -0.0052
 2377W        W19224   9.424  13.429  10.994 -0.1435 -0.1205 -0.2397
 2378W        W19225  11.159   1.204   4.447 -0.0185  0.1157  0.1019
 2379W        W19226  16.655   5.381   1.361 -0.0359 -0.2843 -0.1096
 2380W        W19227  17.297   6.345   2.141 -0.0853 -0.0826  0.0248
 2381W        W19228  10.283  16.800  11.907  0.1123  0.1391 -0.0556
 2382W        W19229  18.270  17.421   1.372  0.2415 -0.0160 -0.0098
 2383W        W19230  11.620   1.822  14.550 -0.3179 -0.0008 -0.0266
 2384W        W19231  18.543   2.298   0.650  0.1264  0.0424  0.0534
 2385W        W19232  15.269  17.199  11.442 -0.2128  0.1797 -0.0147
 2386W        W19233   8.174  17.278   3.984 -0.1304  0.2561 -0.1784
 2387W        W19234  16.647   0.269  13.466 -0.1415  0.1441  0.2290
 2388W        W19235   4.487  17.105   2.110 -0.1339  0.2090 -0.2887
 2389W        W19236   3.662  13.696  10.778  0.1338 -0.1337  0.0938
 2390W        W19237   8.515   8.742  10.751 -0.2223 -0.1163 -0.6267
 2391W        W19238   7.254   4.391  11.938  0.2218 -0.1337  0.1153
 2392W        W19239   4.435  14.443   4.676  0.1457  0.0362 -0.1285
 2393W        W19240   8.851   8.653   9.149 -0.4610  0.1938 -0.3225
 2394W        W19241   4.164  16.476  13.907  0.2993  0.1293 -0.0966
 2395W        W19242   4.833  14.228   3.442  0.5053 -0.0454  0.1211
 2396W        W19243   8.114  18.410  14.143  0.2711  0.0036  0.0635
 2397W        W19244  16.860  18.695   3.113 -0.2007  0.4313 -0.1228
 2398W        W19245   5.577  12.238   0.609 -0.1848 -0.1519 -0.0701
 2399W        W19246   2.405   9.534   1.069 -0.2387 -0.1452 -0.0457
 2400W        W19247   0.252   8.317   2.642  0.0269 -0.1119 -0.0665
 2401W        W19248   4.592  13.599  11.765 -0.2021 -0.1403 -0.1620
 2402W        W19249   1.219   5.468  10.880 -0.1675  0.2999 -0.0899
 2403W        W19250  18.897  19.179   3.538 -0.3450 -0.1798 -0.0465
 2404W        W19251   2.009  15.461   5.116  0.1295 -0.0846  0.0422
 2405W        W19252  11.507   2.169  13.011  0.1110 -0.1230 -0.0230
 2406W        W19253  11.973   3.568   0.275 -0.0613  0.0086  0.0875
 2407W        W19254   2.405   1.436   1.983  0.0575  0.1285 -0.2474
 2408W        W19255   2.568   0.709  13.735  0.0886  0.0183 -0.0001
 2409W        W19256  16.961   1.425   4.086 -0.0301 -0.0255  0.0737
 2410W        W19257   2.589   5.455  12.766 -0.0803  0.2637 -0.0098
 2411W        W19258   6.983   5.266  14.389  0.0215  0.0503 -0.3639
 2412W        W19259   3.259  10.272   4.081 -0.4681 -0.0441 -0.0761
 2413W        W19260   4.965  13.823  14.532 -0.1797  0.1874  0.1881
 2414W        W19261   5.910  11.626   1.734 -0.0774  0.1297  0.0278
 2415W        W19262   4.754  17.492  11.762  0.0239 -0.1285 -0.6008
 2416W        W19263  15.855  11.469   3.513 -0.3803  0.1684  0.1110
 2417W        W19264   7.167   9.712   1.870 -0.3142  0.1794 -0.1472
 2418W        W19265   7.162  11.796  14.057 -0.3294  0.2638 -0.3159
 2419W        W19266   7.737   1.335  10.338  0.1265  0.1912  0.0873
 2420W        W19267  12.121  15.183   3.102 -0.0362  0.1460 -0.0040
 2421W        W19268   3.796  15.237   3.610 -0.1182 -0.0626  0.1697
 2422W        W19269   1.636  11.309  11.503 -0.3423  0.0034 -0.3296
 2423W        W19270   3.976  13.533   9.202  0.1381  0.0371 -0.0895
 2424W        W19271   5.623  11.356  14.837 -0.1091 -0.0291 -0.1998
 2425W        W19272   2.595  14.652  11.959 -0.0663  0.1659  0.2874
 2426W        W19273   0.908  17.141  14.341 -0.3198 -0.0085 -0.1587
 2427W        W19274  16.639   4.907   2.605  0.1108  0.2057  0.2591
 2428W        W19275  17.079  10.866  12.315  0.2545  0.0302 -0.1518
 2429W        W19276  13.845   2.119   4.465 -0.4295  0.0736  0.1167
 2430W        W19277  17.041   6.027  12.677 -0.0852 -0.1203  0.2049
 2431W        W19278  14.711  14.468   5.061 -0.5670 -0.0306  0.1297
 2432W        W19279   8.695  11.240   1.066  0.0949  0.1388  0.1650
 2433W        W19280   6.758   5.191   0.301 -0.0221 -0.0190  0.3157
 2434W        W19281  13.335  11.229  14.608 -0.3440 -0.0626 -0.0701
 2435W        W19282  10.423  14.321   5.360 -0.0189  0.0897 -0.2384
 2436W        W19283   4.451  17.826   4.244  0.0678  0.1963  0.3726
 2437W        W19284   6.234   2.650  14.921 -0.1283 -0.3544  0.0541
 2438W        W19285  17.891   9.357   4.478 -0.0743 -0.1271 -0.3657
 2439W        W19286  15.738  13.429   1.005 -0.0998  0.2092 -0.1339
 2440W        W19287   2.602   9.963   1.744 -0.0909  0.2947 -0.0869
 2441W        W19288   9.126  12.867  13.173  0.0183 -0.4085 -0.0583
 2442W        W19289   8.483   3.132  12.123  0.0764  0.0450  0.0563
 2443W        W19290   7.460   2.904   2.050  0.0267 -0.0596  0.2752
 2444W        W19291  16.392   7.894   0.699 -0.1159  0.2031  0.3485
 2445W        W19292   9.936  16.945  13.123 -0.2490 -0.1049 -0.0305
 2446W        W19293  15.998  18.833   2.564 -0.2110 -0.1229  0.1871
 2447W        W19294   5.015   8.921  12.728 -0.0290  0.2654  0.0628
 2448W        W19295   2.675  12.811   0.008 -0.0417 -0.0460  0.5311
 2449W        W19296  10.865   4.911   2.962  0.2658 -0.2546  0.1022
 2450W        W19297  19.259  11.445  14.726 -0.0360 -0.0431  0.0562
 2451W        W19298   1.090   1.295  14.862 -0.4429  0.1053 -0.1459
 2452W        W19299  14.394   3.011   2.363  0.1304 -0.1685 -0.1363
 2453W        W19300   4.091  10.653   4.582  0.0029  0.0194 -0.0467
 2454W        W19301   0.415   5.569   0.032  0.1209 -0.0722  0.0413
 2455W        W19302  13.575   0.505   4.357 -0.2798 -0.1931  0.3491
 2456W        W19303   4.588   0.939   1.437  0.1062  0.2677  0.2686
 2457W        W19304  15.870   3.106   0.439  0.2338 -0.3449 -0.1660
 2458W        W19305   7.536  15.871   1.202  0.1710 -0.0411  0.0928
 2459W        W19306  14.479  19.251  13.511 -0.1968 -0.1823 -0.3084
 2460W        W19307   6.500   7.410  10.525  0.0019  0.2691 -0.0920
 2461W        W19308  14.703   1.249   3.724  0.3234  0.0548  0.4747
 2462W        W19309  14.165   2.038   1.661 -0.2773 -0.0246  0.1156
 2463W        W19310   7.765   2.762   0.194 -0.3642 -0.1521 -0.1525
 2464W        W19311  16.454   0.716  13.251 -0.0230  0.2306 -0.2510
 2465W        W19312  14.446   2.479   1.519 -0.5640  0.1712  0.0650
 2466W        W19313   8.198  10.588  14.195 -0.3147 -0.0100 -0.3354
 2467W        W19314  16.280   4.426   0.684  0.1261 -0.2690  0.3432
 2468W        W19315  13.055   6.121  12.907  0.0066  0.2012  0.1176
 2469W        W19316   1.598   7.892   5.586 -0.0100 -0.1387 -0.3190
 2470W        W19317   1.401   7.780   3.751 -0.0729  0.1434 -0.0862
 2471W        W19318  18.374   7.640  11.599 -0.0647  0.0880  0.0549
 2472W        W19319   7.913   4.551   1.884 -0.2763 -0.0405  0.1608
 2473W        W19320  10.465  10.272  12.320  0.2310 -0.0094  0.1461
 2474W        W19321  11.115  16.843  13.625  0.0946 -0.2232 -0.0499
 2475W        W19322  11.734  16.176   0.894 -0.1836  0.1574 -0.0178
 2476W        W19323   2.422  15.599   4.689 -0.0331 -0.0936 -0.1082
 2477W        W19324  11.973  12.530   2.209  0.0404  0.3539 -0.2934
 2478W        W19325  18.443   1.539  12.406 -0.2012  0.5730 -0.3492
 2479W        W19326   9.544  10.035   3.648 -0.1052  0.1182 -0.2853
 2480W        W19327   7.162   0.516   3.477  0.3950 -0.1344 -0.1441
 2481W        W19328  15.535  14.627  14.555  0.0957 -0.1238 -0.3917
 2482W        W19329   2.318  17.052  11.056 -0.0855  0.1255  0.2645
 2483W        W19330  12.236  18.972  10.889 -0.0090 -0.0419 -0.1338
 2484W        W19331   0.170   3.634   4.637 -0.0698  0.2585  0.3175
 2485W        W19332  10.944  11.593   1.555  0.3409 -0.0353 -0.0447
 2486W        W19333  14.952  18.400   4.088  0.1520 -0.0760  0.0747
 2487W        W19334  12.932  12.879   2.653 -0.4513 -0.3373  0.0351
 2488W        W19335   8.012   0.448  11.853  0.0133  0.1058 -0.0147
 2489W        W19336  11.075   0.336  10.114  0.0369  0.0790 -0.2651
 2490W        W19337  11.725  16.173  12.768  0.2187 -0.0153  0.1341
 2491W        W19338   3.107  10.746   4.248  0.2649  0.0083 -0.1997
 2492W        W19339  10.204   7.926  12.001 -0.0208 -0.0564  0.2109
 2493W        W19340   0.471  10.903  12.975  0.2672  0.0635  0.2883
 2494W        W19341  11.976   0.567   1.933  0.0708 -0.0481 -0.3632
 2495W        W19342  11.955  13.218  12.775 -0.2116 -0.0195  0.2413
 2496W        W19343  16.216  10.809   2.901 -0.2194  0.4826  0.0429
 2497W        W19344   5.034  15.068  10.864  0.1325  0.2267 -0.2882
 2498W        W19345   0.213  12.963  10.743 -0.1015  0.2699 -0.0408
 2499W        W19346   1.482   0.874   1.348  0.1850  0.0966  0.1964
 2500W        W19347  15.675  13.398   2.215 -0.1570  0.1803  0.0095
 2501W        W19348  16.967   7.462   2.742  0.0285 -0.1679 -0.1842
 2502W        W19349   7.247  18.758   0.214  0.0705  0.0412  0.1172
 2503W        W19350  10.324   9.007  12.891  0.1479 -0.2695  0.1286
 2504W        W19351  17.938  13.918   4.143  0.2326 -0.0729  0.1628
 2505W        W19352   6.078   9.543  13.873  0.0838  0.0477 -0.2016
 2506W        W19353  11.199  16.365   0.074 -0.1825 -0.0052  0.1347
 2507W        W19354  17.121  12.949   3.564 -0.0662 -0.3644  0.1849
 2508W        W19355  10.048  13.393   0.610  0.0787  0.1638 -0.0733
 2509W        W19356   5.898   6.191   2.713 -0.4234  0.2245 -0.0808
 2510W        W19357   8.899  17.101  12.935 -0.1263 -0.1426 -0.2046
 2511W        W19358   9.064  14.376  12.843 -0.1338 -0.3202 -0.2067
 2512W        W19359  15.996  17.980   4.258 -0.0529 -0.3059 -0.2140
 2513W        W19360  11.867   1.618  11.803 -0.0498  0.0621  0.0083
 2514W        W19361   9.565   8.960   4.666  0.3052  0.4028  0.1262
 2515W        W19362  16.858   2.596  11.717 -0.1047 -0.1673  0.1718
 2516W        W19363  18.733  11.425   3.772  0.1396 -0.2053  0.3303
 2517W        W19364   8.717   4.989   2.853  0.3717 -0.0626 -0.1127
 2518W        W19365   8.480   1.949   0.037 -0.2439 -0.0888 -0.0040
 2519W        W19366   5.944   8.466  12.418 -0.0777  0.0642 -0.1735
 2520W        W19367  14.200   9.329  11.533 -0.0232 -0.1612  0.0691
 2521W        W19368  19.145  15.955  13.133 -0.1392 -0.1217  0.2437
 2522W        W19369   4.415   3.239  13.812  0.2015 -0.0382  0.1389
 2523W        W19370  17.148  16.699   5.164 -0.3238  0.1079  0.1147
 2524W        W19371   0.604   2.694   1.005  0.0834  0.0309  0.1680
 2525W        W19372   3.023   3.402   3.383  0.0479 -0.2055 -0.1566
 2526W        W19373   7.325   5.283  10.966 -0.1867 -0.0405  0.2494
 2527W        W19374  18.088   2.084  14.150 -0.1745 -0.1891  0.1178
 2528W        W19375  12.272   2.581   9.941  0.0663  0.1622 -0.1364
 2529W        W19376   2.895  12.138   0.337 -0.0784 -0.2440 -0.1489
 2530W        W19377   6.823   4.509   0.960  0.3019 -0.0115  0.1131
 2531W        W19378  19.229  15.432  12.965  0.0008  0.3688  0.1935
 2532W        W19379   7.931  16.326   2.123 -0.5778  0.0896  0.1708
 2533W        W19380  17.327  13.983  14.013 -0.0940  0.4705 -0.0436
 2534W        W19381  10.961  18.615   5.005 -0.5317 -0.1074 -0.0631
 2535W        W19382   4.324   1.859  12.322 -0.1360 -0.2381 -0.0443
 2536W        W19383  10.029  14.247   2.319  0.1424 -0.2152 -0.0639
 2537W        W19384   8.636  13.155  11.411 -0.1052 -0.3752  0.0726
 2538W        W19385   1.317   0.409   4.031 -0.1644  0.1669 -0.0265
 2539W        W19386  18.298  18.107  12.366  0.0728 -0.2602 -0.1593
 2540W        W19387  17.005   1.678  10.922  0.0013  0.1537 -0.0561
 2541W        W19388  15.768  10.896   3.514 -0.0986  0.0532 -0.0811
 2542W        W19389  17.089  13.129  13.496  0.1262  0.0798  0.0359
 2543W        W19390   4.786  17.814   0.746 -0.1746  0.0421 -0.2893
 2544W        W19391  16.606  15.570   4.364 -0.0981 -0.1202 -0.1899
 2545W        W19392   4.316  17.828   2.049 -0.0198  0.1350 -0.0194
 2546W        W19393   5.321   9.758   2.410 -0.0731  0.2231 -0.0339
 2547W        W19394  18.127  16.655   3.022  0.0688  0.2933  0.4641
 2548W        W19395  16.277   0.097   4.900  0.5562 -0.2283 -0.2329
 2549W        W19396   7.240  12.355  12.366 -0.0700 -0.2155 -0.0534
 2550W        W19397  13.956  13.434  11.845  0.1099 -0.1888 -0.0452
 2551W        W19398   2.857   5.791   1.062 -0.2170 -0.0208 -0.0735
 2552W        W19399   6.268   7.256  11.880 -0.0103 -0.0359 -0.0395
 2553W        W19400   5.573   9.310   2.668 -0.2030  0.0558 -0.2922
 2554W        W19401   9.157   5.065   3.115 -0.1071 -0.4387 -0.1571
 2555W        W19402   8.091   1.523  14.836  0.0128  0.1040  0.0434
 2556W        W19403  11.891   4.959  14.942 -0.0904 -0.2266 -0.0264
 2557W        W19404   6.938   9.958   0.167  0.0194 -0.0123  0.3934
 2558W        W19405   4.406   0.799   0.523  0.0947  0.2936 -0.4446
 2559W        W19406   2.131  10.532   0.106  0.3238  0.2046  0.1827
 2560W        W19407  17.607   1.631  10.361  0.1405  0.1480  0.2496
 2561W        W19408   6.330   4.252  10.645  0.1214 -0.2790 -0.0287
 2562W        W19409  15.806  18.722   4.521  0.1193 -0.2944  0.0516
 2563W        W19410  10.326  17.157   2.493 -0.0654 -0.0040 -0.2672
 2564W        W19411   3.879   3.143   3.516 -0.3108  0.0500 -0.1826
 2565W        W19412  10.996  17.004  10.781  0.2910  0.3233 -0.0276
 2566W        W19413  15.303   0.864  12.246 -0.3894 -0.0587  0.1245
 2567W        W19414  13.228  14.933   0.398 -0.2583  0.2946  0.1315
 2568W        W19415  16.818   8.624   0.911 -0.1961  0.1345  0.1264
 2569W        W19416  14.453   1.472  11.728  0.1868 -0.1099  0.1657
 2570W        W19417   5.195  12.835  13.458 -0.1253  0.2716 -0.0175
 2571W        W19418   0.562   8.014   0.328 -0.1223  0.2971 -0.0292
 2572W        W19419  17.519   9.405   1.100 -0.4620 -0.0178 -0.4529
 2573W        W19420   2.350   3.321  12.530  0.0494  0.0015  0.1828
 2574W        W19421   3.527  17.964  11.830 -0.1685  0.1785 -0.0368
 2575W        W19422   5.155   2.249  11.190  0.0292 -0.2114  0.1017
 2576W        W19423   3.424  14.009   3.183 -0.1021  0.1606 -0.1806
 2577W        W19424   7.904  19.233   2.333  0.0386 -0.0231 -0.0098
 2578W        W19425  10.844  16.285  11.302  0.1986  0.0176  0.2185
 2579W        W19426  18.717  12.394  10.524  0.1165  0.0756 -0.0602
 2580W        W19427   1.851  18.275  13.525  0.2368 -0.1956  0.3512
 2581W        W19428   7.987  11.054  13.195 -0.5432 -0.0459  0.4670
 2582W        W19429   4.685   5.413   0.439 -0.0775 -0.2078 -0.0656
 2583W        W19430   1.853   3.957   0.526  0.3118 -0.4181  0.0074
 2584W        W19431  10.980  17.195   4.918 -0.2971 -0.0489 -0.0400
 2585W        W19432  12.265  10.818  11.879 -0.0252 -0.3754 -0.0748
 2586W        W19433  14.709  13.491  11.779 -0.3179  0.1101  0.2124
 2587W        W19434   8.796  12.533  10.826 -0.2024 -0.1109  0.2984
 2588W        W19435   2.955   3.250   4.656  0.0532 -0.2669  0.1894
 2589W        W19436   8.255   0.244  14.660 -0.0230  0.0911  0.0007
 2590W        W19437  10.110  15.576   4.427 -0.1834  0.1275 -0.0079
 2591W        W19438  13.083   0.289   0.003  0.4275 -0.0571  0.2184
 2592W        W19439   3.135  17.608  10.790 -0.1646  0.4558  0.3096
 2593W        W19440  15.670  18.166  11.931 -0.1296 -0.1312  0.1303
 2594W        W19441  11.375  11.955   3.958  0.2367 -0.0943 -0.0377
 2595W        W19442   3.357   6.265   3.791 -0.2872  0.0991 -0.0895
 2596W        W19443   7.527  14.760   4.025  0.0167 -0.5194 -0.3042
 2597W        W19444  17.001  12.955  14.540  0.0922 -0.0728 -0.0120
 2598W        W19445  15.323  12.796  13.575 -0.2654 -0.2475  0.2737
 2599W        W19446  16.375  13.645   5.758  0.0478  0.0373 -0.0867
 2600W        W19447  15.746   1.886  11.178  0.1054 -0.0598  0.1795
 2601W        W19448   2.655   8.457  11.577  0.0613  0.3211 -0.2713
 2602W        W19449   1.295   0.873  12.861 -0.1287 -0.0822  0.1180
 2603W        W19450   9.458  10.798  10.527 -0.0185  0.3865 -0.1012
 2604W        W19451  17.291   7.216   0.006  0.0599 -0.0226  0.2493
 2605W        W19452  14.174  11.948  12.394 -0.0734  0.1721  0.1489
 2606W        W19453  14.139  12.212   1.065 -0.2254 -0.0089 -0.3027
 2607W        W19454  16.666  11.123   0.129 -0.0969  0.0253 -0.4673
 2608W        W19455   1.199   9.355   3.192 -0.2429 -0.0492  0.2470
 2609W        W19456  17.569  13.111   4.519  0.0045 -0.0459  0.1502
 2610W        W19457   1.844  15.843   3.135  0.1656  0.2538  0.2059
 2611W        W19458   9.059   6.139  13.805 -0.1028  0.1677  0.1785
 2612W        W19459  11.898   1.297   3.438 -0.1050 -0.3661  0.1724
 2613W        W19460  10.601   8.893   2.408  0.0532  0.1143 -0.0258
 2614W        W19461  15.578  13.679  11.986  0.0902 -0.0623  0.1608
 2615W        W19462   7.036  12.222  13.913  0.0125  0.0273  0.1706
 2616W        W19463  18.984  17.251   3.905  0.5082 -0.0433 -0.1156
 2617W        W19464  11.176  11.866  14.160 -0.0442  0.1464 -0.1673
 2618W        W19465   1.278   2.718  14.764  0.2735  0.2170  0.0108
 2619W        W19466   5.713   6.915   9.579  0.2829  0.2207  0.0533
 2620W        W19467   8.289   7.424   1.160  0.0533 -0.0886  0.0373
 2621W        W19468   0.796  10.195   0.520 -0.2482 -0.1372  0.0900
 2622W        W19469   5.036  16.190  11.835  0.0146 -0.2646 -0.0094
 2623W        W19470   6.251  13.586  13.695 -0.0816 -0.0389  0.3225
 2624W        W19471   4.280  18.201   2.764 -0.3733 -0.1848  0.0397
 2625W        W19472  11.041  11.784   4.317  0.2794 -0.2142  0.3179
 2626W        W19473  15.303  11.098  13.273  0.0734  0.1092  0.2178
 2627W        W19474   5.454   1.619   3.591  0.0793 -0.0579  0.3506
 2628W        W19475  14.999   0.602   2.495  0.1683 -0.0133  0.3095
 2629W        W19476  14.409   7.437  11.749  0.2768  0.2444  0.2227
 2630W        W19477   7.001  18.863  11.260 -0.0636  0.1265 -0.4855
 2631W        W19478   0.228   0.804   5.101 -0.1634  0.0520  0.0557
 2632W        W19479   1.226   0.331   1.958 -0.2598  0.1407 -0.0644
 2633W        W19480   8.525  17.361   0.633  0.0356  0.1868  0.2673
 2634W        W19481  13.750  14.386  15.020  0.4292 -0.0155 -0.2694
 2635W        W19482   6.848  17.692   3.428  0.2192 -0.3486 -0.2849
 2636W        W19483   4.227   9.713  10.916  0.2881 -0.3946 -0.1075
 2637W        W19484  11.484   0.334  12.421 -0.0328 -0.0635  0.2853
 2638W        W19485   3.356   9.523   5.301 -0.4031  0.1131 -0.0809
 2639W        W19486   6.260  18.317   2.905 -0.1560  0.1718 -0.0697
 2640W        W19487  17.309  17.295   1.053 -0.1138  0.1052 -0.1097
 2641W        W19488  15.930  18.101   2.493  0.0588 -0.0941 -0.3121
 2642W        W19489   5.158  14.977   0.330  0.0877  0.0516  0.0080
 2643W        W19490   3.584  17.052  12.394  0.1560  0.2723  0.1758
 2644W        W19491   4.537   0.760   4.142 -0.1403 -0.1417  0.0074
 2645W        W19492   4.562   8.227  14.106  0.3773  0.2388 -0.2190
 2646W        W19493   7.620   5.549   0.850  0.0504  0.2390  0.0579
 2647W        W19494  10.537  13.438   4.402  0.4327 -0.2682 -0.0387
 2648W        W19495  11.594   8.108  14.100 -0.3432  0.3402  0.2407
 2649W        W19496  11.196   7.575   3.934 -0.3280 -0.2116  0.1935
 2650W        W19497   4.944  17.275   0.633 -0.1149 -0.1165  0.1100
 2651W        W19498   6.894  14.640  14.670  0.0686  0.1235 -0.0808
 2652W        W19499   6.162   0.569   5.003 -0.0764 -0.0884  0.1578
 2653W        W19500  13.807  17.051  12.276 -0.3648  0.0433 -0.0545
 2654W        W19501  17.067  12.164   2.558  0.2293 -0.0294  0.1242
 2655W        W19502  12.560   8.204   0.462  0.2421 -0.3717 -0.0151
 2656W        W19503   2.274  15.303  12.334  0.1995  0.0204  0.2215
 2657W        W19504   4.934   1.016   3.117  0.0645 -0.0890 -0.0525
 2658W        W19505   0.620   6.507  12.914  0.4353  0.3516 -0.2474
 2659W        W19506   0.906  18.330  11.200  0.3583 -0.0102  0.1130
 2660W        W19507   8.719   0.607   2.002 -0.1805  0.1518 -0.0799
 2661W        W19508  17.740   7.037  14.803  0.0002 -0.0922  0.1052
 2662W        W19509   7.309   8.870  10.105 -0.2580 -0.2424 -0.3864
 2663W        W19510  12.846  15.659  10.667 -0.0346 -0.3984  0.3292
 2664W        W19511   8.353   6.287  13.061 -0.0977 -0.0668  0.1557
 2665W        W19512   6.986   7.870   3.320 -0.0387 -0.3967  0.0937
 2666W        W19513   8.250  10.943  11.938  0.2298 -0.0413 -0.0620
 2667W        W19514  18.611   9.715   1.781 -0.0570  0.0165  0.2920
 2668W        W19515   1.078  15.272  14.402  0.2169  0.1315 -0.0441
 2669W        W19516  14.948   7.878   3.080 -0.1514  0.3138 -0.0249
 2670W        W19517   9.573   8.336   0.313 -0.0248  0.0253  0.1627
 2671W        W19518  17.243   1.748   5.052  0.1047 -0.1958 -0.2103
 2672W        W19519  17.588   0.992  13.959 -0.0395  0.0637  0.2867
 2673W        W19520   5.227  14.391   1.788 -0.0572 -0.1576 -0.0041
 2674W        W19521  12.191   2.749  11.782  0.0670  0.0333  0.0192
 2675W        W19522   2.681  18.178   4.873  0.0562 -0.1315 -0.1507
 2676W        W19523   1.288   8.818  13.033  0.0914 -0.0359  0.2785
 2677W        W19524  18.532  14.734   1.651 -0.0958 -0.0253 -0.3300
 2678W        W19525   5.397   3.459  11.033  0.1025  0.2450 -0.1223
 2679W        W19526  16.346  12.158  12.999  0.1532 -0.0374  0.2213
 2680W        W19527   2.539  16.024   3.419 -0.1721  0.0841 -0.3459
 2681W        W19528  12.597  11.889   5.237 -0.2483  0.0454  0.1564
 2682W        W19529   7.577   5.856   2.871  0.3612  0.1201  0.0547
 2683W        W19530  13.624   5.696   1.461 -0.1815  0.5782  0.0586
 2684W        W19531  13.943  11.855   1.515 -0.2833 -0.1304  0.0425
 2685W        W19532  14.608  14.386  13.060  0.1222  0.0102  0.2257
 2686W        W19533  10.792   2.864   3.594 -0.0503 -0.1287 -0.1782
 2687W        W19534  11.562   8.734   2.263  0.4794  0.0632  0.0182
 2688W        W19535  11.405   9.525  12.036  0.0972  0.1125  0.1564
 2689W        W19536  17.433  13.591  12.129 -0.0669 -0.2636  0.1771
 2690W        W19537   0.898   7.869  11.969 -0.1033  0.1007 -0.1294
 2691W        W19538   8.031  15.142  11.004  0.1987  0.0150 -0.4770
 2692W        W19539   7.966  10.273   0.420  0.0400 -0.0527  0.4406
 2693W        W19540   9.776   9.098  14.812 -0.0822 -0.0892 -0.1709
 2694W        W19541  11.265   4.416   4.765  0.4213 -0.0319 -0.1154
 2695W        W19542  18.753  15.277   3.133 -0.3466 -0.2069 -0.2688
 2696W        W19543  11.085   2.741  14.023  0.2011  0.0033 -0.3961
 2697W        W19544  19.227   1.269   3.350 -0.0942 -0.0174 -0.3340
 2698W        W19545   2.699  14.710   2.338 -0.1158 -0.3002  0.2177
 2699W        W19546   4.603  12.285   5.223  0.2889 -0.2486 -0.2216
 2700W        W19547   1.858   7.101  12.498  0.3947 -0.1524 -0.1928
 2701W        W19548   8.991  19.114   0.139  0.3133  0.1633 -0.2541
 2702W        W19549   0.578  11.599  12.154  0.0341  0.1132 -0.2518
 2703W        W19550   3.366   6.664  12.589  0.3397  0.0687 -0.2728
 2704W        W19551   6.273   9.752   2.875  0.0992 -0.0290  0.1073
 2705W        W19552  12.267  16.055  11.837  0.3484  0.2198  0.0956
 2706W        W19553  14.459   9.652   1.096  0.0052  0.0918  0.0647
 2707W        W19554   9.849  17.672  12.601 -0.1633 -0.0227  0.1385
 2708W        W19555  12.388   9.730  11.630  0.0562  0.0200  0.2667
 2709W        W19556  15.172   1.455  13.576  0.0247 -0.0819 -0.1414
 2710W        W19557  15.589   8.471   1.921 -0.0761  0.2188 -0.2028
 2711W        W19558  14.589   3.514  14.421  0.3986 -0.1038 -0.2324
 2712W        W19559   0.055  13.520   3.460 -0.4510  0.2739 -0.2760
 2713W        W19560   1.380  17.514  14.280 -0.0891 -0.1392 -0.2554
 2714W        W19561   7.244  12.208   5.238 -0.4591  0.1992  0.0547
 2715W        W19562  16.823  15.240   2.067  0.0031  0.0561 -0.1468
 2716W        W19563   2.609  18.975   2.313  0.0377 -0.0170 -0.0950
 2717W        W19564   0.002  16.980   0.796 -0.2087  0.1034 -0.1212
 2718W        W19565  13.416   0.594   5.507 -0.1203  0.2081  0.4195
 2719W        W19566   6.284   8.780   4.649 -0.2456  0.0443 -0.0190
 2720W        W19567   5.901   8.728  11.560 -0.1931  0.1262  0.1304
 2721W        W19568   9.705   7.914  12.791 -0.0120 -0.0703 -0.0111
 2722W        W19569  18.216  18.358   4.253 -0.4140  0.1887 -0.0313
 2723W        W19570   5.012   7.058   1.382 -0.3174  0.2773  0.0015
 2724W        W19571  18.869  16.090   1.739 -0.0195 -0.1689  0.0373
 2725W        W19572  12.767  16.785   1.366  0.1977  0.1535  0.1381
 2726W        W19573  12.593  15.138   5.565 -0.4374  0.1475 -0.3382
 2727W        W19574  12.390   9.063  10.131 -0.4195  0.0647  0.2401
 2728W        W19575  17.059   0.280   0.809  0.0010  0.5184 -0.0285
 2729W        W19576   4.267  14.314  11.264  0.1151 -0.0967  0.0366
 2730W        W19577  10.904  11.830   9.475 -0.0203 -0.0468 -0.0011
 2731W        W19578  11.147  12.418   1.807  0.0512  0.0410 -0.0498
 2732W        W19579   2.450  12.589   2.582  0.0417  0.0295 -0.0764
 2733W        W19580  17.919   1.792  13.432 -0.3300 -0.1136  0.0174
 2734W        W19581  17.874  18.718  13.740 -0.0831  0.1827  0.2280
 2735W        W19582   2.645  18.679   4.836 -0.0241 -0.0156 -0.2437
 2736W        W19583   6.991  15.678   3.082  0.0784 -0.2062  0.1647
 2737W        W19584  12.880  18.535  11.410 -0.0099  0.0555 -0.0753
 2738W        W19585  10.304   5.404   0.478  0.2635 -0.1790  0.0224
 2739W        W19586   3.208  18.781   1.744  0.1603 -0.0613  0.1418
 2740W        W19587  10.993   7.664   1.269  0.0427  0.0664  0.0273
 2741W        W19588  15.206  13.146  12.988  0.2919  0.0647  0.1097
 2742W        W19589   2.495   3.442   3.756  0.4241  0.0523  0.2777
 2743W        W19590  14.323   6.535   2.133 -0.1179  0.0087  0.1889
 2744W        W19591   7.834   3.198   4.939 -0.1145 -0.0608  0.0681
 2745W        W19592  17.966   9.201  14.736  0.0657 -0.1031  0.2220
 2746W        W19593   5.306   4.245   5.171  0.2267  0.1214 -0.0048
 2747W        W19594   4.555   1.686  11.243 -0.0468  0.1141 -0.1312
 2748W        W19595  16.676  11.581  13.503  0.0603 -0.2268  0.3153
 2749W        W19596   9.890   9.865  10.110  0.0991 -0.2282 -0.1580
 2750W        W19597   9.796   7.236  10.539 -0.0092  0.2338 -0.0191
 2751W        W19598  13.550   1.414   2.570  0.2837 -0.0592  0.0320
 2752W        W19599   6.431   8.781  10.418  0.3944  0.1580  0.0575
 2753W        W19600   0.713   8.619   1.432  0.0141 -0.0476  0.1233
 2754W        W19601   8.126  15.574   4.192  0.2423 -0.0284  0.0045
 2755W        W19602   2.526  10.951  10.797  0.0430 -0.0928 -0.2218
 2756W        W19603  14.324   1.584  13.619 -0.1389  0.0258  0.2410
 2757W        W19604   7.730   1.078  12.394 -0.0100 -0.0520 -0.1620
 2758W        W19605   0.978  17.417   1.562 -0.1346  0.3511  0.0702
 2759W        W19606   4.030   8.235   1.926 -0.0207 -0.0858  0.3012
 2760W        W19607   5.644  13.413  13.552  0.0880  0.3778  0.3237
 2761W        W19608  10.653   2.357  14.510 -0.1273  0.0426 -0.1189
 2762W        W19609   6.889  15.976  10.853 -0.1083 -0.2981  0.4194
 2763W        W19610   4.467   6.062   2.108 -0.1914 -0.2954  0.1580
 2764W        W19611  16.120   4.624   3.029  0.2540 -0.1630  0.1408
 2765W        W19612  16.208   1.201   2.606 -0.1657 -0.1786  0.1512
 2766W        W19613  16.812  13.091   3.928 -0.0216  0.0830 -0.1251
 2767W        W19614   5.463  18.364   0.159  0.1072  0.3776  0.0044
 2768W        W19615  11.199   0.836   2.142 -0.1158  0.1141 -0.1021
 2769W        W19616   2.332   3.028   2.267  0.0312  0.1062  0.2207
 2770W        W19617  18.309  14.912  11.510 -0.0433  0.0498  0.3776
 2771W        W19618   1.491  18.851  10.589 -0.2196 -0.0548  0.3686
 2772W        W19619   3.152   9.431  10.683 -0.2858 -0.0781  0.0938
 2773W        W19620  18.588   3.000  13.377  0.0605  0.0617  0.1616
 2774W        W19621   9.282   6.541  13.515  0.1002  0.1440 -0.0888
 2775W        W19622  10.380   8.355   1.907  0.0938  0.1423 -0.2115
 2776W        W19623  10.159   7.908  14.115  0.0961  0.0240  0.0511
 2777W        W19624   3.146   8.890  10.600 -0.1399 -0.0164  0.0874
 2778W        W19625   3.268   4.683   1.348  0.2399  0.0252  0.2482
 2779W        W19626   4.499  10.241  14.950  0.2696 -0.1650 -0.2799
 2780W        W19627  11.670  18.138   0.567  0.0660  0.0770 -0.1553
 2781W        W19628   7.775  14.865   3.176 -0.0075  0.2904  0.0808
 2782W        W19629  11.864   0.582  11.290  0.1797  0.0009  0.5226
 2783W        W19630   8.899   2.708   3.510 -0.2820  0.0063  0.0683
 2784W        W19631  15.603  14.043   2.331  0.1202 -0.0243 -0.2548
 2785W        W19632  14.913  18.103   0.306  0.1908  0.2090  0.1499
 2786W        W19633   2.855  17.824  11.123  0.1980  0.0380  0.1058
 2787W        W19634  15.471  14.411   0.342 -0.0109 -0.0714  0.0217
 2788W        W19635  14.340  18.147  14.104  0.3932 -0.0486 -0.0636
 2789W        W19636   2.265  18.808   1.945 -0.2548 -0.1919 -0.0617
 2790W        W19637  12.795  18.391  13.094  0.0031 -0.4290  0.0794
 2791W        W19638   3.608   4.020   9.769  0.0506 -0.0282 -0.0205
 2792W        W19639   1.959  12.252  14.883  0.1928 -0.2359  0.2622
 2793W        W19640  16.940  10.540   5.531 -0.0737  0.0309 -0.1111
 2794W        W19641  14.046   4.190  12.299 -0.0313 -0.2431 -0.1474
 2795W        W19642  18.206  17.626  11.598 -0.1202 -0.0641  0.4229
 2796W        W19643  19.086   4.863   4.323 -0.0957  0.1872 -0.2289
 2797W        W19644   5.460   9.556   4.501  0.2215 -0.1803  0.0255
 2798W        W19645  15.498   9.652  13.286  0.0749  0.1755 -0.2658
 2799W        W19646   4.430  10.257   1.406  0.1986 -0.0406 -0.0378
 2800W        W19647   9.372   5.333  11.086 -0.1693  0.2620  0.3495
 2801W        W19648   8.009  13.128   2.862 -0.2486 -0.0365 -0.1711
 2802W        W19649  11.055  13.767   2.723  0.0527 -0.1457  0.0752
 2803W        W19650  14.992   6.777   0.035 -0.0780  0.0174 -0.1042
 2804W        W19651   4.098  14.692   4.975  0.2158  0.0231 -0.1141
 2805W        W19652   0.858   4.273  12.151  0.0983  0.1893  0.2874
 2806W        W19653  13.453   6.359  11.427 -0.0201  0.3135 -0.1812
 2807W        W19654  17.232  15.301  14.457  0.3144 -0.0312 -0.3431
 2808W        W19655   2.479  19.180   4.824 -0.2140 -0.0730  0.0890
 2809W        W19656  10.824  16.544   0.920  0.0698 -0.0014 -0.2733
 2810W        W19657  13.424  10.006  14.034  0.1898 -0.0742  0.2958
 2811W        W19658   3.519  12.341   5.097  0.1047  0.3131 -0.1116
 2812W        W19659  18.166   3.649  10.840 -0.1068  0.3447 -0.0326
 2813W        W19660   5.099  10.243  11.930 -0.3310  0.1256 -0.0794
 2814W        W19661   8.489  15.352  11.918 -0.0087  0.0813 -0.2974
 2815W        W19662   8.023   7.079   4.194 -0.3815 -0.1732  0.0747
 2816W        W19663  12.069   1.587  14.607 -0.1836  0.1149 -0.0656
 2817W        W19664   0.743  14.369  14.203 -0.0671 -0.0616  0.1766
 2818W        W19665  15.825   7.957  14.583 -0.0743  0.0071 -0.0775
 2819W        W19666   6.704   6.489  10.790  0.1959 -0.0966 -0.1582
 2820W        W19667  18.108  18.188   2.518  0.0623 -0.0925  0.0609
 2821W        W19668  13.733  18.816   1.238 -0.0551  0.3805 -0.2868
 2822W        W19669   4.020   3.278  13.502 -0.0766  0.3798  0.1911
 2823W        W19670   7.841   9.010  13.221  0.1779 -0.1854  0.0142
 2824W        W19671  15.639  18.954   3.843  0.0376  0.0356 -0.0454
 2825W        W19672  16.351  15.361  14.087 -0.1647 -0.0976  0.2031
 2826W        W19673  18.326   5.795  14.811 -0.3606  0.0135  0.1450
 2827W        W19674   9.721  11.061  14.636 -0.0153 -0.4846 -0.1608
 2828W        W19675  16.845   6.153   2.636  0.1634 -0.1344  0.0621
 2829W        W19676  12.310  13.624  11.461  0.0531 -0.0947 -0.1466
 2830W        W19677   3.594  18.914   2.166 -0.0116 -0.1821  0.1685
 2831W        W19678   3.375   3.916   0.980 -0.1942 -0.1044  0.2032
 2832W        W19679  16.053   7.541  14.316  0.3210 -0.2697  0.0477
 2833W        W19680   9.599  14.930   4.548  0.2091 -0.2144  0.0781
 2834W        W19681  14.068  18.565  12.732 -0.1039  0.1579  0.0624
 2835W        W19682   5.925  10.370  11.244 -0.0586 -0.2919 -0.0389
 2836W        W19683  15.109   2.410   2.552 -0.2072 -0.4583  0.0214
 2837W        W19684  15.299  14.418  12.445 -0.2043 -0.0976  0.1174
 2838W        W19685  12.239   2.689  12.986  0.2776  0.0009 -0.0410
 2839W        W19686   6.703  10.457   1.370 -0.0307 -0.1606 -0.0761
 2840W        W19687   4.005  18.876  12.653 -0.0831 -0.0918 -0.0131
 2841W        W19688  11.134  13.175  11.615  0.0136  0.1476 -0.1689
 2842W        W19689   6.801   8.436   9.522  0.1145  0.2052 -0.3502
 2843W        W19690   4.438   1.043   3.305 -0.1093 -0.3786  0.1685
 2844W        W19691   6.610   8.976   0.108  0.4393 -0.1120  0.1828
 2845W        W19692  15.189  13.094   2.146  0.0641  0.0063  0.1495
 2846W        W19693  15.784   3.182   2.417  0.4240 -0.2175 -0.2472
 2847W        W19694   5.399   8.380   1.540 -0.0987  0.1869 -0.1729
 2848W        W19695   1.507  12.324   1.393  0.1189 -0.1287  0.0465
 2849W        W19696  15.919  16.249   1.801  0.2022  0.0251 -0.1345
 2850W        W19697  18.746  11.170   2.497 -0.0749 -0.0387  0.0929
 2851W        W19698  10.520  15.112   2.352  0.1549 -0.1845  0.0028
 2852W        W19699  14.934  16.884  12.867 -0.0316  0.0446 -0.0762
 2853W        W19700  18.767  18.817   2.640  0.1409 -0.1571  0.1604
 2854W        W19701   4.265   9.367  11.395 -0.2456  0.0608 -0.0980
 2855W        W19702   5.449   7.198  10.497 -0.2428 -0.1905 -0.1026
 2856W        W19703  10.553  16.829   1.177  0.0184 -0.3151 -0.2982
 2857W        W19704  13.147  18.372   5.703  0.0883 -0.1756  0.1818
 2858W        W19705   9.843  11.889   0.935 -0.1069 -0.0265 -0.0600
 2859W        W19706   8.029   6.399  10.468  0.2473  0.0474  0.1514
 2860W        W19707   9.878  12.789  14.646 -0.1781 -0.1380 -0.0201
 2861W        W19708   0.818   7.656   0.801 -0.1342  0.0151  0.0963
 2862W        W19709  12.223   4.746  13.713  0.2909  0.1905 -0.1051
 2863W        W19710   1.788  18.521  12.696 -0.0924 -0.3407  0.4933
 2864W        W19711  15.958   8.404  14.393  0.1466 -0.1432  0.2010
 2865W        W19712   7.583  18.413   0.354 -0.0890  0.2071 -0.1381
 2866W        W19713   0.027   0.275  11.670 -0.0890 -0.2526  0.3381
 2867W        W19714  19.168   8.617   4.692  0.1333 -0.2522  0.2193
 2868W        W19715  16.900   7.956   2.674 -0.2073  0.0793  0.2210
 2869W        W19716   1.930  13.085   1.482 -0.0349 -0.2538  0.0081
 2870W        W19717  14.409  10.938   5.143 -0.2762 -0.4602  0.2353
 2871W        W19718   6.870  18.921   4.832 -0.1622 -0.0937 -0.0785
 2872W        W19719   4.627  13.853  12.584 -0.1695  0.0590  0.0256
 2873W        W19720  17.645  13.645  13.775  0.2572  0.3117 -0.1255
 2874W        W19721  12.794   7.237   0.484  0.2025  0.0046 -0.0818
 2875W        W19722   7.580  12.917   1.072 -0.2095  0.2357  0.0298
 2876W        W19723   1.742   5.040   4.993 -0.1461 -0.0240 -0.0973
 2877W        W19724   2.184  14.759   4.630 -0.1668  0.1636 -0.0407
 2878W        W19725  14.885   4.053   1.134 -0.3296 -0.0498 -0.0162
 2879W        W19726  13.197   2.185  13.777  0.0088  0.1789 -0.1239
 2880W        W19727  16.025  12.814  10.948 -0.1130 -0.0580  0.3035
 2881W        W19728   6.775   3.609   1.775  0.0053 -0.0704  0.2955
 2882W        W19729   3.790  15.816   4.795 -0.2557  0.0575  0.3801
 2883W        W19730  15.628  12.379  12.800  0.1533  0.5022 -0.4789
 2884W        W19731  12.883   0.244   4.763 -0.0155 -0.1276  0.3657
 2885W        W19732  17.705   9.588   2.853  0.1184 -0.3605  0.0221
 2886W        W19733   2.387  11.220  12.592 -0.0097  0.0446 -0.0640
 2887W        W19734  16.065  18.488   5.812 -0.0333  0.0174 -0.1232
 2888W        W19735  14.759   5.468   1.500  0.1752 -0.0278 -0.1346
 2889W        W19736   9.227   1.387   0.185  0.2061 -0.0096 -0.1127
 2890W        W19737   5.637   9.611  13.617  0.0052 -0.1172  0.1437
 2891W        W19738  11.630   6.219  13.211 -0.0701  0.0469 -0.1257
 2892W        W19739   2.675  18.969  10.927  0.0247 -0.0231 -0.0306
 2893W        W19740  17.547  10.050   1.041 -0.0725 -0.0496 -0.2824
 2894W        W19741   7.154   0.294   0.002 -0.2176  0.2074 -0.0692
 2895W        W19742   3.831  16.001  12.720  0.1904 -0.0970  0.1495
 2896W        W19743   4.484   7.126  14.367  0.0777  0.1960 -0.2181
 2897W        W19744  16.651   0.860   2.921  0.2014  0.2033 -0.1292
 2898W        W19745  12.190   7.445  13.898  0.4813  0.0528  0.0946
 2899W        W19746   8.245   0.063   4.690  0.1992  0.0930  0.0445
 2900W        W19747   5.778   9.017   2.265 -0.0087 -0.1777  0.3313
 2901W        W19748  19.231   4.072   1.419  0.3095 -0.3844  0.1357
 2902W        W19749  12.748  11.881   4.632 -0.1353 -0.1533  0.1747
 2903W        W19750  16.105   2.499  10.662 -0.2271  0.2293  0.1285
 2904W        W19751   1.195   2.156  13.631 -0.1681  0.0777 -0.1225
 2905W        W19752  14.849  13.345   1.222  0.0859 -0.3060  0.2521
 2906W        W19753   6.898   8.505  10.213  0.0700  0.1349  0.3285
 2907W        W19754   4.382  11.972  12.722 -0.0218  0.0613  0.1508
 2908W        W19755  11.582   7.288   4.157  0.2989 -0.0812 -0.0683
 2909W        W19756   1.078   9.914   1.377 -0.2580 -0.0182 -0.0752
 2910W        W19757   5.080   0.813  14.241 -0.1451  0.2609  0.0233
 2911W        W19758  18.307   1.160   3.623  0.2991  0.0360  0.1157
 2912W        W19759  15.243  16.674  12.541 -0.1120  0.1852 -0.0833
 2913W        W19760   9.395   4.757  12.653  0.1968 -0.2163  0.0319
 2914W        W19761  16.033  17.295   3.781  0.2557 -0.1145 -0.0362
 2915W        W19762   2.586   6.917   4.102  0.2422  0.0051 -0.1665
 2916W        W19763  11.080  13.974  13.164  0.0767 -0.0141 -0.0235
 2917W        W19764   1.057  15.290  14.909  0.0559  0.2348 -0.0601
 2918W        W19765  10.102  10.526  11.171 -0.0493  0.1136 -0.2718
 2919W        W19766   2.798  13.906  14.615 -0.3297 -0.1206  0.3054
 2920W        W19767   4.134   7.351  14.096  0.0583  0.0067  0.0505
 2921W        W19768   1.577   0.839   3.370 -0.3240 -0.0503  0.1291
 2922W        W19769   7.785   8.367  14.001  0.0569  0.1141  0.0624
 2923W        W19770   6.628   2.822   0.125  0.0943 -0.2583 -0.1335
 2924W        W19771   9.476  15.121  10.734  0.0729  0.2023  0.0763
 2925W        W19772  16.608  18.349   2.885  0.1620 -0.0204 -0.0017
 2926W        W19773  11.547  11.545  14.023 -0.0042  0.2100 -0.0304
 2927W        W19774   4.514  18.500  10.713  0.0257 -0.0900 -0.1650
 2928W        W19775  11.805  16.251  14.998  0.0850  0.0998  0.1416
 2929W        W19776   7.440  17.987  11.195  0.0058  0.1541 -0.1158
 2930W        W19777   2.562  11.429   0.206  0.4517  0.0797  0.2159
 2931W        W19778  18.649  14.163   2.511  0.0407 -0.3605 -0.2908
 2932W        W19779   7.150   7.855  12.709  0.0001 -0.1117 -0.1731
 2933W        W19780   0.725   2.058   2.423 -0.2586  0.0606  0.2354
 2934W        W19781   5.781  18.414   4.222  0.1249 -0.2764  0.2093
 2935W        W19782  11.492  17.132   1.929  0.1820  0.2814  0.0254
 2936W        W19783   4.097  15.502  14.515 -0.0058 -0.1051 -0.2366
 2937W        W19784  17.553  14.012  13.487  0.0050  0.1056 -0.2803
 2938W        W19785   8.118  11.793   1.414  0.0328 -0.2314 -0.1364
 2939W        W19786   1.286  17.511   0.076 -0.0424 -0.0183 -0.1924
 2940W        W19787  12.208   8.950  12.763 -0.0441  0.1979 -0.1813
 2941W        W19788  12.964   3.749   0.531 -0.0204  0.0540  0.1105
 2942W        W19789  17.693   0.230  14.513 -0.0897 -0.1238 -0.1305
 2943W        W19790  18.337   8.512  11.976  0.0513 -0.3171 -0.0491
 2944W        W19791  12.541   3.172   5.220 -0.3548  0.1459 -0.1951
 2945W        W19792   8.604  15.640   2.159  0.0571 -0.0006  0.3321
 2946W        W19793   2.320   4.561   2.707  0.3128  0.0064  0.4731
 2947W        W19794  11.405   4.316   2.728  0.2880  0.1169 -0.1839
 2948W        W19795  16.779  12.676  12.374  0.0962  0.0004 -0.0850
 2949W        W19796  17.191  12.027   4.352 -0.2428  0.2013  0.2757
 2950W        W19797  14.736   0.143   2.263 -0.0997  0.1392 -0.0709
 2951W        W19798  10.431  12.444   3.965 -0.1410 -0.2189  0.3198
 2952W        W19799   5.538   8.493   2.534  0.2467  0.0605  0.1402
 2953W        W19800  11.426   8.646   3.559 -0.0205 -0.1120 -0.0015
 2954W        W19801  10.445   4.844   0.473  0.1107  0.0636  0.2935
 2955W        W19802  11.558   2.149   0.621  0.0818 -0.1714 -0.2662
 2956W        W19803   4.036   3.429   4.803  0.4844 -0.2423  0.1242
 2957W        W19804  18.268   4.249  12.127 -0.2637  0.2106 -0.0519
 2958W        W19805  10.280   7.243  14.820  0.0553 -0.3361  0.1189
 2959W        W19806  12.376  18.587   6.095  0.0702  0.1515 -0.4203
 2960W        W19807  10.068  12.042  12.053  0.1820  0.0199  0.2051
 2961W        W19808   1.314  11.364  10.701  0.0589  0.2538  0.0322
 2962W        W19809  15.032  10.052  10.756 -0.2742 -0.3071  0.3775
 2963W        W19810   0.898   4.975   0.524  0.0853 -0.1568  0.1253
 2964W        W19811  15.666  19.022   1.312  0.0896 -0.0358 -0.1628
 2965W        W19812   5.576   6.502  14.970  0.1248  0.0506 -0.0900
 2966W        W19813   7.909   8.313   3.327 -0.2021 -0.2728  0.1019
 2967W        W19814  12.337   7.858   5.418  0.2504 -0.2887 -0.0353
 2968W        W19815   6.311  15.014  13.479  0.3116  0.1594 -0.0160
 2969W        W19816   0.018   2.923  10.815 -0.1742  0.0076  0.0832
 2970W        W19817   6.592   6.816   0.686 -0.0804 -0.3298  0.2316
 2971W        W19818  16.987  16.703   1.612  0.1798  0.1084 -0.1281
 2972W        W19819   5.173   0.193  12.192 -0.3049  0.1091 -0.0742
 2973W        W19820  15.062   5.297   0.630  0.0832 -0.2844 -0.3719
 2974W        W19821  15.484  11.298  12.270 -0.0503 -0.2238 -0.0155
 2975W        W19822  11.047   0.573  14.892  0.3874 -0.2086 -0.3309
 2976W        W19823  13.748   0.590  14.275  0.0927 -0.0914  0.2364
 2977W        W19824   8.323  14.087   0.814 -0.1350  0.0816  0.1367
 2978W        W19825  11.002   1.052   5.646  0.0590  0.2118  0.1734
 2979W        W19826   0.756   5.637  13.222  0.0320  0.3066 -0.0411
 2980W        W19827   7.818   1.947  11.738  0.3362  0.1550 -0.2803
 2981W        W19828  14.939  11.443   0.155  0.0137 -0.2339 -0.0014
 2982W        W19829   3.679   8.626  12.819 -0.0023 -0.1256  0.2537
 2983W        W19830  12.806  11.590   4.206  0.0651  0.2092 -0.0131
 2984W        W19831  11.351  18.069   1.924 -0.1148 -0.1441 -0.0864
 2985W        W19832  16.051  18.777   4.081 -0.1803 -0.1428  0.0777
 2986W        W19833   0.662   5.873  14.554  0.2612 -0.2884 -0.2126
 2987W        W19834  14.762   6.505   0.634 -0.6211  0.1309  0.0628
 2988W        W19835   3.612   4.499  10.578 -0.3151 -0.3722  0.1073
 2989W        W19836  18.200   3.783  12.134 -0.0208  0.1465  0.0037
 2990W        W19837   5.702   2.495  11.971 -0.2470  0.2644  0.0271
 2991W        W19838  13.719  13.279  11.141 -0.1075 -0.2608  0.0782
 2992W        W19839   4.881   1.531  11.621  0.0445  0.2512  0.1817
 2993W        W19840   5.412  11.729   0.568 -0.0884  0.1746  0.2592
 2994W        W19841   1.270   9.324   4.566 -0.1101 -0.0784  0.0240
 2995W        W19842  16.905   7.054  12.741  0.0870  0.0700 -0.2450
 2996W        W19843  18.527  15.823  12.851 -0.1877 -0.0528  0.0179
 2997W        W19844  11.706   6.063  12.008 -0.2882 -0.0712 -0.2341
 2998W        W19845   9.935   4.915  10.885 -0.0780  0.0542 -0.1788
 2999W        W19846  11.849  15.885   4.372  0.1280  0.0549 -0.1628
 3000W        W19847   6.767  15.506   1.608 -0.1202 -0.1279  0.0992
 3001W        W19848   7.899   1.716  13.527 -0.0529  0.0896 -0.1915
 3002W        W19849  18.459   3.991   3.065  0.0420 -0.2153  0.2237
 3003W        W19850   9.802   6.213  13.004  0.1078  0.0004 -0.0856
 3004W        W19851   2.693   6.474  14.361  0.1269 -0.1508 -0.1806
 3005W        W19852  11.426  17.197   4.456  0.2678 -0.0475 -0.0539
 3006W        W19853   2.683  13.426  11.886  0.1364  0.0386 -0.2963
 3007W        W19854   5.573  13.205  10.622 -0.2041  0.1022  0.0214
 3008W        W19855   6.751  10.380  14.324  0.0709  0.0505 -0.3276
 3009W        W19856  18.851   5.188   0.061 -0.1277  0.1777  0.0007
 3010W        W19857  13.206   0.629   3.935 -0.2138  0.1728  0.3037
 3011W        W19858   3.667   9.349   2.710  0.1113  0.1245 -0.1864
 3012W        W19859   5.893   6.606  13.807  0.1282  0.0230  0.0545
 3013W        W19860  12.712   6.461  13.182  0.0712 -0.0803 -0.1270
 3014W        W19861   1.313   9.579   2.202  0.0570 -0.2674  0.0234
 3015W        W19862   8.549  14.259  11.241  0.0713 -0.1747  0.3803
 3016W        W19863  13.426  17.046  14.319  0.4718  0.3844 -0.3536
 3017W        W19864  16.148  13.008   3.237 -0.0604 -0.0485 -0.0682
 3018W        W19865   8.012   2.892   0.626  0.0958  0.1477  0.0981
 3019W        W19866  16.123   9.408  13.913 -0.0815  0.2021 -0.2436
 3020W        W19867  14.664  14.842   1.887  0.2370 -0.2412  0.3694
 3021W        W19868   4.659   9.070   2.878 -0.2354  0.0763 -0.1055
 3022W        W19869   4.959   4.660  13.369  0.0738  0.1394  0.3251
 3023W        W19870   5.633   6.546  14.490 -0.2081 -0.1469  0.0617
 3024W        W19871   5.520  18.618  12.444  0.0911 -0.0136  0.0040
 3025W        W19872  11.658  17.800  14.844 -0.0574  0.2030 -0.0705
 3026W        W19873  14.058   3.988  13.328  0.1244 -0.0932 -0.3210
 3027W        W19874   6.613  15.810   0.377 -0.1103 -0.0750  0.1167
 3028W        W19875  18.610   4.928  12.742 -0.2451 -0.2577 -0.2594
 3029W        W19876  13.584  11.048   2.428  0.0662  0.1323  0.1698
 3030W        W19877   7.311  11.605  14.459  0.1824 -0.1818 -0.0395
 3031W        W19878  17.006   4.770  12.062 -0.2969  0.0496  0.0952
 3032W        W19879   9.174   9.517   0.718 -0.3089  0.0833 -0.1390
 3033W        W19880  16.892  12.650   5.062 -0.1854 -0.1023  0.1646
 3034W        W19881  16.327  16.227   4.981 -0.0344 -0.0659 -0.0130
 3035W        W19882  18.648  11.238   4.217 -0.0444  0.0618  0.1114
 3036W        W19883  11.463   8.131   3.602  0.1585  0.2513  0.2334
 3037W        W19884   5.008  10.721  11.174  0.0757  0.2694 -0.3416
 3038W        W19885   8.812   6.495   4.029 -0.0170 -0.0533  0.1257
 3039W        W19886   1.947   4.195   9.720  0.2293 -0.1327  0.0639
 3040W        W19887  12.946   7.458  13.162  0.1237  0.3435 -0.1053
 3041W        W19888  15.551   5.412  14.411 -0.1867  0.0360  0.0970
 3042W        W19889   0.707   7.840   2.010 -0.0671  0.0178 -0.1010
 3043W        W19890   9.091  15.487   0.313  0.5424 -0.2835  0.1194
 3044W        W19891  13.446  16.774  12.442 -0.0474 -0.2719  0.3434
 3045W        W19892  15.831   4.559   0.459  0.0493  0.1335  0.1393
 3046W        W19893  15.716   0.164  14.674  0.0824 -0.5443 -0.1607
 3047W        W19894   5.231  18.157   3.626 -0.0130  0.0656  0.1062
 3048W        W19895  17.318  18.801   3.431  0.0189 -0.1671 -0.3466
 3049W        W19896   7.278  14.807  13.492 -0.0358  0.0925  0.3644
 3050W        W19897  18.511   0.184  11.239  0.3652 -0.0067 -0.2533
 3051W        W19898  19.229  15.509   3.776 -0.0567  0.2780 -0.0474
 3052W        W19899  13.280  13.537   0.495  0.0766 -0.1541 -0.1563
 3053W        W19900   2.394  10.493   1.998  0.0344  0.1851 -0.0472
 3054W        W19901   9.343  18.784   0.503  0.1478  0.0217  0.1347
 3055W        W19902  15.282   3.763  12.988 -0.1167  0.2491  0.0781
 3056W        W19903  16.303  17.648   3.369  0.0915 -0.0348 -0.0133
 3057W        W19904   1.959   9.955  14.515  0.1648 -0.0341  0.0685
 3058W        W19905  11.395  12.917  13.166 -0.0722  0.0218  0.1266
 3059W        W19906   5.941   0.788   0.427 -0.3267  0.2032  0.0071
 3060W        W19907   7.467   3.838   3.906 -0.1053  0.1922 -0.0044
 3061W        W19908   2.833  17.890   1.874 -0.0555 -0.0578 -0.1900
 3062W        W19909  13.954  17.295   1.737  0.2397  0.0645 -0.0629
 3063W        W19910  14.530  12.830  14.624  0.0835  0.1322 -0.0166
 3064W        W19911   0.515   3.863   3.610 -0.0639 -0.0710 -0.0459
 3065W        W19912   3.845  18.411   5.420  0.1196 -0.0369 -0.1671
 3066W        W19913   7.859   9.504   9.708 -0.0018  0.1047 -0.0862
 3067W        W19914  12.224  14.120   2.417  0.3533 -0.3153 -0.0397
 3068W        W19915  18.060  12.922  10.420  0.1052  0.2204  0.2372
 3069W        W19916   0.162   2.358   1.799  0.0087  0.0922  0.1308
 3070W        W19917   9.232  12.125   5.019 -0.0645 -0.0464 -0.3157
 3071W        W19918  15.104   5.309   2.452  0.2361  0.3661  0.2063
 3072W        W19919  14.728   1.722   0.420  0.0349  0.2212  0.2074
 3073W        W19920   3.071   9.500  13.588 -0.0413  0.1046 -0.1241
 3074W        W19921  16.339  16.108   4.399  0.5559  0.2105  0.2487
 3075W        W19922   0.169   1.457   4.138  0.2382 -0.0165 -0.0669
 3076W        W19923   2.396  15.309   0.330  0.0471  0.1736  0.6191
 3077W        W19924   4.356  14.110  14.393  0.1727  0.0959 -0.1337
 3078W        W19925  17.213  17.255  13.260 -0.2794 -0.1707  0.0759
 3079W        W19926   2.067   4.883  11.951 -0.2189 -0.0338  0.2212
 3080W        W19927   3.782  18.007   0.748  0.1166  0.0607 -0.0708
 3081W        W19928  17.596   9.177  14.375 -0.0837  0.0546  0.3433
 3082W        W19929   6.157   9.059  14.235  0.0383  0.0206 -0.0639
 3083W        W19930  18.555  18.735   4.262 -0.2287  0.1737  0.2344
 3084W        W19931   5.272   8.308   2.061 -0.2059 -0.3389 -0.4198
 3085W        W19932   7.167  17.231   4.023  0.1533  0.2577 -0.2578
 3086W        W19933   5.502  17.561   1.832  0.1378  0.2914  0.2570
 3087W        W19934  11.116   7.801   0.096 -0.0817  0.0071 -0.1218
 3088W        W19935  19.197  11.833  13.407 -0.0515  0.0680 -0.2615
 3089W        W19936   2.020   7.166   3.380 -0.1960  0.2401  0.3205
 3090W        W19937  19.125   2.337   1.431  0.1146 -0.3312 -0.0142
 3091W        W19938  14.381  18.747   3.473 -0.3453 -0.1322  0.1841
 3092W        W19939   0.651  10.167  12.552 -0.2079  0.0991  0.2256
 3093W        W19940   0.854   8.550   4.399 -0.0817  0.2155  0.0344
 3094W        W19941  16.507   0.518  11.935  0.2417 -0.0289 -0.2428
 3095W        W19942  14.944  15.824  14.056 -0.1906 -0.2016 -0.4198
 3096W        W19943   8.270   7.337   0.190 -0.5357 -0.1268 -0.0983
 3097W        W19944  14.681  15.638  12.098 -0.1154  0.4007 -0.0962
 3098W        W19945  19.121  11.533   1.974  0.1181 -0.0121 -0.3199
 3099W        W19946   0.965   1.949   0.431  0.0457  0.2812 -0.0373
 3100W        W19947  10.088   6.392  10.624  0.2166  0.0397  0.3203
 3101W        W19948   3.770   0.688  14.019 -0.0308 -0.1543 -0.0281
 3102W        W19949  10.405   2.124  10.885  0.0594  0.0073 -0.0521
 3103W        W19950  10.787   4.883  12.185  0.0649 -0.0442 -0.3752
 3104W        W19951   0.578   2.735   5.106 -0.0297 -0.0502 -0.2600
 3105W        W19952  18.960  18.762  14.583  0.2693  0.0557  0.1622
 3106W        W19953  15.260  15.439  12.546 -0.4446 -0.2185 -0.1729
 3107W        W19954   6.887   5.083  14.853  0.0986  0.0870 -0.1379
 3108W        W19955  17.191  15.369   1.203 -0.0671 -0.1081 -0.0178
 3109W        W19956  15.444   6.314  11.774  0.2814 -0.1343  0.2250
 3110W        W19957  16.606  15.575   3.436 -0.3958 -0.0786 -0.0865
 3111W        W19958  13.477   4.298  10.585  0.0507 -0.0162  0.0285
 3112W        W19959  11.581  11.318   5.207 -0.0166  0.0153  0.2722
 3113W        W19960   7.854  13.749   5.030 -0.1093  0.0669 -0.2815
 3114W        W19961   0.484  12.061  11.974  0.1470 -0.1132  0.0387
 3115W        W19962   9.603  13.179   2.992  0.2475 -0.3570 -0.1195
 3116W        W19963   7.821  16.663  11.378 -0.1210  0.3206  0.3054
 3117W        W19964  16.685  16.368   1.789  0.0240  0.2068  0.0243
 3118W        W19965   6.258  12.448  12.171  0.0958  0.3297  0.0890
 3119W        W19966   4.700  11.106  11.558  0.0279  0.0624  0.0867
 3120W        W19967   2.467   8.157  13.679 -0.0425  0.1604  0.1985
 3121W        W19968   3.043  17.220  14.403  0.0473  0.0355  0.1392
 3122W        W19969   2.527   8.663   1.273 -0.5150 -0.0950  0.0033
 3123W        W19970   6.446   5.370  14.508 -0.0202 -0.1298 -0.2585
 3124W        W19971   7.473  17.030  14.733  0.2526  0.1737  0.0002
 3125W        W19972  10.766  13.093  10.741 -0.1169 -0.2206  0.0723
 3126W        W19973   3.515  18.090   4.618 -0.0488 -0.0413 -0.1936
 3127W        W19974   5.796  14.268   1.955  0.0087 -0.0703  0.4772
 3128W        W19975  14.320  15.289  11.606 -0.3293 -0.3496  0.1836
 3129W        W19976  16.651   8.446  13.854  0.2441  0.1821  0.2174
 3130W        W19977  17.270   0.763  12.620  0.2027 -0.0153 -0.1088
 3131W        W19978   7.014  10.260  11.963  0.0282  0.1743 -0.2107
 3132W        W19979   0.296   3.100   4.157  0.5622  0.0302  0.0543
 3133W        W19980   8.708   2.575  11.104  0.2327 -0.1991 -0.0008
 3134W        W19981   3.900  15.099  12.755 -0.3242 -0.0996  0.1877
 3135W        W19982   9.077   9.479   2.823 -0.1045 -0.1951 -0.0572
 3136W        W19983   8.873   1.161  12.233  0.1107 -0.1755  0.1220
 3137W        W19984   6.675  12.505   2.182  0.3690 -0.0530 -0.2068
 3138W        W19985  15.832   4.409   3.754  0.1100  0.2048 -0.1631
 3139W        W19986  17.508  14.843   2.760  0.1710  0.1119  0.0203
 3140W        W19987   1.671   3.837  11.528  0.1753 -0.0753 -0.0829
 3141W        W19988  13.067  18.535  10.729  0.2042 -0.0461 -0.1765
 3142W        W19989   0.596   5.550   1.351 -0.0203  0.3111  0.1641
 3143W        W19990  18.405  12.623  13.410  0.1237  0.1777  0.2549
 3144W        W19991   9.741  16.016  11.156 -0.2245 -0.1718 -0.0834
 3145W        W19992  15.535  17.171  10.979 -0.1767 -0.0071  0.3300
 3146W        W19993  17.665   2.237  14.461 -0.1221  0.4249 -0.1811
 3147W        W19994  16.228   8.353  11.417  0.1126  0.2186  0.0449
 3148W        W19995   2.405   9.130   3.792  0.2914 -0.3579  0.0504
 3149W        W19996  12.345  16.950   1.084 -0.2378  0.2472 -0.4463
 3150W        W19997  11.135  15.006   5.356 -0.2569 -0.0841 -0.2263
 3151W        W19998   5.965  15.326  11.786 -0.0827  0.0895 -0.0246
 3152W        W19999   1.745   6.980  13.015 -0.1485  0.2458  0.2489
 3153W        W20000   2.418  10.545  11.114 -0.1896  0.0822  0.0046
 3154W        W20001  13.382   9.467  14.305  0.3036 -0.1033  0.0381
 3155W        W20002  13.159  12.069   1.555 -0.2458  0.1969 -0.2568
 3156W        W20003  14.456  12.592  13.925  0.0418  0.0643 -0.0134
 3157W        W20004  17.823   2.780   4.060 -0.0421  0.3315 -0.3651
 3158W        W20005   2.909  10.222  10.094  0.0271  0.0122  0.1070
 3159W        W20006  12.104  14.611  12.561  0.1462  0.0506  0.3696
 3160W        W20007  11.382   2.865   2.184  0.1130 -0.2733 -0.0340
 3161W        W20008   8.345  11.349  12.649 -0.2597  0.3168 -0.1649
 3162W        W20009  14.453   8.149  12.875  0.1059 -0.0982 -0.1525
 3163W        W20010  11.139   2.556   1.867 -0.1575  0.2006 -0.0171
 3164W        W20011  14.157   3.123   3.649 -0.1126 -0.0934 -0.2508
 3165W        W20012   5.096  13.296   2.205 -0.0758  0.1712  0.1317
 3166W        W20013  11.275   4.433  12.219 -0.1932  0.1948 -0.1347
 3167W        W20014   8.252   8.716   5.717  0.0067 -0.3063  0.2283
 3168W        W20015  14.591   2.029  14.712 -0.4345  0.2997 -0.2919
 3169W        W20016  15.289  13.723  14.732 -0.0378  0.1770 -0.3841
 3170W        W20017  11.655  12.944  14.911  0.2439  0.0882  0.0041
 3171W        W20018  18.657   8.963  10.250  0.2730  0.3459 -0.3421
 3172W        W20019   8.609   9.564   4.808 -0.0235  0.0047 -0.0534
 3173W        W20020  16.663   2.016   0.886  0.1470 -0.0873 -0.0653
 3174W        W20021   8.510  17.576   2.962  0.1542  0.2571 -0.1180
 3175W        W20022   8.584  15.484  14.282  0.3202 -0.5316 -0.0959
 3176W        W20023  11.674  18.371   3.648 -0.1287 -0.2342 -0.1732
 3177W        W20024  12.034  18.461   5.494 -0.2410 -0.0338 -0.0879
 3178W        W20025  10.006  11.665   3.956 -0.0237 -0.4515 -0.0922
 3179W        W20026   6.466  14.892   2.759 -0.0778  0.0801  0.3836
 3180W        W20027   8.587  12.169   3.396 -0.1039  0.0259 -0.1239
 3181W        W20028   4.694   0.341  13.625 -0.0284 -0.1267 -0.0526
 3182W        W20029   7.392   0.295   4.860  0.1086 -0.1475 -0.0260
 3183W        W20030  16.641   2.883   3.327 -0.0110  0.2000 -0.2363
 3184W        W20031  13.075  14.911   4.954 -0.0181 -0.3012 -0.0156
 3185W        W20032  12.707  16.180   4.662  0.1952 -0.4688  0.0100
 3186W        W20033  14.035  12.800  14.760 -0.0508  0.0244  0.1257
 3187W        W20034  16.076   3.828  12.128 -0.0275  0.5145 -0.1167
 3188W        W20035  13.227  17.187   5.072 -0.0146 -0.1958  0.0214
 3189W        W20036  12.159   5.426   0.028  0.1601 -0.0165  0.3272
 3190W        W20037   8.370  19.113  14.404 -0.3961  0.1997  0.0193
 3191W        W20038   5.984  17.709   0.977  0.1919  0.2000 -0.1718
 3192W        W20039  13.136  15.677  14.692 -0.2127 -0.2419  0.1423
 3193W        W20040   0.517  16.771   5.442 -0.0306 -0.0609 -0.2594
 3194W        W20041  17.468  13.404  12.609 -0.0117  0.2973 -0.3073
 3195W        W20042  19.038   1.660   2.544 -0.1660 -0.0290 -0.1806
 3196W        W20043   4.261   8.258   4.768 -0.2085  0.1643 -0.0453
 3197W        W20044   7.840   5.645   4.197  0.1614  0.1511 -0.3566
 3198W        W20045   4.482  16.990   5.557  0.2752 -0.1865  0.3002
 3199W        W20046   8.586   1.363  10.696 -0.0613  0.1116  0.0225
 3200W        W20047   8.639  18.185   2.061  0.0954 -0.1046  0.2408
 3201W        W20048   3.051  11.998   1.268 -0.3547  0.1597 -0.1669
 3202W        W20049  17.947   4.893   2.193 -0.2935  0.0214 -0.0285
 3203W        W20050   9.903   0.767   4.813 -0.0964 -0.4322 -0.0266
 3204W        W20051   3.274   4.177   4.450  0.2599 -0.2433 -0.0407
 3205W        W20052   5.500  13.314  12.778  0.1738 -0.0917  0.0715
 3206W        W20053   6.884   2.770  10.630 -0.1898  0.0996 -0.2682
 3207W        W20054   3.388  18.359   2.123  0.2220  0.1033  0.5479
 3208W        W20055  16.908  16.762  12.407  0.0249  0.2940 -0.0623
 3209W        W20056  16.767   9.181   0.451 -0.2414 -0.0098  0.3050
 3210W        W20057  16.809   5.433   4.897 -0.0449  0.0069 -0.3593
 3211W        W20058   8.924  13.142   2.480  0.1645  0.2526  0.1950
 3212W        W20059  14.769  14.137  10.199  0.0816 -0.1049 -0.0113
 3213W        W20060   4.935   2.769  13.281 -0.0744 -0.2645 -0.2156
 3214W        W20061   2.792   8.031   0.698  0.1074 -0.0759  0.1944
 3215W        W20062   3.470   6.748   2.911  0.2376  0.1933 -0.2297
 3216W        W20063  12.579   9.098  14.962  0.1572  0.2398 -0.5495
 3217W        W20064   9.912  17.149  11.531 -0.2194  0.0385 -0.1305
 3218W        W20065   4.091  14.870   1.195 -0.1398 -0.0705  0.3732
 3219W        W20066   1.789  18.751  13.672 -0.0136  0.3263 -0.2363
 3220W        W20067   3.291   5.347   1.898  0.1208 -0.0005 -0.0409
 3221W        W20068   1.818  18.793   1.628  0.2394  0.0526  0.2472
 3222W        W20069   8.802   3.072  14.710  0.4193  0.3424  0.2110
 3223W        W20070   6.468   3.846   2.877 -0.0579  0.0584  0.1332
 3224W        W20071  18.684   5.206   2.672 -0.1695  0.2037 -0.3383
 3225W        W20072  10.126   8.934   4.638  0.0904  0.0181  0.1709
 3226W        W20073   9.212   0.691   2.322 -0.1784 -0.2015 -0.3199
 3227W        W20074  16.274  12.025  10.376 -0.1331  0.2468  0.1975
 3228W        W20075  17.409   3.112  14.754 -0.0564  0.1999  0.3505
 3229W        W20076   5.284  18.242  12.664  0.0012 -0.1244 -0.1077
 3230W        W20077   0.581  14.933   3.469  0.0983 -0.1970 -0.1164
 3231W        W20078   8.884  12.374  13.170  0.0074 -0.1498 -0.2360
 3232W        W20079   9.611   8.555   1.412 -0.1662  0.0072 -0.1020
 3233W        W20080   8.611   2.528  14.250 -0.1900 -0.1756  0.0828
 3234W        W20081   0.225   2.541  14.495 -0.0589 -0.2266  0.0181
 3235W        W20082   6.050  17.021  11.288  0.0341 -0.2509  0.2947
 3236W        W20083   9.544   4.255   1.425  0.1254 -0.3632  0.0387
 3237W        W20084  16.548  12.756   9.513  0.1327 -0.1896  0.4851
 3238W        W20085   3.310  17.001   9.245 -0.1723 -0.0259  0.1317
 3239W        W20086  13.949  12.698  10.946  0.1973 -0.1601  0.2924
 3240W        W20087  18.565   6.332  11.794  0.1301 -0.0831  0.1234
 3241W        W20088   7.671  14.627  11.415  0.0892 -0.0442  0.1529
 3242W        W20089  15.818  16.077  14.502  0.1158  0.1876  0.3774
 3243W        W20090   0.984  11.475   3.861  0.3395 -0.1566 -0.0957
 3244W        W20091   3.012   8.907  11.485 -0.1910  0.1383 -0.0350
 3245W        W20092  12.633   7.873   3.504 -0.0581 -0.3160 -0.0914
 3246W        W20093  16.467   7.436   0.960 -0.1691 -0.0612 -0.2495
 3247W        W20094   6.614   2.129   9.608 -0.0842 -0.0372 -0.1402
 3248W        W20095  18.929   7.821   4.682 -0.1933 -0.1441 -0.0775
 3249W        W20096  15.826  16.629   5.105 -0.1295  0.2866  0.0385
 3250W        W20097  11.681  18.982  12.832  0.0982 -0.0447 -0.3590
 3251W        W20098   0.955  10.790  14.408  0.3799 -0.2278  0.0039
 3252W        W20099   3.850  15.725   3.675 -0.0993 -0.2079  0.2748
 3253W        W20100  18.579   2.131  12.867  0.1187  0.0166  0.1506
 3254W        W20101  13.748   9.178   4.359  0.1016  0.1108 -0.3162
 3255W        W20102   4.042   2.384   5.179 -0.2829 -0.0170 -0.2181
 3256W        W20103   2.707   4.342   2.873  0.2549  0.0982  0.1100
 3257W        W20104  15.565   1.454   1.643 -0.2027  0.0365  0.2587
 3258W        W20105   6.360   4.867  13.222  0.2749 -0.0594 -0.1461
 3259W        W20106   1.624  18.042   1.065 -0.0415 -0.0080  0.1208
 3260W        W20107   8.045  15.618   0.398 -0.1057 -0.2380  0.0598
 3261W        W20108   7.577  16.630   1.253 -0.2616  0.1171  0.0378
 3262W        W20109  13.040   2.530  14.811  0.0049  0.0820  0.0187
 3263W        W20110   0.156   5.445   4.252  0.0309  0.0744 -0.0149
 3264W        W20111  17.767   1.412  14.216  0.0919 -0.1339 -0.1320
 3265W        W20112   1.094   4.048  14.323 -0.1477  0.0920  0.1515
 3266W        W20113  14.509  15.854  12.734  0.1656  0.2170  0.2843
 3267W        W20114  17.529  11.163  11.250 -0.1031  0.1618  0.1005
 3268W        W20115   2.189  16.109   2.285  0.2225  0.3824  0.0100
 3269W        W20116  14.566  18.510   0.243  0.0685  0.0669  0.2913
 3270W        W20117   5.913  18.930  11.637  0.0790  0.1185 -0.0761
 3271W        W20118   6.054  17.162   0.194 -0.2669 -0.0248  0.2111
 3272W        W20119  13.928   5.599   1.085  0.0265 -0.1162  0.1897
 3273W        W20120  12.824  14.838  12.608  0.0637  0.2604 -0.0332
 3274W        W20121   9.101   3.793  13.156 -0.0805  0.2768  0.0185
 3275W        W20122  13.020   0.828  14.036  0.0336 -0.1047  0.0148
 3276W        W20123  18.176  16.666   5.003  0.1349 -0.1131  0.1470
 3277W        W20124  13.495  17.290  12.604 -0.1304  0.1204 -0.0634
 3278W        W20125   3.574  14.417   1.879  0.1354 -0.1833 -0.2124
 3279W        W20126  11.446  13.713  13.582 -0.1829  0.3064 -0.1338
 3280W        W20127  12.565  10.384   0.899 -0.1793 -0.0380  0.3847
 3281W        W20128   8.618   9.231  10.495 -0.1342  0.0778  0.3056
 3282W        W20129  11.079  18.903   0.708  0.0451 -0.0313  0.1286
 3283W        W20130   7.522   2.534  14.762 -0.2096 -0.0156  0.0247
 3284W        W20131   3.398   4.926  11.415  0.2486  0.1945 -0.1599
 3285W        W20132  11.777   6.685  13.358 -0.1231 -0.1180 -0.0897
 3286W        W20133   6.350  11.646   0.877  0.1076 -0.1267  0.0767
 3287W        W20134  17.266  14.899  13.592 -0.2794 -0.2497 -0.0743
 3288W        W20135  17.594   0.582   1.841 -0.2218 -0.2906  0.0424
 3289W        W20136   5.139   2.178  12.821  0.5807  0.0954 -0.0111
 3290W        W20137  11.654   0.723   3.370  0.0102 -0.1955 -0.0626
 3291W        W20138   3.974   8.830  13.537 -0.0247  0.0033 -0.0380
 3292W        W20139  17.497   2.560   2.765  0.0027 -0.1796 -0.4186
 3293W        W20140   6.979   7.103   0.184 -0.2470 -0.1053  0.0429
 3294W        W20141  15.290   7.268  13.684 -0.2811 -0.0772  0.0567
 3295W        W20142  14.757  14.239  11.119  0.0534  0.1404 -0.3031
 3296W        W20143  11.953   7.877   1.213 -0.2873 -0.1840 -0.2071
 3297W        W20144   4.040   0.158  14.684  0.2277  0.2233  0.0020
 3298W        W20145  19.054   9.172   3.458 -0.1835 -0.1785  0.0197
 3299W        W20146   9.560  19.079   4.300 -0.1220  0.2283  0.0122
 3300W        W20147   5.957   7.436  14.095 -0.2524  0.1033  0.4240
 3301W        W20148   3.604  17.810  12.669  0.0262 -0.0161 -0.2525
 3302W        W20149  11.201  12.103   2.163  0.5348  0.0802  0.0271
 3303W        W20150  10.521   7.681   2.580 -0.1988  0.0808 -0.4058
 3304W        W20151   6.007   0.091  12.233 -0.3245  0.2425 -0.1474
 3305W        W20152  13.962  10.783   0.879  0.0201 -0.0777 -0.2912
 3306W        W20153  10.377  13.084  12.203  0.0983  0.0917  0.0116
 3307W        W20154   3.661   8.026   0.541 -0.0444  0.0215  0.1978
 3308W        W20155  11.294  10.328   4.771 -0.2208  0.0144 -0.1066
 3309W        W20156   3.419  13.422   5.154  0.0057 -0.0949 -0.4830
 3310W        W20157   3.413  10.969   2.787 -0.0907  0.0789 -0.3014
 3311W        W20158   7.367  15.179  14.082  0.4418  0.1492 -0.0449
 3312W        W20159   9.535   3.540   3.376 -0.0211 -0.1348 -0.0532
 3313W        W20160  14.829   6.083   0.150 -0.0696  0.2104  0.0705
 3314W        W20161   2.886   0.489  11.938 -0.0712 -0.3116  0.1137
 3315W        W20162  11.199  12.932   1.200 -0.2206  0.0532 -0.0342
 3316W        W20163   2.263   9.576   4.484 -0.1930  0.0011 -0.2817
 3317W        W20164   1.038  10.822   1.707 -0.1871  0.0929  0.0497
 3318W        W20165   8.802   4.787   1.485  0.1716 -0.1279 -0.2948
 3319W        W20166  17.650  11.472  13.688 -0.0708 -0.1699 -0.2479
 3320W        W20167   4.298   6.356   5.474 -0.1012  0.0913 -0.1401
 3321W        W20168  17.742  11.165  12.680 -0.1835  0.3666 -0.0401
 3322W        W20169  10.518  17.230  14.343 -0.0913  0.1925 -0.2554
 3323W        W20170  15.418   5.740  12.867  0.1196 -0.1400  0.2608
 3324W        W20171   0.717  12.709   3.924  0.1012  0.4122 -0.0528
 3325W        W20172  18.077  14.200   4.582 -0.0339  0.0444  0.1630
 3326W        W20173   6.169  10.865  14.704  0.0019  0.1606 -0.3942
 3327W        W20174   8.435   6.345  12.306  0.0378 -0.2286 -0.3177
 3328W        W20175  17.674  19.075   1.199 -0.0275 -0.0518  0.3410
 3329W        W20176  10.140   1.052  12.173  0.0420  0.2251  0.1573
 3330W        W20177  12.349  16.985  12.932  0.1409 -0.0495 -0.0886
 3331W        W20178  14.254   5.249   4.185 -0.0510  0.2080  0.0098
 3332W        W20179   1.926   2.980  11.471  0.2884  0.0766  0.0191
 3333W        W20180  16.636  11.857  13.989  0.1651  0.1948 -0.2232
 3334W        W20181  15.361  16.962  12.009 -0.2319 -0.2274 -0.1610
 3335W        W20182  18.738   6.872  12.771  0.0382  0.0876  0.1149
 3336W        W20183   1.024  17.177   5.036  0.3461 -0.0489 -0.0582
 3337W        W20184  13.883   6.480  14.761 -0.0036  0.0271 -0.0473
 3338W        W20185  18.789   2.482   4.266 -0.0659  0.0915 -0.0957
 3339W        W20186   4.577   4.717  12.280  0.2282  0.0797 -0.0298
 3340W        W20187   3.139  19.009   3.444  0.2719 -0.2216 -0.1735
 3341W        W20188  17.115   9.240  14.716  0.2263  0.0797 -0.1724
 3342W        W20189   9.081  13.607   4.768  0.1187  0.0228 -0.2111
 3343W        W20190   4.548   1.352   0.502 -0.0647  0.0699 -0.3351
 3344W        W20191   3.305  15.659  12.952 -0.0924 -0.1555  0.0230
 3345W        W20192   3.726   2.191  12.399 -0.4798  0.1219 -0.0814
 3346W        W20193   0.089  12.681  12.156 -0.1382  0.2846 -0.4556
 3347W        W20194  18.269  18.288   3.359 -0.1969 -0.0416  0.0264
 3348W        W20195  12.588  17.409   2.688 -0.1987  0.1725 -0.2107
 3349W        W20196   5.790  18.750   0.866 -0.2853  0.0305 -0.4106
 3350W        W20197  17.764  14.989  13.533 -0.2880  0.0056 -0.1300
 3351W        W20198   1.720   4.377  11.417  0.0612  0.3070  0.1718
 3352W        W20199   0.519   0.132  13.819  0.2998 -0.1659  0.2682
 3353W        W20200   3.616   1.181  12.751 -0.1671  0.1410 -0.3818
 3354W        W20201  15.934  13.985  11.715 -0.0183  0.1386  0.0800
 3355W        W20202   8.252  15.968   3.512 -0.2066  0.1619 -0.0909
 3356W        W20203  15.013   8.533   5.404 -0.2100  0.3158 -0.0424
 3357W        W20204   5.965   6.969   3.387  0.2276  0.0246  0.1476
 3358W        W20205   7.060  18.657   2.556 -0.0725  0.2474  0.1602
 3359W        W20206  14.936  10.040  13.991  0.2592 -0.1050  0.1058
 3360W        W20207   5.338   1.315   1.423 -0.2423 -0.0124  0.2364
 3361W        W20208   3.946  13.123   3.681 -0.5087 -0.0574  0.1257
 3362W        W20209   3.860   0.448  11.967  0.1830 -0.1923  0.0116
 3363W        W20210  10.025  17.399  13.029 -0.0581 -0.0707 -0.3792
 3364W        W20211   7.102   1.408   1.007  0.1480 -0.1360  0.3153
 3365W        W20212   9.776   6.568  12.641 -0.2654  0.0675 -0.2664
 3366W        W20213  19.091   6.671   3.406  0.1073  0.0135 -0.1765
 3367W        W20214   9.368  12.235  13.230 -0.2362  0.1557  0.4809
 3368W        W20215  12.744   6.165  11.082  0.1497 -0.1743 -0.0814
 3369W        W20216  15.102  10.794  11.554 -0.0498 -0.2681  0.1658
 3370W        W20217   2.287   0.081  14.700 -0.2514  0.1483 -0.3494
 3371W        W20218  16.737   8.821   4.014  0.1170 -0.1727  0.1494
 3372W        W20219   6.801   1.092   1.207  0.0606  0.2409  0.0434
 3373W        W20220   1.493  12.390  14.832 -0.0129 -0.1440  0.0662
 3374W        W20221   9.943   5.392   3.264 -0.1958 -0.0255  0.1390
 3375W        W20222  13.146   2.524  14.177 -0.0051 -0.2320 -0.4421
 3376W        W20223   0.748   3.870   0.307 -0.0447 -0.0223  0.1822
 3377W        W20224  13.953   8.749   1.139  0.2841  0.0761 -0.0571
 3378W        W20225   6.884   3.708   3.387  0.0539 -0.0379 -0.0348
 3379W        W20226  15.353  17.599   4.813  0.0325  0.0056  0.2101
 3380W        W20227  10.090  10.101   5.353  0.1491  0.0798  0.1752
 3381W        W20228   8.635   9.925   2.088 -0.0883 -0.0807  0.0889
 3382W        W20229   5.564  14.712   1.740 -0.0296  0.3018 -0.1954
 3383W        W20230   0.827  15.132   1.161  0.3383 -0.1808 -0.1715
 3384W        W20231  15.345   1.898   0.871 -0.0255 -0.0499 -0.0095
 3385W        W20232  12.530   8.833  10.814 -0.0074  0.0749  0.2041
 3386W        W20233   4.422  11.605   2.522 -0.2157  0.0645 -0.0320
 3387W        W20234  12.862   9.259   3.524  0.1691 -0.3727  0.1952
 3388W        W20235   0.352  12.869  14.541  0.0823 -0.0134  0.0648
 3389W        W20236   3.845   6.457   3.118 -0.0670 -0.1546  0.2250
 3390W        W20237   1.660  10.513  10.467 -0.1208  0.0649 -0.0921
 3391W        W20238   6.359  17.558   1.313 -0.1308 -0.0237 -0.1543
 3392W        W20239   0.420  15.046   4.808 -0.1609 -0.0622  0.3120
 3393W        W20240   6.482   2.216   3.637  0.0922  0.1846 -0.3769
 3394W        W20241  12.396   9.882   0.283 -0.0813 -0.1585 -0.0788
 3395W        W20242   6.608   9.079   1.136 -0.2856 -0.1331 -0.1184
 3396W        W20243   7.210  12.329   1.776 -0.2298  0.0490  0.0247
 3397W        W20244  12.913  10.779   4.571  0.1204 -0.2195 -0.0896
 3398W        W20245  12.258   2.521   2.661  0.0095 -0.1402 -0.3002
 3399W        W20246  18.868   4.634   2.523  0.0847  0.1175 -0.1958
 3400W        W20247   1.025  16.499  13.790  0.3370 -0.0826  0.1195
 3401W        W20248   6.706  10.284   4.967  0.1629 -0.1314 -0.5798
 3402W        W20249   2.616   4.051   3.726 -0.2589 -0.0611 -0.2535
 3403W        W20250   5.989  16.391  13.391 -0.0922 -0.2759 -0.0150
 3404W        W20251  11.869  15.591   5.354  0.1873 -0.5554  0.1041
 3405W        W20252  16.618  16.673   4.227  0.0131  0.3213  0.2128
 3406W        W20253   7.745  13.167  13.421  0.1440 -0.0837 -0.4349
 3407W        W20254   7.495  13.349   2.570 -0.1308  0.1643  0.0019
 3408W        W20255  16.388   4.785   2.038 -0.1915  0.4145  0.0021
 3409W        W20256   8.121  17.750  14.844 -0.1907 -0.2472 -0.2696
 3410W        W20257   3.131  12.738  13.032 -0.1379  0.0519 -0.0711
 3411W        W20258  11.063   6.467   2.735  0.1566 -0.1980  0.2095
 3412W        W20259  12.411  10.708  10.564  0.1729 -0.1129 -0.1443
 3413W        W20260  12.620   4.484  14.525  0.0692  0.0989 -0.1696
 3414W        W20261   5.457   8.844  10.138  0.1611  0.1745 -0.0693
 3415W        W20262   9.265  16.017  11.323  0.3104  0.0579  0.0518
 3416W        W20263   8.496   3.352   1.134 -0.2715  0.3313 -0.0528
 3417W        W20264  17.371  19.233   3.824 -0.0042 -0.2470  0.2163
 3418W        W20265  11.367   2.332   0.113  0.0059  0.0577 -0.1021
 3419W        W20266  11.380   3.917  11.294  0.1599  0.1605 -0.0373
 3420W        W20267  18.715  10.419  11.884 -0.1966 -0.0260  0.2447
 3421W        W20268  13.886   6.385   0.422 -0.3907  0.2875  0.0470
 3422W        W20269  16.933   0.466  12.961 -0.0964  0.0183  0.0353
 3423W        W20270   2.365  10.088  10.911  0.2008  0.0949  0.2187
 3424W        W20271  10.829  19.149   3.848  0.2829  0.1268 -0.0404
 3425W        W20272  11.448  12.812  10.901  0.1177 -0.3434 -0.3162
 3426W        W20273  15.421   9.676  10.564 -0.1020  0.2025 -0.1180
 3427W        W20274   9.306   6.547   2.744 -0.0921  0.1072 -0.0984
 3428W        W20275  12.768   8.891  11.333  0.1899 -0.2215  0.2660
 3429W        W20276  17.075   1.231  11.679  0.1409  0.2387 -0.3290
 3430W        W20277  18.767   0.545   4.831 -0.1953 -0.0847  0.1696
 3431W        W20278   6.995  14.173  14.907 -0.1460  0.1529  0.2395
 3432W        W20279  13.589   1.092  11.814  0.2348 -0.0736  0.1859
 3433W        W20280  19.110   4.123  11.640 -0.3535  0.0193 -0.2686
 3434W        W20281  19.105  15.086   0.321 -0.0363  0.0791  0.1493
 3435W        W20282  17.342   2.089  11.583 -0.2738 -0.2388  0.0250
 3436W        W20283   5.843  16.353   1.140  0.1708  0.1199 -0.0332
 3437W        W20284  12.313   3.207  14.037  0.3315  0.2074  0.0324
 3438W        W20285  17.526   4.931   4.558  0.1500  0.0563 -0.0658
 3439W        W20286   2.076   6.614   1.947  0.2223  0.4947  0.3300
 3440W        W20287  18.496   4.652  11.985 -0.2221 -0.3418  0.3199
 3441W        W20288   3.206   0.932   4.738  0.0300  0.1580  0.0987
 3442W        W20289  13.993   1.369   5.587 -0.1642  0.0258  0.1216
 3443W        W20290   3.233   4.275   3.756 -0.3720 -0.0333 -0.0995
 3444W        W20291   4.443  14.175  10.779  0.1882  0.0256  0.0346
 3445W        W20292   0.739   5.487  10.758 -0.1132 -0.2630  0.2507
 3446W        W20293   1.207  11.837  10.472 -0.0764  0.1783 -0.0394
 3447W        W20294   7.239   5.483   2.844 -0.4602  0.1434  0.0982
 3448W        W20295  11.977  13.307  11.563  0.0341 -0.3376 -0.0439
 3449W        W20296   6.495   2.153   1.238  0.0584  0.1686  0.1413
 3450W        W20297   1.050  14.144  12.865  0.1660 -0.3988  0.1418
 3451W        W20298  12.293   7.757   0.098 -0.2335  0.4640  0.0027
 3452W        W20299  19.174   0.739  11.783  0.3509  0.1316 -0.3494
 3453W        W20300  17.433   7.081   2.983 -0.3818  0.3894  0.1585
 3454W        W20301  16.864  11.555   5.028  0.0556  0.2439  0.0795
 3455W        W20302  10.958  10.109   1.981 -0.1913 -0.0159 -0.2244
 3456W        W20303   8.854   4.368   5.015 -0.1757 -0.1426 -0.3199
 3457W        W20304   6.862   7.369   1.499 -0.0526  0.1000 -0.0120
 3458W        W20305  11.674  17.180  13.390 -0.2144  0.2353  0.2304
 3459W        W20306  12.115  11.045   0.398  0.0905 -0.0398  0.3558
 3460W        W20307  14.230  19.165   3.269 -0.0137  0.1272  0.0214
 3461W        W20308   9.095  18.456  14.528  0.0132  0.2419  0.1018
 3462W        W20309  11.458  14.787  13.101  0.2174 -0.2831  0.2702
 3463W        W20310  15.848  14.917   2.414 -0.3847 -0.1462 -0.0898
 3464W        W20311   8.938  15.856   1.455 -0.2418 -0.0062 -0.0033
 3465W        W20312  12.795  18.854  12.230 -0.0798 -0.2700 -0.1068
 3466W        W20313   2.310   6.693   4.935  0.0950  0.1781  0.1342
 3467W        W20314   7.031   4.471  13.381 -0.0449 -0.2138  0.4073
 3468W        W20315  19.081  16.495   0.482  0.3719 -0.0071  0.1922
 3469W        W20316   5.553   5.157  12.800  0.0354  0.1089  0.1138
 3470W        W20317  12.290   4.997  14.580 -0.0300 -0.2651  0.2675
 3471W        W20318   6.662   7.344   3.978  0.1533 -0.3564 -0.1205
 3472W        W20319  18.493  10.441  12.432 -0.2356  0.0579 -0.1101
 3473W        W20320   6.670  15.629   2.470 -0.3385 -0.0302  0.0648
 3474W        W20321  11.850  15.459   3.823  0.1768  0.1319  0.0855
 3475W        W20322  19.085  10.822  13.567 -0.0560  0.1325 -0.4779
 3476W        W20323   2.504   1.265   0.211 -0.2650  0.0065  0.0281
 3477W        W20324   4.799  17.131  12.749 -0.1395 -0.2018 -0.0523
 3478W        W20325  14.982  12.292  10.191 -0.3365 -0.1005  0.1610
 3479W        W20326  14.608  10.825   2.004 -0.1238  0.4002 -0.0827
 3480W        W20327   8.809   7.432   0.928 -0.0106  0.0872 -0.0257
 3481W        W20328  17.893  10.976   1.454  0.1683  0.1592 -0.0681
 3482W        W20329  14.267   5.494   0.271 -0.0551  0.5460  0.0116
 3483W        W20330  14.961  11.723   0.564  0.0743 -0.2660 -0.1501
 3484W        W20331  16.695  13.309  14.280  0.3642  0.2187  0.2395
 3485W        W20332  17.420   9.594   2.024  0.0787  0.1133 -0.0145
 3486W        W20333   1.843  10.118   0.501 -0.0079 -0.1664 -0.1430
 3487W        W20334   8.043   5.408   2.354 -0.2562 -0.1513 -0.1234
 3488W        W20335  14.171  18.561  10.510 -0.0832 -0.1072 -0.1822
 3489W        W20336   7.145   1.536   4.121  0.1499 -0.2163 -0.3999
 3490W        W20337   6.038   8.014   4.330 -0.2800 -0.0509  0.2039
 3491W        W20338   5.135   1.738   1.313 -0.0857  0.4617  0.2163
 3492W        W20339   8.828   3.559  13.914 -0.2245 -0.1248 -0.0028
 3493W        W20340   7.996  16.528   0.667  0.0646 -0.1155 -0.2053
 3494W        W20341  14.704   2.793   1.237  0.2848 -0.1506 -0.3307
 3495W        W20342   7.654  14.953   0.818  0.0237  0.4330 -0.1439
 3496W        W20343   5.369   4.819   0.712  0.1858  0.0181  0.1163
 3497W        W20344  12.559   4.692   4.306  0.0655  0.0474  0.1830
 3498W        W20345   1.931   0.051  12.230  0.1301 -0.0363  0.1844
 3499W        W20346   2.506   1.331  12.037  0.2538  0.2119  0.1495
 3500W        W20347  15.979   6.064   2.277  0.1980 -0.0664 -0.3360
 3501W        W20348  13.569  18.572  11.627 -0.0091 -0.1224 -0.1345
 3502W        W20349   1.319   3.766   3.888 -0.0359  0.2225 -0.1474
 3503W        W20350  13.046  15.613  11.648  0.2477 -0.3777 -0.0053
 3504W        W20351   3.306   3.419  13.431  0.0919  0.0472 -0.0954
 3505W        W20352  16.569  13.005   5.347  0.1291 -0.1169 -0.0083
 3506W        W20353   8.237  17.495  13.936  0.0470  0.1732 -0.0320
 3507W        W20354  14.539  16.864   0.009 -0.3781 -0.1413  0.2051
 3508W        W20355  16.362  16.862  13.426  0.2282 -0.3385  0.0632
 3509W        W20356   6.058  12.785  10.836 -0.1728  0.0246  0.0732
 3510W        W20357  13.041   6.138   0.919  0.0144  0.1803 -0.0633
 3511W        W20358   7.529   0.132  10.175  0.0251 -0.0446  0.1895
 3512W        W20359  12.133   7.682  13.443  0.2127 -0.3231  0.1178
 3513W        W20360  16.134  15.786   4.711  0.0578  0.0536  0.1488
 3514W        W20361  11.232   8.687  12.883 -0.0042  0.0678  0.1077
 3515W        W20362  15.647   4.053   2.950  0.1738  0.0641 -0.0303
 3516W        W20363   2.428  10.455  13.528 -0.3040  0.2356 -0.3999
 3517W        W20364  14.269   0.726  14.394 -0.2242  0.0276 -0.0944
 3518W        W20365  12.637   3.741   3.282  0.1930  0.3157 -0.2365
 3519W        W20366   5.001   6.353  13.219 -0.1542 -0.1226 -0.1098
 3520W        W20367   8.891   5.807   4.834 -0.1106  0.1919  0.0642
 3521W        W20368   7.116  15.887   2.512 -0.0327  0.1321 -0.1123
 3522W        W20369   1.545   5.804   0.902 -0.0517  0.0569 -0.3315
 3523W        W20370   6.372   1.835   3.973 -0.0121  0.0044 -0.0545
 3524W        W20371   8.028  14.046  10.788 -0.1534 -0.0190  0.0944
 3525W        W20372   0.819   3.207  14.683  0.2302  0.0894 -0.1108
 3526W        W20373   7.384  14.257   2.007  0.0319  0.1628  0.0597
 3527W        W20374   8.316  10.865   2.905  0.0264 -0.0033 -0.3120
 3528W        W20375  12.990  12.041   4.257 -0.1727 -0.2266  0.0035
 3529W        W20376  18.377   6.357  14.553  0.1169 -0.2885  0.0953
 3530W        W20377  10.898  15.571  13.993 -0.1616  0.4459  0.1797
 3531W        W20378   6.370  17.815   0.539  0.1224 -0.2156  0.3234
 3532W        W20379  12.670   3.161   3.321  0.2384  0.1473 -0.2533
 3533W        W20380   9.369   8.923  11.089 -0.2588  0.2479  0.1060
 3534W        W20381   5.085   8.104   3.121 -0.1028 -0.0725 -0.2360
 3535W        W20382  12.843  15.975   3.343  0.1426  0.1494 -0.0007
 3536W        W20383   9.043  14.435   2.301  0.2763 -0.0400  0.1617
 3537W        W20384   0.809   8.133   4.975 -0.1928 -0.3197 -0.0202
 3538W        W20385  12.061   3.753  11.327 -0.0934  0.2559  0.2818
 3539W        W20386  11.135   7.106   2.177 -0.2004  0.2675  0.0772
 3540W        W20387   5.562  16.537  10.730 -0.2083  0.0958 -0.2618
 3541W        W20388  10.570  13.571   2.716  0.1289 -0.0862 -0.0559
 3542W        W20389   1.987   2.958  10.361 -0.1474  0.1012  0.2194
 3543W        W20390   8.306  11.787   3.017 -0.0207 -0.1853  0.0841
 3544W        W20391  12.117  13.938   1.580  0.1500  0.0832 -0.0318
 3545W        W20392  11.646   2.207  13.512  0.0873 -0.3553 -0.0346
 3546W        W20393   0.433   3.836  13.025 -0.1100 -0.1258  0.0088
 3547W        W20394   7.124   9.720  13.197 -0.0539  0.0006 -0.2383
 3548W        W20395  16.959   0.914  14.500 -0.0288  0.0567 -0.2836
 3549W        W20396   5.745  18.498  10.292 -0.3751  0.2586  0.0065
 3550W        W20397   4.717   2.757  13.758  0.2086 -0.1385  0.1909
 3551W        W20398   5.335   3.648  14.971 -0.1584 -0.0481 -0.0791
 3552W        W20399   4.646   9.377  11.088 -0.1067 -0.1008 -0.2303
 3553W        W20400  18.530   3.209   0.447 -0.2233 -0.1027 -0.1562
 3554W        W20401   9.231  13.874  13.044  0.0817 -0.0528 -0.0045
 3555W        W20402  16.925  14.749   0.588  0.4751  0.1817  0.3454
 3556W        W20403   7.245  12.662   9.393 -0.0259 -0.1469  0.2687
 3557W        W20404   5.602  16.911   4.142 -0.0107  0.1911  0.1787
 3558W        W20405   1.270   2.660  10.765  0.1598  0.1364 -0.1816
 3559W        W20406  10.597   4.729  14.930  0.1702 -0.3003 -0.0588
 3560W        W20407   2.450  14.112   2.847  0.0031 -0.1522  0.2059
 3561W        W20408   6.255   9.058   4.233  0.2235  0.2901 -0.0503
 3562W        W20409   7.017   6.931  13.748 -0.1561  0.0756 -0.2507
 3563W        W20410   9.379  18.655   2.599  0.1286 -0.0362 -0.0559
 3564W        W20411  18.927  18.854  12.522 -0.0847  0.3162 -0.0164
 3565W        W20412   3.672  13.821  12.339 -0.1189 -0.0788  0.3493
 3566W        W20413   9.178  18.593  10.948 -0.0476 -0.1391  0.1073
 3567W        W20414   0.758   3.651   2.151 -0.3876  0.3018  0.1563
 3568W        W20415   8.239  10.014   2.803  0.2013 -0.1425 -0.0169
 3569W        W20416  13.190  10.773   3.400 -0.1636 -0.3079 -0.2535
 3570W        W20417   9.184  11.275  10.517 -0.0458  0.2676 -0.0254
 3571W        W20418  12.940  10.889  11.008 -0.2055  0.1429 -0.5521
 3572W        W20419   2.159  12.186  12.940  0.1293  0.0797 -0.2473
 3573W        W20420  13.834  10.503   4.271 -0.0990  0.2987 -0.0780
 3574W        W20421   3.913   1.026   2.052  0.2089  0.0953 -0.0408
 3575W        W20422   3.458   5.877   1.130  0.2584  0.2137 -0.1641
 3576W        W20423   6.530  18.772  10.844 -0.0482  0.0778 -0.0234
 3577W        W20424   7.951  15.175  14.925  0.2262 -0.1299  0.1158
 3578W        W20425  10.713   1.185   2.478 -0.0332 -0.2444 -0.0968
 3579W        W20426   8.119   1.992  14.706 -0.0888 -0.2829  0.1549
 3580W        W20427  11.197  16.896  14.943 -0.1996 -0.1515  0.1340
 3581W        W20428  14.060   4.213  11.796  0.5466  0.1077 -0.1395
 3582W        W20429   4.111  14.635  10.802 -0.0136 -0.0816  0.1561
 3583W        W20430  10.508   3.607  14.132  0.0752 -0.1033  0.0743
 3584W        W20431   5.240   6.121   4.942  0.1405  0.0107  0.0453
 3585W        W20432   7.010  10.321   0.951 -0.3238  0.1550  0.0441
 3586W        W20433  17.847  14.614   5.106 -0.0397 -0.2790  0.4302
 3587W        W20434  15.199   3.850  13.454  0.1677  0.2446  0.1828
 3588W        W20435   6.538  12.140  13.824  0.1270  0.1338 -0.2093
 3589W        W20436  11.674  18.195   1.170 -0.2414  0.1780 -0.0016
 3590W        W20437   9.247   6.070  13.174  0.1012  0.0613 -0.1766
 3591W        W20438   3.236  10.363   4.568  0.0516  0.1368  0.1019
 3592W        W20439   0.957   5.038  10.858 -0.0518 -0.2211 -0.2108
 3593W        W20440   1.997  15.026  11.318  0.0791 -0.0673 -0.0332
 3594W        W20441   3.805   9.326   5.025 -0.0464 -0.0552 -0.2157
 3595W        W20442  17.857   9.880   4.287  0.0296 -0.2225  0.4267
 3596W        W20443   2.192  15.519   1.183 -0.0245  0.1979 -0.0833
 3597W        W20444  15.251   4.107   1.708 -0.5258 -0.0792  0.5138
 3598W        W20445   0.276  19.048  11.035  0.1257 -0.0712 -0.0129
 3599W        W20446  16.093  19.068   2.177 -0.4488  0.0787 -0.0562
 3600W        W20447   5.236   6.316  10.786 -0.1791 -0.1444  0.3841
 3601W        W20448   3.572   8.425  12.104  0.1005 -0.2166  0.0276
 3602W        W20449  12.506   2.407   1.251 -0.0815  0.0875  0.0144
 3603W        W20450   6.258  12.040  11.819  0.0497 -0.0647 -0.1716
 3604W        W20451   2.879   3.431   2.905 -0.1689  0.0467  0.3432
 3605W        W20452  13.458   8.515  14.820 -0.2345  0.0975 -0.3948
 3606W        W20453  12.368  14.897   1.379 -0.0809 -0.0968 -0.0578
 3607W        W20454   9.723   1.537   2.854  0.1419  0.0026 -0.0237
 3608W        W20455  15.253   7.204  12.695 -0.4272 -0.0662  0.1456
 3609W        W20456   6.396   1.665   0.376  0.4143 -0.3659 -0.2521
 3610W        W20457  16.122  19.090  14.451 -0.2904 -0.0671  0.0208
 3611W        W20458   7.262  10.688   1.210  0.0903 -0.0738 -0.0636
 3612W        W20459   1.173  17.736   0.925 -0.3826  0.0770 -0.1397
 3613W        W20460   1.832   9.601   2.361  0.0559 -0.1683 -0.0109
 3614W        W20461   4.712  14.764   0.549  0.1609  0.2344 -0.2169
 3615W        W20462  12.271   3.796  10.422  0.1310 -0.0351  0.2468
 3616W        W20463  12.523   3.719   2.320 -0.0495  0.1066  0.1535
 3617W        W20464   2.023  10.905  11.859 -0.2380 -0.1357  0.1196
 3618W        W20465  19.118   0.395   2.851  0.0431 -0.1297  0.0878
 3619W        W20466  15.906  10.767  13.995  0.0532  0.1964 -0.2978
 3620W        W20467  15.161  18.106   4.450  0.1529 -0.1682  0.0787
 3621W        W20468  16.085  17.834  13.469  0.0126  0.0637 -0.0003
 3622W        W20469   0.355  18.413  12.918  0.0678 -0.2963  0.0052
 3623W        W20470  14.748   2.409  11.955  0.2584  0.0418 -0.3369
 3624W        W20471   6.488  10.068  13.781 -0.1946 -0.2041  0.0789
 3625W        W20472  19.196   4.297   2.610  0.2377  0.1942  0.0927
 3626W        W20473  15.647   0.615   0.098  0.2774  0.1080 -0.0038
 3627W        W20474   5.220  12.754   4.854 -0.1371 -0.1078 -0.2778
 3628W        W20475   9.373   1.380  12.971  0.1773  0.2952 -0.3553
 3629W        W20476  16.884   1.996  12.678 -0.1488  0.0339 -0.0523
 3630W        W20477  10.644  11.803   0.242 -0.3010 -0.0832  0.0159
 3631W        W20478  13.697  17.476   0.730  0.2471  0.1361 -0.0921
 3632W        W20479  11.589   4.563  14.878 -0.0566  0.1833  0.1272
 3633W        W20480   9.634  11.325  10.783 -0.0407  0.0102  0.1725
 3634W        W20481  11.403  12.062   2.623 -0.3853 -0.0288  0.0389
 3635W        W20482  14.004   7.793   1.445 -0.0176  0.0512  0.2930
 3636W        W20483  12.386   3.545  14.384 -0.0840  0.0292  0.0066
 3637W        W20484   3.596   1.264   4.616  0.0728 -0.1136 -0.0237
 3638W        W20485  13.218  10.672   1.325 -0.2292 -0.0801  0.1276
 3639W        W20486   5.077  17.730   2.026 -0.1529 -0.1854 -0.1548
 3640W        W20487   2.107   0.862   0.277 -0.4607  0.1095 -0.0494
 3641W        W20488  18.569   1.483   0.221  0.0515  0.1007  0.5604
 3642W        W20489   5.172   4.191   1.370 -0.0164  0.3241  0.0226
 3643W        W20490  13.101   9.064   9.212 -0.1979  0.5290 -0.0724
 3644W        W20491  12.878  15.165  14.383  0.0764 -0.2364 -0.2008
 3645W        W20492   5.834  15.632   2.157 -0.2487  0.1151  0.1136
 3646W        W20493  11.112   5.441   3.002  0.0903  0.0584 -0.0774
 3647W        W20494   1.030  17.617  10.628 -0.0029  0.1672  0.0416
 3648W        W20495   1.456   4.064  11.150 -0.0409 -0.0881 -0.1974
 3649W        W20496   5.559  15.160   3.537  0.3785  0.3253  0.1217
 3650W        W20497   7.894  13.418   9.144  0.2118  0.0056  0.0789
 3651W        W20498  16.222  12.603   2.339 -0.0377  0.1435 -0.0977
 3652W        W20499   5.140  16.313   3.309  0.1020 -0.1659 -0.2673
 3653W        W20500  11.058  10.516  14.691 -0.1126  0.0006 -0.0143
 3654W        W20501   5.888   9.865   1.863 -0.0011 -0.0428 -0.1094
 3655W        W20502  10.350   4.075   2.447 -0.1748  0.2046  0.2071
 3656W        W20503  13.363  14.421   0.333  0.2533 -0.1015  0.0242
 3657W        W20504  12.388   3.853  13.238  0.0539  0.0013  0.0516
 3658W        W20505  18.573  13.814  11.215 -0.0921  0.1078 -0.2917
 3659W        W20506   2.277  10.879  10.354 -0.0940 -0.2312 -0.2474
 3660W        W20507  15.866  17.417   2.051 -0.0169  0.0526  0.2622
 3661W        W20508  11.994   3.996   0.054 -0.1350 -0.0642 -0.1784
 3662W        W20509  10.028  16.016   0.782  0.1624 -0.3631 -0.2276
 3663W        W20510  17.121   6.689   4.757  0.4140 -0.0305  0.0854
 3664W        W20511   2.367  17.230   3.472 -0.1010 -0.1390 -0.1507
 3665W        W20512  13.304   8.720   3.796  0.0857  0.2068  0.0348
 3666W        W20513  16.464   1.696  14.865  0.1007 -0.1010 -0.1519
 3667W        W20514   1.336  16.870   0.707 -0.2276 -0.1957  0.1400
 3668W        W20515   8.366   2.626   2.779 -0.0939 -0.2348  0.2181
 3669W        W20516  14.451  10.283   3.526  0.2614  0.0020 -0.0763
 3670W        W20517  17.821  18.381   0.813  0.2520  0.0404 -0.1523
 3671W        W20518   5.329   0.826   4.722 -0.1008 -0.1016 -0.0813
 3672W        W20519  18.999   4.714  14.990 -0.2414 -0.0011 -0.1411
 3673W        W20520  14.070   4.514   2.260 -0.0954 -0.3014  0.1470
 3674W        W20521   0.827   9.613   2.877  0.0262  0.2255  0.0252
 3675W        W20522   1.582  15.440  14.948 -0.1463 -0.1503 -0.1790
 3676W        W20523  19.253   5.391   4.877  0.0650  0.3322 -0.2701
 3677W        W20524  11.052  11.910   2.960  0.1200  0.0098 -0.0007
 3678W        W20525   6.732  11.750   3.908 -0.1802  0.0093  0.1631
 3679W        W20526  18.289  14.677   4.824  0.2119  0.1446 -0.3651
 3680W        W20527   7.303   2.864  12.936  0.1182  0.1780 -0.3342
 3681W        W20528  19.133  16.147   4.271  0.1678 -0.2629 -0.1911
 3682W        W20529  16.058   4.190   2.746 -0.3267  0.0703 -0.0098
 3683W        W20530  16.755   0.574  10.987  0.0987  0.5005  0.1625
 3684W        W20531   6.237  14.256  14.027  0.1667  0.1269  0.1694
 3685W        W20532   6.745  13.879   0.582  0.3139 -0.4403  0.5155
 3686W        W20533   2.591   5.751  10.752  0.0266  0.1503  0.1893
 3687W        W20534  18.316   0.922   3.173  0.1967 -0.2069 -0.0240
 3688W        W20535  16.972   3.611   2.224 -0.1456  0.2839 -0.0713
 3689W        W20536   9.947   0.876   0.993  0.2147  0.0801 -0.1566
 3690W        W20537  13.244   5.092   0.784 -0.1033 -0.1578 -0.2154
 3691W        W20538   3.893  12.632   5.393  0.3398 -0.0937 -0.0106
 3692W        W20539  12.315  15.119   2.263  0.0199  0.1696  0.0824
 3693W        W20540   8.907   0.073   3.390 -0.0829  0.2039 -0.0619
 3694W        W20541   3.541   4.573   4.599  0.0583 -0.2649  0.0238
 3695W        W20542   9.186   5.928  10.442 -0.2568 -0.0956 -0.0317
 3696W        W20543   2.915  13.880   4.380 -0.3747  0.1254 -0.0672
 3697W        W20544   9.353  15.449   5.363 -0.2406  0.3042  0.0197
 3698W        W20545  12.695  10.692  13.888  0.0749 -0.0688 -0.3901
 3699W        W20546  14.995  12.487   0.803 -0.2325  0.0419 -0.1109
 3700W        W20547  18.210   2.338  11.618 -0.2738  0.0049 -0.2130
 3701W        W20548  16.568   1.110  11.768  0.1423  0.0925  0.1597
 3702W        W20549   0.285   5.520  13.301  0.4883  0.1921  0.6803
 3703W        W20550   5.104  11.399   2.550  0.0927 -0.3052 -0.1456
 3704W        W20551  16.684  18.096  12.171 -0.0224 -0.0183 -0.1711
 3705W        W20552  16.295  11.045  14.257  0.4931  0.3622  0.2140
 3706W        W20553  13.133   0.672  11.778 -0.2999  0.1029  0.0788
 3707W        W20554   1.719   8.867  12.093  0.2253 -0.0601  0.3166
 3708W        W20555   4.288  15.337   3.546  0.0011 -0.2184 -0.0574
 3709W        W20556   7.852   4.085   0.021  0.1664 -0.1058  0.2202
 3710W        W20557  10.170  18.185   4.098  0.1293 -0.1681  0.1561
 3711W        W20558   1.408  11.568  14.514 -0.0862 -0.0987  0.0068
 3712W        W20559   1.039  17.241   2.871  0.1994 -0.0492 -0.1084
 3713W        W20560   2.213   9.012  12.439 -0.0569 -0.0190  0.1382
 3714W        W20561   0.346   9.797   0.304 -0.0633 -0.1010 -0.0031
 3715W        W20562   0.549  12.097   3.249 -0.0521  0.0196  0.1573
 3716W        W20563   9.582   3.025  11.465  0.4464 -0.6963  0.1047
 3717W        W20564   0.060  16.448  13.851 -0.0947 -0.4074 -0.0918
 3718W        W20565   5.278   1.107  10.823  0.1021  0.0664  0.5964
 3719W        W20566   0.236   9.050   4.782  0.4068  0.2949 -0.0011
 3720W        W20567  17.736   6.144  13.389  0.0342  0.1543 -0.1419
 3721W        W20568  17.718  16.211   0.171  0.1160 -0.1264 -0.0044
 3722W        W20569  18.315   9.964  14.208 -0.0113 -0.3813 -0.0999
 3723W        W20570   4.461  19.278   1.225  0.2208 -0.2432 -0.0919
 3724W        W20571  13.771   8.396  12.028  0.1406 -0.0021  0.0657
 3725W        W20572   0.424   5.656  11.971 -0.3149  0.2395 -0.0174
 3726W        W20573   2.588  12.590   9.544 -0.2329 -0.0649  0.1521
 3727W        W20574   7.739   3.539  11.965  0.1363 -0.1724  0.0965
 3728W        W20575  15.902   6.670  14.295  0.3593  0.0822 -0.1335
 3729W        W20576   0.939   2.958   0.665  0.3131 -0.0527  0.1180
 3730W        W20577   8.408   7.542  10.596 -0.1380  0.1801  0.1707
 3731W        W20578  15.012  11.688  11.795  0.1793 -0.1211  0.1547
 3732W        W20579   6.727  14.418  14.174  0.2524  0.3529  0.0998
 3733W        W20580  10.347   6.731  13.338 -0.4770 -0.0966 -0.0328
 3734W        W20581   2.862   2.506   2.872 -0.2701 -0.1065 -0.0745
 3735W        W20582  11.685   6.655   5.219  0.0507 -0.3679 -0.1742
 3736W        W20583  10.538   3.803   2.036  0.2114  0.0778  0.1602
 3737W        W20584  17.132   2.144   1.651 -0.6000 -0.0734 -0.0066
 3738W        W20585  14.630  13.573   3.768 -0.5112  0.2934 -0.2514
 3739W        W20586  12.809  16.173  14.468 -0.4970 -0.1401  0.1613
 3740W        W20587  18.106  12.270  11.136 -0.3481 -0.1572  0.0384
 3741W        W20588   7.658   5.200   1.291  0.1640  0.3159  0.0776
 3742W        W20589  17.270   3.367  12.912 -0.3007  0.0509 -0.0191
 3743W        W20590   1.404   0.867  11.920  0.0228  0.2068  0.0234
 3744W        W20591  16.636  17.535  13.894 -0.1252  0.0017  0.2035
 3745W        W20592  17.181   4.297  11.892  0.5189  0.1906  0.2744
 3746W        W20593   6.859  18.620   3.404 -0.2162  0.1145 -0.3090
 3747W        W20594  17.484  13.435   2.419  0.1745 -0.1367 -0.1650
 3748W        W20595   8.655  15.449   4.261  0.2192 -0.1396  0.1889
 3749W        W20596  14.187   0.555   5.048 -0.0146 -0.0432 -0.0744
 3750W        W20597  11.073  13.601  12.765 -0.0885 -0.2544 -0.2601
 3751W        W20598   4.002  16.920  12.722  0.0545  0.1688  0.3751
 3752W        W20599   6.330   4.790   1.057  0.2019 -0.0431  0.2382
 3753W        W20600   3.595   4.787   0.996 -0.0002 -0.1372  0.1901
 3754W        W20601   8.540   3.055   0.689 -0.2814  0.1126  0.1328
 3755W        W20602  12.535  14.599   3.446 -0.0629 -0.2552 -0.2896
 3756W        W20603   5.762   9.755   2.719  0.3823 -0.4976 -0.0862
 3757W        W20604   7.906  15.361  12.887  0.0764 -0.1101  0.1679
 3758W        W20605  10.601  13.555  14.838  0.0841 -0.3806 -0.0107
 3759W        W20606  15.274  13.910   4.388 -0.1679  0.1583  0.1062
 3760W        W20607   3.267  17.674   1.698  0.0568 -0.1251  0.0702
 3761W        W20608  18.603  11.331  13.790 -0.4202  0.0236  0.0691
 3762W        W20609   1.891   3.255   0.370 -0.2658  0.0176 -0.1360
 3763W        W20610  15.281  15.572   2.051  0.1064 -0.2922 -0.0339
 3764W        W20611  13.153   8.913  12.508  0.2083 -0.1087  0.0249
 3765W        W20612  16.531  13.332  10.641 -0.0774 -0.1135 -0.2579
 3766W        W20613   9.931   0.448  14.200  0.0826 -0.2401  0.1298
 3767W        W20614  17.846   4.449  11.934  0.2056 -0.3284  0.1730
 3768W        W20615   0.667   5.125   1.838 -0.1280 -0.2644 -0.3543
 3769W        W20616  17.744  15.047   5.406  0.0498 -0.2109 -0.1432
 3770W        W20617  12.943  15.532   0.754  0.0987 -0.1821 -0.1827
 3771W        W20618  14.119  16.010   2.565  0.1311  0.1667  0.0754
 3772W        W20619  11.125  17.415  14.136  0.0909 -0.0835 -0.1382
 3773W        W20620   6.828  18.708   1.053  0.2655 -0.0081 -0.0828
 3774W        W20621  12.442   9.395   3.885  0.0075  0.0487 -0.0330
 3775W        W20622   9.536  18.211  13.296 -0.0387  0.0002 -0.0387
 3776W        W20623   9.398   5.666   0.015 -0.0774 -0.1179  0.1603
 3777W        W20624  16.958   8.778   1.554  0.0181 -0.1326  0.2484
 3778W        W20625  17.539  15.543  11.008  0.1299  0.0644  0.0159
 3779W        W20626   8.222   0.490  10.671  0.1199 -0.0847  0.0044
 3780W        W20627  15.396  11.283   0.051 -0.1583  0.3932  0.0650
 3781W        W20628  17.351  11.646  11.134 -0.0733  0.0043  0.4563
 3782W        W20629   9.773   6.880  12.150  0.0056  0.0426  0.3000
 3783W        W20630   6.345   3.047  14.299 -0.1431 -0.0155 -0.1184
 3784W        W20631  11.892  13.880   3.904  0.3643  0.0287  0.2080
 3785W        W20632   3.093   1.790   9.455  0.0725 -0.2143 -0.2796
 3786W        W20633   2.787  13.968  10.388 -0.1235 -0.1254 -0.0707
 3787W        W20634  10.346  14.175   4.870  0.0776 -0.2163 -0.3793
 3788W        W20635   4.286  11.105  12.648 -0.0688 -0.0817  0.0818
 3789W        W20636   0.066  18.472  14.711 -0.1387 -0.2430 -0.3762
 3790W        W20637   1.625   2.599  13.055  0.1786  0.0962 -0.0383
 3791W        W20638   8.764   8.576   0.532  0.2418 -0.3571  0.2174
 3792W        W20639   1.324  15.592   3.104  0.1296 -0.1784 -0.0736
 3793W        W20640   3.795   0.800   0.785  0.3667 -0.2695  0.1351
 3794W        W20641  15.332   6.501   0.846  0.0968  0.0186 -0.2060
 3795W        W20642   4.783  14.246  14.608 -0.0526 -0.0565  0.1311
 3796W        W20643  15.822  14.074   3.323  0.0967  0.1865 -0.0161
 3797W        W20644   8.574   5.459   0.946 -0.1797  0.2049  0.0003
 3798W        W20645   5.003   0.769  12.161 -0.4744  0.3637  0.4484
 3799W        W20646  10.573  18.984  12.319 -0.1831  0.1541  0.1334
 3800W        W20647  10.288  12.481   0.660  0.1306 -0.0440 -0.0683
 3801W        W20648   0.547  15.838   0.406 -0.0840  0.2073  0.2045
 3802W        W20649  14.316  10.698  12.187 -0.0923 -0.0880 -0.3726
 3803W        W20650   5.019   3.817   2.452  0.1266 -0.0240  0.1526
 3804W        W20651  16.999  10.376  12.452 -0.2504  0.0054  0.0278
 3805W        W20652   7.074   2.544   1.906  0.1992  0.2328 -0.1703
 3806W        W20653   4.313  15.249   0.317 -0.1862  0.0604  0.0383
 3807W        W20654   9.929  14.128  11.470 -0.2283  0.0302 -0.2009
 3808W        W20655   2.692  12.355   4.551  0.0189 -0.3855 -0.0210
 3809W        W20656  14.363  16.927   3.599  0.3036  0.0674 -0.1593
 3810W        W20657   4.890   7.888   3.588  0.0639  0.0435  0.2938
 3811W        W20658   3.392   7.347  14.485 -0.3577 -0.1252 -0.0913
 3812W        W20659  12.504  17.354   0.255 -0.2721 -0.1768  0.0442
 3813W        W20660   7.267  15.704   0.779 -0.0599  0.1411  0.0138
 3814W        W20661   2.128   9.196  14.032  0.4048  0.0702 -0.1650
 3815W        W20662  14.625   6.529   3.435 -0.0634 -0.0668 -0.0999
 3816W        W20663  18.486  19.177  13.252  0.2508  0.1311  0.0853
 3817W        W20664  17.313   8.055  14.688 -0.0738 -0.0862 -0.0959
 3818W        W20665   1.245   5.441  13.052  0.1739  0.2325 -0.2151
 3819W        W20666  10.224   1.853  12.367  0.0047  0.0843 -0.2493
 3820W        W20667  12.512  13.944  11.786 -0.0533 -0.1483  0.2667
 3821W        W20668  15.072   2.932   4.887  0.1631  0.5046  0.3055
 3822W        W20669   3.873  12.887  12.578 -0.2686 -0.5572 -0.0805
 3823W        W20670  16.946   1.434   5.224  0.2299 -0.1457  0.1446
 3824W        W20671  16.448   3.073  11.525 -0.1527 -0.3179  0.0315
 3825W        W20672  15.103   1.102   2.731  0.1288  0.2909 -0.0789
 3826W        W20673  13.372  11.120  11.892  0.0138  0.2920  0.0940
 3827W        W20674   4.782   8.346  13.681  0.0430  0.0809 -0.2265
 3828W        W20675   3.420  15.206  13.415 -0.0620  0.0902  0.0756
 3829W        W20676  13.540  14.670   5.023  0.1398 -0.3206 -0.1851
 3830W        W20677  18.951  16.041   0.608 -0.0998 -0.3031  0.3105
 3831W        W20678  11.338   3.164  12.844 -0.1263 -0.1098 -0.3107
 3832W        W20679  15.660  17.362  11.779 -0.2898 -0.2935 -0.2166
 3833W        W20680   0.491  14.403   2.546  0.4641  0.4307  0.0612
 3834W        W20681   9.577  10.908   1.699  0.1375 -0.1418  0.1364
 3835W        W20682  18.690   4.799  13.903 -0.2704  0.2239 -0.2517
 3836W        W20683  11.277  17.725   4.463 -0.2167 -0.0997  0.2614
 3837W        W20684  13.144   8.090  10.683  0.3424  0.0646  0.0154
 3838W        W20685   4.801  12.068  13.085 -0.3447 -0.1292 -0.1016
 3839W        W20686   4.789  13.553   1.443 -0.2543 -0.0833 -0.0003
 3840W        W20687  15.875  16.763  13.761  0.1647  0.3597 -0.0500
 3841W        W20688   6.131  17.247   4.797  0.0120 -0.0638 -0.0780
 3842W        W20689   6.102  17.448  10.320  0.1076  0.0070  0.0283
 3843W        W20690   6.601  11.707   1.544  0.1031 -0.1655  0.3180
 3844W        W20691   4.069  12.306   3.978 -0.0878 -0.1091  0.1226
 3845W        W20692  12.383  10.892  14.796  0.2422  0.2318 -0.0540
 3846W        W20693   5.680  17.516  12.023  0.0834 -0.0222  0.0484
 3847W        W20694  13.959   3.130   2.046  0.4188  0.0810 -0.2898
 3848W        W20695   1.251   0.374   2.956  0.1537 -0.1156  0.1380
 3849W        W20696  15.767   0.687   4.340  0.2748 -0.0763 -0.0145
 3850W        W20697  13.456  11.660   1.805  0.2715  0.0640 -0.2004
 3851W        W20698   1.885  15.783  13.737 -0.0973  0.0423 -0.2202
 3852W        W20699  15.687  18.651  12.220  0.0277  0.2277  0.1071
 3853W        W20700  12.973  16.530   3.501  0.1025  0.1561 -0.1522
 3854W        W20701  14.526   1.527   5.342 -0.1620  0.1432 -0.0392
 3855W        W20702   1.089  15.960   1.844  0.1618  0.1300  0.2543
 3856W        W20703  15.158   1.244  12.788  0.0976 -0.0508 -0.1606
 3857W        W20704   2.868  15.786  12.716  0.1676 -0.1312  0.0522
 3858W        W20705   7.245   4.863  12.526 -0.0923 -0.1024 -0.4888
 3859W        W20706  14.213   2.683  14.983  0.2571  0.1183  0.0282
 3860W        W20707   2.369  16.451   3.830  0.1318  0.2396  0.2383
 3861W        W20708   0.967  12.396   1.345 -0.0728 -0.2371  0.1026
 3862W        W20709   1.176   0.731   0.569  0.2546 -0.0770 -0.0890
 3863W        W20710  13.956   3.480  13.586 -0.0407 -0.0249 -0.1564
 3864W        W20711   3.130   0.476  14.479 -0.0044 -0.0566 -0.0739
 3865W        W20712   2.836   2.726  11.618 -0.0333  0.1262 -0.4813
 3866W        W20713  14.671   7.405  10.406 -0.1093  0.2794 -0.3779
 3867W        W20714   5.816   0.591  13.087  0.3823  0.2305 -0.1623
 3868W        W20715   4.212  18.081  10.482 -0.0397  0.2685 -0.0654
 3869W        W20716   1.062   7.994   1.195  0.1895 -0.1275 -0.1611
 3870W        W20717  13.000  17.844  14.690 -0.2417  0.0114 -0.0478
 3871W        W20718  10.517  14.709   2.589 -0.3204  0.3964  0.0067
 3872W        W20719  17.411  15.113   5.788 -0.0704  0.1458  0.2172
 3873W        W20720  12.787  17.913  13.568 -0.0950 -0.1908  0.1439
 3874W        W20721  16.033   5.059   2.722 -0.1847 -0.0462 -0.0724
 3875W        W20722   2.462   0.937  12.796 -0.0486  0.1373 -0.1461
 3876W        W20723  17.716  13.449  14.255 -0.2036  0.2376  0.2949
 3877W        W20724   4.353  14.570   4.036 -0.0109 -0.1237 -0.0792
 3878W        W20725   6.598   3.504   4.187  0.2225  0.0330  0.1279
 3879W        W20726   1.034   0.609   4.871 -0.2559  0.0228 -0.0390
 3880W        W20727  11.902   5.799   2.922 -0.1827  0.3056 -0.1206
 3881W        W20728   7.860  12.273  12.312 -0.0287  0.0173  0.0562
 3882W        W20729   4.506   8.483  14.570  0.1166 -0.1878 -0.0538
 3883W        W20730  13.157  16.452   1.635 -0.2816  0.0759 -0.4640
 3884W        W20731  17.679   6.664  11.563 -0.2027  0.2086  0.2541
 3885W        W20732  11.249   5.504  11.269  0.0325  0.1210 -0.4838
 3886W        W20733   2.645   6.440  13.882  0.2003 -0.1609  0.3526
 3887W        W20734   5.603   4.614   2.555  0.2617 -0.0527  0.1900
 3888W        W20735   2.659  17.532   4.519 -0.1378  0.0566  0.0778
 3889W        W20736  15.487  17.511  12.783 -0.1340  0.1368 -0.1729
 3890W        W20737   3.648  11.532   4.237 -0.2996 -0.1709  0.1186
 3891W        W20738   7.311  13.282   0.558  0.0374  0.2046 -0.0211
 3892W        W20739   0.789  18.779   1.068  0.1507  0.1490  0.0122
 3893W        W20740  11.154   6.654   3.224  0.0065  0.2374 -0.1833
 3894W        W20741  12.094  13.016   1.216  0.3329 -0.1263 -0.0409
 3895W        W20742   9.778   7.920  14.421 -0.1375  0.0301 -0.0715
 3896W        W20743  11.668   0.893  13.400  0.2176  0.0479 -0.1883
 3897W        W20744   7.337  11.098   3.108  0.0826 -0.1862 -0.0315
 3898W        W20745  12.579   1.507   3.970 -0.1247  0.0665  0.0667
 3899W        W20746  17.084   4.321  10.821 -0.0286 -0.0455  0.1289
 3900W        W20747   5.596   4.986   2.156 -0.1866  0.2658 -0.0158
 3901W        W20748  19.030  11.692   3.338  0.1483 -0.0826 -0.0132
 3902W        W20749  11.941  18.324   3.246  0.0406  0.2274 -0.0190
 3903W        W20750   3.714   6.672  11.325  0.0541  0.1484  0.1617
 3904W        W20751  16.961  12.250   0.144 -0.2328 -0.1285 -0.1063
 3905W        W20752  17.943   9.427   0.791  0.0781 -0.0246  0.1018
 3906W        W20753   1.217  17.944  11.931  0.0325 -0.1439 -0.0353
 3907W        W20754   7.636  11.037   0.802  0.2223 -0.0105 -0.1759
 3908W        W20755  13.467  12.472  11.306  0.1585  0.3396 -0.1192
 3909W        W20756   0.010  15.728  14.244  0.1526 -0.0644 -0.2841
 3910W        W20757   6.494  15.044  14.454  0.0246 -0.1855 -0.0601
 3911W        W20758   5.240   4.250   4.634 -0.0394 -0.0242  0.2452
 3912W        W20759  16.138   5.542   1.396  0.2157 -0.3180 -0.0624
 3913W        W20760  10.834   2.740   5.514 -0.1240 -0.0755  0.2478
 3914W        W20761   5.040   0.199  13.314 -0.0965  0.2727 -0.1251
 3915W        W20762   2.585  11.953   1.428 -0.1477 -0.2911 -0.1257
 3916W        W20763  16.586  17.263   0.425 -0.0693 -0.4194 -0.1859
 3917W        W20764  12.853  14.964   3.957  0.0501  0.2460 -0.1913
 3918W        W20765   2.015   2.351   0.858 -0.0863 -0.3528  0.0109
 3919W        W20766  11.775   3.674  11.926  0.0521 -0.0755 -0.1170
 3920W        W20767  13.026  18.996   0.425 -0.1233  0.2119 -0.1735
 3921W        W20768  11.380  16.020   1.789 -0.1833  0.2814 -0.2789
 3922W        W20769   8.054   8.420   2.148 -0.1709  0.1071 -0.1721
 3923W        W20770   2.883  14.570  10.919  0.2418  0.0651 -0.2161
 3924W        W20771  18.455  14.667   2.472 -0.0549 -0.2539  0.1356
 3925W        W20772  18.534   0.904   1.435 -0.2025 -0.1187 -0.0145
 3926W        W20773  16.097  10.482  12.258  0.2100 -0.3213 -0.1441
 3927W        W20774   9.514  12.974  12.870 -0.0806  0.2348 -0.3778
 3928W        W20775  10.187   6.788  10.967  0.3326  0.1291 -0.0135
 3929W        W20776   2.101  10.930  13.229  0.1173  0.1600  0.0929
 3930W        W20777   1.286   8.697   4.045 -0.0849  0.2616  0.3209
 3931W        W20778   1.827   0.498   5.008 -0.2072  0.0072 -0.0481
 3932W        W20779   2.391  14.807   0.165 -0.4779 -0.1270 -0.1200
 3933W        W20780  14.320  10.018   1.881  0.1039  0.2944 -0.0467
 3934W        W20781   8.538   0.490   4.541 -0.0177 -0.2618  0.3212
 3935W        W20782   2.884   5.619   3.190 -0.0561  0.1065  0.0825
 3936W        W20783   7.196  15.148   1.590 -0.1144  0.0220  0.2842
 3937W        W20784  18.426   2.775   0.680 -0.1555  0.4473 -0.3703
 3938W        W20785  17.686  12.034   4.145  0.3650 -0.5482 -0.0493
 3939W        W20786   7.073   2.325   4.558 -0.0018 -0.0060 -0.1749
 3940W        W20787   6.335   4.011   3.462 -0.1139  0.1210  0.2612
 3941W        W20788  15.405  13.851   5.739  0.2762 -0.4114 -0.3221
 3942W        W20789  14.110  11.411  14.593 -0.2553 -0.1476 -0.2932
 3943W        W20790   9.418   8.906  14.491 -0.0410  0.1431  0.0325
 3944W        W20791  15.407   4.952  14.179  0.0226 -0.1959  0.2071
 3945W        W20792   9.050  13.607   3.843 -0.0313 -0.1076  0.0726
 3946W        W20793  14.866  12.842   1.358  0.2172  0.3421  0.1447
 3947W        W20794  13.526  11.639   2.448 -0.0768  0.1385 -0.0134
 3948W        W20795   3.241  12.910   1.034 -0.3052 -0.2004 -0.2321
 3949W        W20796  13.983  17.794  13.407 -0.0110  0.1024 -0.2029
 3950W        W20797  18.913  13.995  14.185 -0.1736  0.1351 -0.0743
 3951W        W20798   5.872   3.020  15.013 -0.0686 -0.0270  0.3753
 3952W        W20799  10.183   6.888  10.451  0.1531  0.4181 -0.1012
 3953W        W20800   9.315   6.872  11.485  0.2997 -0.3313  0.2062
 3954W        W20801  11.451  16.873   4.072 -0.3084 -0.0258 -0.0323
 3955W        W20802  18.260   9.531  13.988 -0.1298  0.2613  0.0275
 3956W        W20803   7.338  13.778   4.761  0.2900  0.2253 -0.3389
 3957W        W20804   6.473  14.597   9.083 -0.2278  0.0524 -0.1979
 3958W        W20805   5.870   3.374  13.219  0.0937 -0.0460  0.0905
 3959W        W20806   1.973   6.113  10.774 -0.0062 -0.1751 -0.0126
 3960W        W20807  18.501  10.474   4.712  0.0910 -0.1462  0.1022
 3961W        W20808   0.156   5.286   1.681  0.2327 -0.0365  0.1075
 3962W        W20809  11.984   5.202  13.586  0.0694 -0.1941 -0.4666
 3963W        W20810  15.238  10.168   1.445 -0.0005  0.1736 -0.0505
 3964W        W20811  16.210   0.928   1.591  0.0535  0.1551 -0.1693
 3965W        W20812   1.160   6.756   4.724  0.0061 -0.1354  0.0532
 3966W        W20813   0.300   1.069   4.630 -0.3277  0.0567  0.0522
 3967W        W20814  10.845  12.648   1.428 -0.1656 -0.0860 -0.3120
 3968W        W20815   4.171   5.661  13.968 -0.4029 -0.0452 -0.3982
 3969W        W20816  12.347  13.735   4.698  0.0080  0.0751 -0.2142
 3970W        W20817  16.847  14.154  14.096  0.0993 -0.0853 -0.0836
 3971W        W20818   3.903  18.508  10.720 -0.0004 -0.3171  0.5996
 3972W        W20819  11.886   2.895   2.809  0.2009 -0.0340  0.1948
 3973W        W20820   5.072  12.248   2.173  0.0149  0.0296  0.0691
 3974W        W20821   2.032  11.768  13.195  0.1152 -0.2069  0.2793
 3975W        W20822  11.763   5.415  10.620 -0.0352 -0.0631  0.0182
 3976W        W20823   1.620  17.826   3.114  0.2600 -0.1338 -0.1131
 3977W        W20824   1.867  18.919   2.988 -0.0962  0.1037 -0.1960
 3978W        W20825   2.791  12.474  11.787 -0.3703 -0.0118  0.0619
 3979W        W20826  10.371   8.377   0.070 -0.2232 -0.4596 -0.1542
 3980W        W20827  10.353   7.164  13.570  0.0435 -0.1479  0.0436
 3981W        W20828   7.429  11.347  12.957  0.3112 -0.2359 -0.3321
 3982W        W20829   7.537  16.782  11.779 -0.1845  0.0808  0.0873
 3983W        W20830  11.711  14.143  11.157 -0.0092 -0.0375  0.4396
 3984W        W20831   7.498   9.074  10.618  0.2227  0.1172 -0.3238
 3985W        W20832   2.693   0.183  14.359  0.1812  0.0305 -0.3273
 3986W        W20833   0.709   6.500   1.581  0.2221  0.1091 -0.3165
 3987W        W20834   5.606  14.748   3.851  0.2371  0.0198 -0.0863
 3988W        W20835  13.570  11.568   3.334  0.0507 -0.1039  0.1544
 3989W        W20836  17.982  13.720  14.690  0.2900  0.1420 -0.1231
 3990W        W20837  11.013   3.406   1.588  0.0481 -0.1690 -0.2310
 3991W        W20838   6.580  11.568  14.960 -0.4479 -0.1353 -0.2011
 3992W        W20839  12.865  18.615   4.929  0.0357 -0.1178  0.3542
 3993W        W20840   7.123  17.006   3.482 -0.0234 -0.0667 -0.0678
 3994W        W20841  13.479   8.339  11.473 -0.2553  0.0931  0.0173
 3995W        W20842  10.718  11.068   0.952 -0.4873 -0.1810  0.3059
 3996W        W20843  15.862   1.354  11.168  0.0096  0.1017 -0.0314
 3997W        W20844  10.594  10.885   3.677  0.1442 -0.0252  0.1460
 3998W        W20845  10.842  11.274   4.080 -0.1664  0.1855 -0.0495
 3999W        W20846  12.194   3.105   2.441 -0.1045  0.1653  0.0124
 4000W        W20847  10.434  17.666   1.241 -0.4743 -0.0970  0.1936
 4001W        W20848   9.575  15.158  14.476 -0.2836 -0.0493 -0.0005
 4002W        W20849  11.202   3.795   1.212 -0.0377  0.1904 -0.1874
 4003W        W20850  12.227  17.426   2.319 -0.0614  0.0898  0.2993
 4004W        W20851  16.930   9.351  14.238  0.0697  0.1077  0.2483
 4005W        W20852   0.099   0.593  10.612  0.1483  0.1287 -0.3278
 4006W        W20853   9.657   1.878   3.214  0.2217  0.3251  0.1657
 4007W        W20854  18.874   9.745  12.009 -0.1692 -0.0854  0.1754
 4008W        W20855  17.448  16.280   2.961 -0.2040 -0.3202 -0.0270
 4009W        W20856  13.479  11.615   1.278  0.1449 -0.1455 -0.1871
 4010W        W20857  15.976  11.440  14.566  0.2226  0.2694  0.3712
 4011W        W20858  17.245  17.110   1.528 -0.2367  0.3049 -0.2061
 4012W        W20859  18.327   9.931   0.372  0.3157 -0.1961 -0.4718
 4013W        W20860  17.130   8.681  12.189 -0.1393 -0.1231  0.0765
 4014W        W20861   2.347  17.730  12.412 -0.0268  0.2769  0.2740
 4015W        W20862  16.645   4.959  11.335  0.3411  0.0542  0.0628
 4016W        W20863   9.198  17.549   2.434 -0.2667  0.0658 -0.1117
 4017W        W20864  14.678   9.642  13.860  0.0921  0.3271 -0.4019
 4018W        W20865   6.794   8.697   2.952  0.2128  0.0243 -0.0940
 4019W        W20866  14.782  17.490  14.085  0.1219 -0.2499 -0.1322
 4020W        W20867   6.125  14.014   4.136  0.3819 -0.0458 -0.0013
 4021W        W20868  17.490   5.296   0.427 -0.0378 -0.0241 -0.0563
 4022W        W20869  15.308   3.344  13.864 -0.0279 -0.1790  0.4252
 4023W        W20870   2.168   0.707  13.368 -0.1522  0.1027  0.1772
 4024W        W20871  16.145   4.078  12.933  0.4559 -0.3575  0.4714
 4025W        W20872  15.302  11.273   3.464 -0.0571  0.0037 -0.0997
 4026W        W20873  10.483  17.264   4.137 -0.3182  0.0908 -0.0479
 4027W        W20874   7.343  18.386   1.128  0.0353  0.0171 -0.1175
 4028W        W20875   6.619  16.616  12.476  0.2658 -0.2735 -0.1428
 4029W        W20876  18.284   8.053  10.703  0.2332 -0.0065  0.0300
 4030W        W20877  16.197   8.614   2.014 -0.0823 -0.2942  0.1959
 4031W        W20878   3.637   5.315   2.787  0.0206  0.0934 -0.0761
 4032W        W20879   8.433   1.704  13.014 -0.1734  0.0425 -0.0616
 4033W        W20880   5.817  15.339   4.373  0.1467  0.1390 -0.1180
 4034W        W20881  18.903  14.247   1.619 -0.4876 -0.1324  0.0363
 4035W        W20882   3.880  13.759   3.120 -0.1871 -0.2810  0.1439
 4036W        W20883   2.981   4.756  13.294  0.2545 -0.0248  0.0167
 4037W        W20884  17.309  18.194  14.957  0.1652  0.1310  0.0020
 4038W        W20885  14.572  10.227  14.296 -0.3717  0.0387 -0.3157
 4039W        W20886   5.050   5.973   2.563  0.0381  0.0253  0.1766
 4040W        W20887   9.928   7.343  11.991  0.2293 -0.1105  0.2030
 4041W        W20888   8.448   4.706   0.354  0.1391  0.1885  0.2816
 4042W        W20889  17.408  10.692  11.375 -0.1911 -0.3682  0.2603
 4043W        W20890   4.669   3.904   0.084  0.0924 -0.1219  0.0322
 4044W        W20891  10.255   7.037  11.447 -0.1505  0.0151  0.2399
 4045W        W20892   3.589   2.142   5.119  0.0994  0.0020 -0.2001
 4046W        W20893  12.661   1.780   5.271  0.1196  0.0426 -0.0922
 4047W        W20894   8.306   7.644   3.657  0.0704  0.0756 -0.2982
 4048W        W20895   7.591   1.013  10.721  0.1011 -0.1393 -0.2091
 4049W        W20896   6.259   9.208   0.528 -0.1679 -0.1417 -0.3567
 4050W        W20897   1.160  18.010   3.188  0.1536  0.3879  0.2387
 4051W        W20898  15.181   2.300   3.988  0.0140  0.0666 -0.0792
 4052W        W20899   0.124  11.746   4.182 -0.0677  0.0767 -0.3495
 4053W        W20900  11.473   9.301   4.405  0.0946 -0.4541  0.1252
 4054W        W20901   5.903   1.691  11.885  0.3096 -0.0422  0.1650
 4055W        W20902  11.695   7.688  12.561  0.1323  0.1103  0.1271
 4056W        W20903  18.918  17.436   1.177  0.0218 -0.1390  0.0748
 4057W        W20904  16.649   7.043   4.746  0.0256  0.3144  0.1473
 4058W        W20905   7.172  18.294  14.202  0.0178 -0.0170  0.1849
 4059W        W20906   8.479   6.289  11.317  0.2169 -0.0600  0.2411
 4060W        W20907  12.205  19.082  11.577  0.3789  0.0199 -0.2642
 4061W        W20908   3.834  16.353  13.570  0.1577  0.3351  0.0325
 4062W        W20909   6.563   6.836  13.436 -0.4708  0.1934  0.3169
 4063W        W20910   3.410   0.628  10.701 -0.0530  0.0311 -0.0483
 4064W        W20911  19.015   7.021  11.308  0.0271 -0.2250 -0.2129
 4065W        W20912   2.181   5.022   1.077  0.1555 -0.1494  0.1780
 4066W        W20913   4.797  12.205   3.295 -0.1559 -0.1785  0.2480
 4067W        W20914  11.018   9.037   0.514 -0.2579  0.1566 -0.1941
 4068W        W20915   6.122   7.604  12.767  0.0525 -0.1279 -0.0994
 4069W        W20916   5.477  14.033  13.041  0.1802  0.1774  0.2282
 4070W        W20917   0.782  15.275   3.750  0.1041 -0.0861  0.0195
 4071W        W20918  17.601  19.168  11.543  0.2921 -0.1288 -0.3889
 4072W        W20919  12.112   4.778   3.066  0.0555  0.0751  0.2462
 4073W        W20920   0.731  18.645   0.479  0.0965  0.1099 -0.1080
 4074W        W20921  11.419  18.502  13.138 -0.0306  0.2201 -0.2620
 4075W        W20922   3.329   7.826   0.173 -0.1288 -0.1472 -0.3551
 4076W        W20923  11.320   8.205  10.660  0.0093  0.0636  0.1739
 4077W        W20924   2.970  16.049   0.889 -0.2213 -0.4288 -0.0602
 4078W        W20925   4.904   4.093   5.481 -0.0214  0.1377  0.1922
 4079W        W20926   7.755  13.762   4.406 -0.2262  0.1606  0.1322
 4080W        W20927   6.034   9.755   1.393  0.1172 -0.1014  0.0775
 4081W        W20928   4.224   8.668  13.064  0.3429 -0.5604 -0.0235
 4082W        W20929   7.028  19.021   2.152  0.0233  0.0639 -0.1443
 4083W        W20930  12.967   7.814   3.100  0.2439 -0.2231 -0.1015
 4084W        W20931   4.741   8.207   3.973 -0.0637 -0.0130  0.3008
 4085W        W20932   5.249  14.351  12.676  0.2224  0.1449  0.2868
 4086W        W20933   3.821   2.339  10.673  0.0594  0.0960 -0.3010
 4087W        W20934   4.438  16.887  13.031  0.0367  0.1121  0.0152
 4088W        W20935  17.729  11.118   2.746  0.1002 -0.0020 -0.1158
 4089W        W20936   8.550   6.231   9.235  0.2503  0.0229  0.0629
 4090W        W20937  15.434  13.766   3.363 -0.1706 -0.0007  0.3133
 4091W        W20938   7.678   8.692   2.482 -0.0483 -0.1393 -0.0786
 4092W        W20939  10.815  15.979  13.712 -0.0854  0.1561 -0.0499
 4093W        W20940  14.169   6.799   1.672  0.0879 -0.0226  0.3628
 4094W        W20941   7.483  18.750   2.830  0.0359 -0.1074 -0.1525
 4095W        W20942  11.984  10.628   0.069 -0.4437 -0.4678 -0.1283
 4096W        W20943  10.054   5.559  11.668  0.0854  0.2068  0.1823
 4097W        W20944  14.695   3.930  13.523  0.0304  0.3131 -0.0143
 4098W        W20945   3.300  16.891   5.109 -0.0345  0.2581 -0.1645
 4099W        W20946  10.468   5.651   1.582 -0.1462  0.0494  0.3568
 4100W        W20947   2.120  18.624  11.312  0.0418  0.0127  0.1586
 4101W        W20948  14.448  12.726   1.577  0.4025 -0.2179 -0.0942
 4102W        W20949  16.391   4.900  13.037 -0.1340 -0.0435 -0.1443
 4103W        W20950  17.539   1.296   4.255  0.0982 -0.0550  0.2919
 4104W        W20951   5.030   3.554  12.077  0.0181  0.2642  0.2206
 4105W        W20952   3.476   4.381   0.145 -0.2101 -0.2686  0.0663
 4106W        W20953  13.052   0.162   3.920  0.0417 -0.1142  0.0574
 4107W        W20954   7.952   4.691   5.145  0.0093 -0.0528 -0.0563
 4108W        W20955   9.620   1.156  11.016 -0.2055  0.0803 -0.1236
 4109W        W20956   4.775  15.297   0.456 -0.1018  0.1139  0.1151
 4110W        W20957  10.481   5.903   0.710  0.0779 -0.0771 -0.1149
 4111W        W20958   7.980  10.753   0.659 -0.1063  0.1546 -0.0312
 4112W        W20959   7.894  16.712   4.917  0.2684  0.0123 -0.0134
 4113W        W20960   3.770   9.380  10.532  0.0445 -0.3513 -0.7199
 4114W        W20961   4.705   9.258   1.267  0.1187 -0.0397  0.1709
 4115W        W20962  13.539  10.842   4.891  0.1063  0.3897 -0.2493
 4116W        W20963   9.687   4.079  10.544  0.1671  0.1167 -0.0043
 4117W        W20964   6.090  17.683  11.108 -0.1837  0.1965  0.1314
 4118W        W20965   6.442  19.077   5.227  0.0249  0.1069  0.1147
 4119W        W20966   9.037  18.221   9.949 -0.1811 -0.1081  0.1562
 4120W        W20967  12.073  16.985   1.516  0.0500  0.2222 -0.2543
 4121W        W20968   8.248   0.845  13.229  0.0373  0.1398  0.0073
 4122W        W20969  17.610   5.310  13.751  0.3037  0.0318  0.2716
 4123W        W20970   2.668   2.257  14.666 -0.0116  0.1853 -0.3200
 4124W        W20971  12.065   1.574   1.768  0.1312 -0.1284  0.0414
 4125W        W20972  16.729  15.983   3.091 -0.0079  0.1433 -0.0139
 4126W        W20973  10.697  18.327  11.110 -0.1233  0.0249  0.0260
 4127W        W20974   0.421  13.237   4.453  0.0141  0.1036 -0.2477
 4128W        W20975   0.961   8.284  14.371  0.3856  0.1708 -0.1982
 4129W        W20976   2.035   6.013   1.316 -0.2859  0.0443 -0.2448
 4130W        W20977  13.231  17.473  12.991 -0.1869 -0.0836 -0.0963
 4131W        W20978  10.062   5.864   4.890  0.1403 -0.0917 -0.3074
 4132W        W20979   0.704   9.777  12.228 -0.4426  0.0162  0.1544
 4133W        W20980   5.388  17.620  10.368  0.3891  0.0523  0.0522
 4134W        W20981   3.251   0.784   3.419 -0.2184  0.1961 -0.0246
 4135W        W20982   3.208  14.241   4.953 -0.1325  0.3768  0.0689
 4136W        W20983  16.390   8.147   3.332  0.2017 -0.1291 -0.0539
 4137W        W20984   9.375   0.790  12.265 -0.0130  0.1308  0.3614
 4138W        W20985  13.315  12.033   3.787 -0.0605 -0.0370 -0.2504
 4139W        W20986  10.128   4.864   2.366 -0.0616 -0.0854  0.0219
 4140W        W20987  18.568  12.215   4.072  0.4553  0.0317  0.0501
 4141W        W20988   9.414  12.837  12.035  0.0488  0.0190  0.0741
 4142W        W20989   4.573   9.615   4.806 -0.2326  0.0698  0.2506
 4143W        W20990   8.875   8.108   9.982 -0.0337 -0.1907 -0.2235
 4144W        W20991   7.924   8.189  10.154  0.1668 -0.2987  0.1366
 4145W        W20992   4.847  11.996   1.742 -0.0735 -0.0405 -0.3261
 4146W        W20993   1.296  18.579  11.931  0.0122 -0.2243 -0.2612
 4147W        W20994  10.550  17.215   5.210 -0.2903  0.1388  0.1329
 4148W        W20995  10.047  18.874   2.158 -0.0503 -0.2318  0.1349
 4149W        W20996  13.845  14.369   5.249  0.0157 -0.0556  0.0269
 4150W        W20997  10.415   4.890   1.938 -0.4723  0.3313 -0.2549
 4151W        W20998  18.398  10.709   2.699  0.0756 -0.2180  0.0479
 4152W        W20999   5.841  14.517  13.820  0.0332  0.0642  0.1166
 4153W        W21000   9.705   0.231  13.696 -0.3504  0.0537 -0.1700
 4154W        W21001  14.879   5.660   3.654  0.4015 -0.2323 -0.2737
 4155W        W21002  16.569   2.600   1.240 -0.2508 -0.1759  0.1456
 4156W        W21003   7.370  18.460  11.175 -0.1726 -0.0172  0.1468
 4157W        W21004   1.220   9.986  14.941 -0.0310  0.4448  0.0576
 4158W        W21005   9.452   1.213   2.296 -0.0301  0.5480 -0.4455
 4159W        W21006  11.455   3.047   3.254 -0.0213  0.1005 -0.1658
 4160W        W21007   7.305  15.365  14.958  0.0223 -0.0784  0.0227
 4161W        W21008   7.664   3.980   1.386 -0.0895  0.2722  0.1151
 4162W        W21009  18.491   7.774   1.414  0.1571 -0.0101  0.1552
 4163W        W21010   8.372  18.056  11.431 -0.1393 -0.0073  0.1510
 4164W        W21011  16.197   9.582  14.468  0.2052  0.4659  0.0190
 4165W        W21012  16.253  14.678   9.574  0.0868 -0.4776 -0.0012
 4166W        W21013  12.172  10.080   0.870  0.0726  0.0688 -0.1151
 4167W        W21014   0.466  16.775   3.598 -0.0973 -0.0709  0.1958
 4168W        W21015  11.444   9.542  12.591 -0.0103 -0.2176  0.2633
 4169W        W21016   7.590   8.678   3.341 -0.0519  0.0486 -0.2964
 4170W        W21017  18.676   3.560   1.587  0.0462 -0.0055  0.2161
 4171W        W21018   1.441   1.893   0.486 -0.6838 -0.1334  0.1411
 4172W        W21019   4.603  11.817  14.494  0.1106 -0.2249  0.0559
 4173W        W21020  11.239   5.041   2.069  0.1505 -0.1641  0.2654
 4174W        W21021   9.035   2.084   0.699  0.0639  0.1778  0.0439
 4175W        W21022   9.978  18.929   4.798 -0.2354 -0.1177  0.1085
 4176W        W21023   3.288  10.585   2.293 -0.4449 -0.0502  0.1329
 4177W        W21024  18.346  10.081   1.596 -0.1641 -0.2605 -0.1386
 4178W        W21025  18.920   8.278   0.184  0.0575 -0.2596  0.0780
 4179W        W21026   5.610   2.521  12.707 -0.2708 -0.1896 -0.2655
 4180W        W21027  11.878  12.367   0.188  0.2940  0.1359  0.1824
 4181W        W21028  10.763   6.841   0.997  0.5304  0.0781 -0.2396
 4182W        W21029   2.032  11.829  10.954  0.0227 -0.1152  0.2098
 4183W        W21030   5.666  10.016   4.206 -0.0171 -0.0752 -0.1351
 4184W        W21031  13.398  14.332  13.734  0.1345 -0.0869 -0.0077
 4185W        W21032   4.223   9.239   4.700  0.0433 -0.4175  0.1241
 4186W        W21033  16.267   2.228   1.087  0.1218  0.1063  0.0679
 4187W        W21034   2.365   7.051  11.703 -0.0652  0.5081 -0.2339
 4188W        W21035  14.553   9.667  12.361 -0.3590 -0.0050  0.1233
 4189W        W21036   8.936  13.467  11.691  0.0378  0.2283  0.3107
 4190W        W21037  16.486  10.828  11.462 -0.3063 -0.3266  0.0393
 4191W        W21038  10.919   3.257   0.028 -0.3128 -0.1151  0.2590
 4192W        W21039  15.047   9.090  11.100  0.5732 -0.0804  0.3103
 4193W        W21040   7.729  18.103   4.336 -0.1848  0.2294  0.2681
 4194W        W21041  15.450   3.423   4.959  0.2441  0.0293  0.1634
 4195W        W21042  10.184  10.565  11.808  0.2515  0.0674 -0.1363
 4196W        W21043  12.428  10.954  10.030 -0.1030 -0.0131 -0.0848
 4197W        W21044   5.427   4.780  13.145  0.0131 -0.2000  0.2332
 4198W        W21045   8.393   4.424  12.699 -0.1969 -0.1597 -0.2767
 4199W        W21046  10.059  18.111  11.941 -0.0580 -0.0215 -0.2907
 4200W        W21047   8.287  14.516   0.497 -0.3574  0.1337 -0.4499
 4201W        W21048   2.499  14.581   5.005  0.5029 -0.0512  0.3466
 4202W        W21049  18.962  15.623   9.521 -0.1488  0.0174  0.0674
 4203W        W21050   7.126  11.786   1.640 -0.0375 -0.3436 -0.1616
 4204W        W21051  10.900   4.143  11.697  0.2197  0.0457  0.3838
 4205W        W21052   9.644  13.455  12.832 -0.0602  0.3693 -0.0623
 4206W        W21053  12.041   0.743  13.695 -0.1530  0.2067  0.1933
 4207W        W21054  12.161   3.402   1.137  0.0283  0.2012 -0.1064
 4208W        W21055  17.509  13.048   0.348 -0.0916  0.5277  0.0405
 4209W        W21056   3.238   3.896   3.475 -0.3148 -0.0220  0.1231
 4210W        W21057   4.489  13.839  11.315  0.1026  0.0708  0.0511
 4211W        W21058   9.703  13.826  11.099 -0.0984 -0.1020  0.1625
 4212W        W21059  18.132   9.090   3.954 -0.1133  0.3265 -0.2062
 4213W        W21060   9.877  16.771  12.255  0.1147 -0.3169 -0.0021
 4214W        W21061  16.331  16.790   3.798  0.0118  0.1779  0.0206
 4215W        W21062   2.491  12.261   0.137  0.3908 -0.1340 -0.2263
 4216W        W21063   6.146   1.929  12.982 -0.0882 -0.0855  0.1222
 4217W        W21064  18.699   8.648   1.204 -0.0415  0.1105 -0.0198
 4218W        W21065   0.315   6.443   0.292  0.2423 -0.0749  0.0152
 4219W        W21066   5.884   4.125   2.119 -0.1824  0.1430 -0.0268
 4220W        W21067   5.997   7.330  12.344  0.3909 -0.0390 -0.3183
 4221W        W21068  15.895   7.380   0.424 -0.1163  0.3840  0.0320
 4222W        W21069   5.872  13.901   4.552  0.2142  0.2646  0.0821
 4223W        W21070  11.583  10.431   1.320 -0.0059 -0.3485 -0.0569
 4224W        W21071   4.193  17.009   2.464 -0.0380  0.0887  0.1329
 4225W        W21072  11.732  13.082   3.292  0.0962  0.2167  0.2480
 4226W        W21073   8.843  17.337   0.274  0.3874  0.3425 -0.0796
 4227W        W21074   1.870   0.118   3.830  0.1218 -0.3218 -0.2188
 4228W        W21075   9.816  18.040   0.461  0.1400 -0.1532  0.0579
 4229W        W21076   5.615  17.413  11.119  0.0685 -0.0685 -0.1227
 4230W        W21077  11.287  16.559  14.038  0.3301  0.0491 -0.1058
 4231W        W21078  11.007   1.184  13.230 -0.1988  0.0303  0.4629
 4232W        W21079  17.525   9.464  12.550  0.1156 -0.0466  0.1715
 4233W        W21080   7.178   1.209  14.031  0.0092  0.1215 -0.0500
 4234W        W21081  11.159   4.110   5.197  0.1891  0.1201  0.2250
 4235W        W21082  10.205  13.538   0.172 -0.1104  0.2879 -0.0798
 4236W        W21083  14.590  15.576   0.106 -0.1714  0.2758  0.3810
 4237W        W21084  12.861  18.860  13.960 -0.2075  0.3765 -0.0669
 4238W        W21085  13.095  11.989   2.104  0.1409  0.2709 -0.1137
 4239W        W21086  14.664  14.344   2.480  0.1585 -0.1116  0.1365
 4240W        W21087  18.683  16.529   9.872  0.2279  0.0557  0.1772
 4241W        W21088   6.506  16.071  12.658 -0.0177 -0.1029 -0.0590
 4242W        W21089  10.771  10.224   2.908  0.0020  0.1899  0.3122
 4243W        W21090  17.239  13.415   9.796 -0.2030  0.2479 -0.0460
 4244W        W21091  14.257  17.288   3.082 -0.1028 -0.1022  0.1833
 4245W        W21092   4.146  18.683   0.061 -0.0367  0.1252  0.0518
 4246W        W21093   7.557   7.784  11.203 -0.0388 -0.0069 -0.2662
 4247W        W21094  16.625   0.009  11.235  0.2365 -0.4306  0.1303
 4248W        W21095   8.388   9.196   2.558 -0.3137 -0.0411  0.1079
 4249W        W21096  19.033  12.686  12.613  0.0991  0.0784  0.1965
 4250W        W21097  18.092   5.867  12.190  0.0855  0.1534  0.1050
 4251W        W21098  11.855   4.064  12.650  0.2543 -0.0724 -0.0332
 4252W        W21099  15.656  16.460  14.162 -0.0474  0.1297  0.0629
 4253W        W21100   6.627   4.123  12.714  0.0337  0.0272 -0.1137
 4254W        W21101   8.359  11.687  12.139  0.1878  0.0683  0.4199
 4255W        W21102   4.268   1.479   1.056 -0.1993 -0.0056 -0.0275
 4256W        W21103  11.354   1.369  12.495  0.4381 -0.1629 -0.1868
 4257W        W21104  16.212  16.021  11.433 -0.0167 -0.2031  0.1171
 4258W        W21105   9.153   0.974   0.512  0.1557  0.0490 -0.1701
 4259W        W21106   6.363   5.673  12.732 -0.3190 -0.0199  0.0934
 4260W        W21107  14.149  10.935  10.557 -0.0763  0.1676  0.0222
 4261W        W21108   8.676   3.234   3.834  0.0282 -0.3700  0.0392
 4262W        W21109  10.925   9.230   0.969  0.0875  0.2396  0.3491
 4263W        W21110  17.788  14.942  11.638  0.0081  0.2633 -0.1287
 4264W        W21111   7.407  15.425  13.669 -0.0348 -0.1828  0.0207
 4265W        W21112   4.812   8.547   0.496  0.0374 -0.3614 -0.0316
 4266W        W21113   6.821  11.876  10.247 -0.0471  0.0181  0.1727
 4267W        W21114   6.350  17.296   1.942 -0.3601  0.0717  0.1982
 4268W        W21115  15.057  16.148   2.977  0.0841 -0.1030 -0.3329
 4269W        W21116  16.258   6.367   4.069 -0.1121  0.0226  0.0443
 4270W        W21117  13.637   3.443   3.791 -0.0603  0.3491 -0.2936
 4271W        W21118   4.680  11.523  11.926  0.4050 -0.3885  0.0607
 4272W        W21119   8.240   9.171   4.402 -0.3119  0.1296 -0.0328
 4273W        W21120   6.342  18.921   4.750  0.0009 -0.1246  0.0212
 4274W        W21121   2.758  12.730   1.088  0.0904  0.1126  0.2559
 4275W        W21122   2.068   5.430   2.445 -0.1848  0.1643  0.0584
 4276W        W21123   8.877  10.023   2.986  0.0309 -0.0181 -0.2498
 4277W        W21124  17.347   4.916   0.153 -0.0363 -0.0664 -0.0004
 4278W        W21125  11.363  10.841   4.714  0.0126 -0.0668 -0.1084
 4279W        W21126  17.674  15.595  13.702 -0.3855 -0.1402 -0.2137
 4280W        W21127   1.720  11.434  10.965  0.1758  0.1199  0.3816
 4281W        W21128  15.055   7.021   4.906 -0.2312 -0.0740  0.0248
 4282W        W21129   8.924  18.127   4.715 -0.4389 -0.0152  0.2140
 4283W        W21130  16.175   3.604   1.101  0.1276  0.1022  0.0530
 4284W        W21131   7.463   6.359   2.824 -0.1731  0.0525  0.0706
 4285W        W21132   8.693   5.705  10.332  0.2050 -0.0512 -0.2409
 4286W        W21133   8.655   0.965   5.412 -0.2830 -0.2351 -0.2487
 4287W        W21134   4.735   3.454   4.222  0.0431  0.0224 -0.0462
 4288W        W21135  18.544  10.925   3.793 -0.0524 -0.2727  0.1049
 4289W        W21136   0.564  11.966   0.723  0.0205  0.0465  0.1414
 4290W        W21137   9.711   5.620  14.251 -0.1873 -0.0438  0.0668
 4291W        W21138  19.189  13.552   0.926  0.0396  0.2026 -0.0245
 4292W        W21139  17.130   8.825   0.595  0.2348  0.2837 -0.0587
 4293W        W21140  17.893   0.252  10.718 -0.3502  0.1677 -0.3480
 4294W        W21141   9.147   1.165  11.345  0.0050 -0.1546  0.0285
 4295W        W21142  12.069  10.776  12.540 -0.0594  0.4379 -0.1569
 4296W        W21143   8.575  16.606  13.914 -0.1844 -0.0213 -0.1219
 4297W        W21144  19.210   3.184  12.590  0.2186 -0.0735 -0.0657
 4298W        W21145   7.342   8.551  14.883 -0.0459 -0.0384  0.1659
 4299W        W21146   3.113  17.752  11.646  0.1263  0.2386  0.0921
 4300W        W21147  14.063  10.765   4.747  0.2691  0.3454  0.1525
 4301W        W21148   6.159  16.541   3.143 -0.0216 -0.0076 -0.3454
 4302W        W21149   9.523   6.090   4.622 -0.1684 -0.1018  0.0985
 4303W        W21150  16.154   7.812   0.264  0.0609  0.4012  0.0802
 4304W        W21151   4.837  10.077  10.104  0.3205  0.2257  0.0981
 4305W        W21152  11.422   0.238   4.848 -0.0286  0.3580  0.3320
 4306W        W21153   5.927   0.299   0.627 -0.3176  0.3790  0.0000
 4307W        W21154  10.091  14.390   2.801 -0.2106  0.0827 -0.0899
 4308W        W21155   8.082   3.818  10.577  0.1170 -0.1133 -0.2815
 4309W        W21156   2.794   6.289  10.190  0.3503 -0.1229  0.0629
 4310W        W21157  17.776  12.917  14.921 -0.2924  0.0010 -0.0596
 4311W        W21158  17.416   7.095  11.825 -0.2072 -0.1058  0.1706
 4312W        W21159  18.171  15.003   1.394  0.1436 -0.2121  0.0082
 4313W        W21160   8.103  11.887  13.319  0.0129  0.0314  0.2473
 4314W        W21161   7.176  15.985   3.394  0.2672 -0.0033  0.3254
 4315W        W21162  12.178   5.563   4.262 -0.0682  0.0187 -0.0483
 4316W        W21163   6.794   6.100  11.497  0.2175  0.1626 -0.3288
 4317W        W21164  11.613  15.367   1.082 -0.2923  0.0291  0.0796
 4318W        W21165  10.583   0.413   4.176  0.1863 -0.0690  0.2251
 4319W        W21166   3.023  13.160  13.841 -0.0982  0.0257  0.0504
 4320W        W21167  18.802  17.164   2.980 -0.1336 -0.5062  0.0723
 4321W        W21168   2.758  10.208  14.779 -0.0472 -0.2787 -0.1876
 4322W        W21169   4.788  11.156  12.973  0.0290  0.0059  0.0288
 4323W        W21170  10.144  12.793   3.232 -0.0633 -0.1994  0.0385
 4324W        W21171  18.280   3.628  11.656  0.0062  0.1586 -0.1353
 4325W        W21172  10.987   0.076   0.521 -0.2171  0.5631 -0.2800
 4326W        W21173   3.892   5.741  14.652  0.1890  0.3080  0.2751
 4327W        W21174   1.642   8.232  12.177 -0.0253  0.3469 -0.0531
 4328W        W21175   9.565  17.856   3.674 -0.2066 -0.3928 -0.0297
 4329W        W21176   8.989   7.082   0.501  0.1538 -0.2395 -0.0298
 4330W        W21177  11.366   4.573   2.336  0.1494 -0.0765 -0.1881
 4331W        W21178  10.813   9.292   0.043  0.0351 -0.1006  0.0642
 4332W        W21179   0.240  17.665  11.106  0.0497  0.1362  0.0595
 4333W        W21180   7.566  15.856  10.984 -0.2185 -0.1230  0.1674
 4334W        W21181   3.104   9.998   1.521 -0.0539  0.2412 -0.2347
 4335W        W21182   7.038  18.284   3.835 -0.2466  0.4201  0.0425
 4336W        W21183  11.689   4.066  10.474 -0.0451  0.0422 -0.1362
 4337W        W21184  13.701  15.185   2.054  0.1386  0.2689  0.3394
 4338W        W21185  19.159   5.681   3.156  0.1103  0.0269 -0.1102
 4339W        W21186   3.628   0.875  12.309 -0.0843 -0.1187 -0.2111
 4340W        W21187   9.312  10.801  13.209  0.0390 -0.1920  0.2294
 4341W        W21188  19.085  17.418  11.292 -0.3043  0.0409 -0.4860
 4342W        W21189   4.829  10.977   0.543  0.1958  0.0694 -0.0606
 4343W        W21190  17.187   6.672   4.055  0.0053 -0.1981 -0.0645
 4344W        W21191   8.665  17.486  13.481  0.5043 -0.3433  0.0074
 4345W        W21192  14.978   9.035   3.436  0.1759  0.2934 -0.1076
 4346W        W21193   3.027  11.361  12.962  0.2543 -0.0629 -0.1365
 4347W        W21194   1.810  12.814  13.630 -0.2807 -0.1155 -0.0702
 4348W        W21195   5.361  17.792  12.846  0.0730 -0.0588  0.0050
 4349W        W21196   5.721  17.372  10.635 -0.2119  0.2106 -0.1400
 4350W        W21197  15.374  18.307  14.147  0.0260  0.1344  0.1193
 4351W        W21198   3.516   6.783  13.628 -0.1080 -0.3934  0.3154
 4352W        W21199  15.015  13.206   0.560  0.0419 -0.0695 -0.0842
 4353W        W21200  13.362  18.918  10.799 -0.4867  0.2331  0.2285
 4354W        W21201  18.554   2.510  14.642  0.2469 -0.0117  0.4080
 4355W        W21202  12.994   0.232  12.083 -0.0477 -0.3844  0.0463
 4356W        W21203   9.404  11.179   3.069  0.0169  0.4704 -0.0346
 4357W        W21204   1.096  14.773  14.920 -0.0727 -0.0857  0.1898
 4358W        W21205  18.203  15.063   3.299 -0.0420 -0.1630  0.1955
 4359W        W21206  14.705   4.935   4.289  0.0908  0.0380 -0.3748
 4360W        W21207  12.482  16.011   2.965 -0.2265  0.4108  0.2579
 4361W        W21208  14.477  15.380   4.573  0.1155  0.2877 -0.0461
 4362W        W21209  17.723   5.364  12.832 -0.1054 -0.1477 -0.0367
 4363W        W21210   3.971   9.685  12.340 -0.0619  0.2099 -0.1714
 4364W        W21211   2.764   9.075   1.013 -0.1660 -0.0154  0.2187
 4365W        W21212  10.416   9.775   2.880 -0.1623  0.4701  0.5871
 4366W        W21213   3.908   3.932  14.218  0.2282 -0.0743 -0.0831
 4367W        W21214  15.192   3.157   5.315 -0.2674  0.2228  0.2074
 4368W        W21215   8.225   3.293  11.290  0.0387 -0.3385  0.2218
 4369W        W21216   5.052   1.121  13.178  0.1665  0.0278  0.0845
 4370W        W21217  16.127  10.982   0.657 -0.1500 -0.0030 -0.3040
 4371W        W21218   0.250   8.871   1.202  0.2246  0.1119 -0.1061
 4372W        W21219   7.541  13.791  14.000 -0.0941  0.2461 -0.0794
 4373W        W21220  16.920   4.360   5.995  0.2065  0.0139  0.1049
 4374W        W21221  17.652  14.312  13.874  0.1251 -0.1182 -0.1852
 4375W        W21222   6.598   1.568   1.985  0.1500 -0.0094 -0.1486
 4376W        W21223   1.165   3.817   1.843 -0.0674  0.3479  0.2716
 4377W        W21224   0.361   5.875  14.123 -0.2350  0.5670  0.2096
 4378W        W21225  16.650   9.132   1.986 -0.5237 -0.1965 -0.2832
 4379W        W21226   9.210  17.876   5.565  0.0418 -0.0275 -0.1567
 4380W        W21227  15.707   4.157   4.699 -0.2060 -0.1481 -0.1412
 4381W        W21228   5.685  16.711   2.511 -0.1322 -0.1590  0.0362
 4382W        W21229   0.412   5.358   5.488 -0.1239 -0.3543 -0.2537
 4383W        W21230   8.529  14.676   1.583  0.1148 -0.0355 -0.0289
 4384W        W21231  19.013   9.055   4.443  0.0581 -0.0744 -0.0786
 4385W        W21232  13.463   9.578   2.278 -0.0928  0.0853 -0.0304
 4386W        W21233   3.595  15.580  12.475 -0.1640  0.0681  0.2752
 4387W        W21234   7.350   2.202  13.897 -0.1382 -0.2073  0.1316
 4388W        W21235   0.694  13.286  10.755  0.3300 -0.1302  0.1557
 4389W        W21236   9.315  10.664   3.521  0.1894 -0.0356 -0.0663
 4390W        W21237   0.743   2.570   2.421  0.1004  0.2881 -0.0227
 4391W        W21238   2.109   3.214   1.182 -0.2303 -0.0496 -0.2210
 4392W        W21239  15.201  17.066   4.043 -0.2017 -0.0742  0.1513
 4393W        W21240   6.611  18.525  11.387  0.2225  0.1819  0.3096
 4394W        W21241   8.164   5.818   0.929 -0.3704  0.0618  0.2530
 4395W        W21242  11.554  13.806  12.645  0.1681  0.3055 -0.1445
 4396W        W21243  15.009   3.779  13.915  0.2530 -0.2158  0.3533
 4397W        W21244  14.587  18.680  11.472  0.1618 -0.2288 -0.0763
 4398W        W21245   8.803  12.092  12.233  0.1996 -0.0079  0.0015
 4399W        W21246   8.046   8.890  10.913  0.2717 -0.2611 -0.3652
 4400W        W21247  10.762   0.977   4.613 -0.3330 -0.1757  0.1491
 4401W        W21248   8.605   8.159   4.432 -0.2164 -0.0890  0.1162
 4402W        W21249  18.355   5.098  14.074  0.0820  0.1370  0.6226
 4403W        W21250  15.485  16.309   0.873  0.0938  0.3008 -0.2478
 4404W        W21251  11.883   6.013   4.586  0.0289 -0.0075  0.0515
 4405W        W21252   3.110   6.523  14.020  0.2232 -0.1138  0.0128
 4406W        W21253   2.038  16.197  12.743 -0.0317 -0.0187  0.2814
 4407W        W21254   2.132   5.485   1.354 -0.3257 -0.1323 -0.0849
 4408W        W21255  11.559  10.404   0.305  0.0391  0.3101  0.0425
 4409W        W21256  17.530   6.308  13.848  0.0142 -0.2073 -0.2828
 4410W        W21257  16.166   7.402   2.129 -0.0384  0.0222 -0.0721
 4411W        W21258   9.940  14.039   0.169  0.1347 -0.1464 -0.2636
 4412W        W21259  12.739  15.220  12.923 -0.2546 -0.0516  0.4185
 4413W        W21260  10.711  17.444   3.041 -0.2042 -0.0074  0.0501
 4414W        W21261   1.447  16.174   3.150  0.0880 -0.0776  0.0259
 4415W        W21262  16.292   6.852   4.004 -0.0450 -0.2099  0.2632
 4416W        W21263   9.095  17.356  14.368 -0.3157  0.2359  0.3724
 4417W        W21264   4.635  17.740  13.337  0.2718  0.2998  0.1244
 4418W        W21265   3.598  17.414   3.526 -0.1823  0.1682 -0.0776
 4419W        W21266   8.334  15.301   3.023 -0.0098  0.0919  0.0221
 4420W        W21267   8.418   6.204  10.263 -0.2214 -0.0707 -0.3222
 4421W        W21268  15.975   5.687   0.938 -0.1768 -0.0175 -0.1916
 4422W        W21269   5.462  13.618   4.815 -0.1089  0.0491  0.0525
 4423W        W21270   4.827   5.139   5.713 -0.0415  0.0957  0.1376
 4424W        W21271   8.972  16.357   1.163  0.0400 -0.2079 -0.2873
 4425W        W21272  10.047   2.162   3.298 -0.0353 -0.0576  0.1217
 4426W        W21273  18.689   9.941   1.293 -0.1168 -0.1213  0.1960
 4427W        W21274   8.022   6.761  13.041 -0.1915  0.1238 -0.1725
 4428W        W21275  11.624   1.758   0.895  0.0674  0.3101  0.0985
 4429W        W21276  17.223  16.848  14.538 -0.0796 -0.2797  0.1626
 4430W        W21277  18.836  12.238   2.427  0.2282  0.0225 -0.0741
 4431W        W21278   8.904  11.558  12.397 -0.2258 -0.0742  0.0191
 4432W        W21279  10.034   9.116   0.868  0.0134  0.4380 -0.4317
 4433W        W21280  17.328   1.435  13.950 -0.2052 -0.0497  0.0455
 4434W        W21281   6.210   0.915  12.881  0.1459 -0.0495  0.1226
 4435W        W21282   6.223  11.410  13.272  0.1579  0.0256 -0.1315
 4436W        W21283   3.591  11.937  12.662  0.1995 -0.1200  0.0061
 4437W        W21284   5.364   7.364  12.169 -0.4472 -0.0624 -0.3008
 4438W        W21285  15.309   8.868  10.247  0.1126  0.0605 -0.2620
 4439W        W21286  16.831   8.253  12.081  0.0479 -0.1554 -0.3150
 4440W        W21287  16.744   6.047  13.528 -0.0355  0.2531 -0.3719
 4441W        W21288  10.591  13.954   0.850  0.0247 -0.0354  0.0655
 4442W        W21289   8.056   6.653  14.558  0.0664  0.2153  0.1742
 4443W        W21290   6.535  13.685   4.096  0.3748  0.1915 -0.3416
 4444W        W21291   4.527  10.524   4.373 -0.1237  0.0502  0.2760
 4445W        W21292  10.113  13.714  12.810 -0.0159  0.2093  0.1359
 4446W        W21293   4.156   5.348  11.915  0.0634  0.5060  0.0139
 4447W        W21294  18.991   4.426  14.531 -0.5754  0.1071  0.0637
 4448W        W21295  12.668  15.873   0.978  0.2248  0.0421  0.0789
 4449W        W21296  15.102   8.287   1.620 -0.1916  0.0077  0.1576
 4450W        W21297  17.365   8.438   2.241  0.1297 -0.2894  0.1255
 4451W        W21298   7.083  12.862   0.779  0.1090  0.1537 -0.1310
 4452W        W21299  16.071   5.997  11.381 -0.0067  0.1752 -0.0383
 4453W        W21300  12.806  13.037  13.742 -0.0204  0.1332 -0.0767
 4454W        W21301  11.137  10.970  13.799  0.4139 -0.1314  0.0464
 4455W        W21302   9.439   2.901  12.586 -0.1582 -0.1868  0.1971
 4456W        W21303   2.661   9.248  10.694  0.0482 -0.2192 -0.1331
 4457W        W21304   0.405   8.828  12.832 -0.0189 -0.0033  0.3549
 4458W        W21305  13.757   8.030   4.258 -0.2225  0.1704  0.0989
 4459W        W21306   9.978   5.754   2.219  0.1253 -0.3364 -0.1565
 4460W        W21307   3.062  14.184   3.545 -0.4699  0.0647  0.0753
 4461W        W21308   7.070   1.453  12.869 -0.1380  0.2718 -0.0185
 4462W        W21309   9.566   6.613   3.610 -0.0403 -0.1444  0.0238
 4463W        W21310   1.201  16.926  11.911 -0.0458 -0.0609 -0.0529
 4464W        W21311  14.251  16.536   2.485 -0.2105 -0.1646 -0.2584
 4465W        W21312  15.164  10.058   0.901  0.1494  0.1021 -0.2151
 4466W        W21313   5.965  17.724   0.278  0.6282 -0.3977 -0.0137
 4467W        W21314   3.430  10.902  10.785 -0.0817 -0.3246 -0.1801
 4468W        W21315   9.008  13.864   1.569 -0.3304 -0.0496  0.0955
 4469W        W21316  16.546  18.734  12.600 -0.0194 -0.0957 -0.0531
 4470W        W21317   8.778   7.676  12.713  0.0402  0.2160 -0.0610
 4471W        W21318  11.785   5.147   0.383 -0.2824 -0.0748 -0.1081
 4472W        W21319   8.792   5.497  14.556  0.0988 -0.1879 -0.0521
 4473W        W21320   0.380   2.885  14.840  0.2514 -0.1622  0.1562
 4474W        W21321  13.085  11.071  11.479  0.1717  0.1692 -0.5718
 4475W        W21322   5.600  11.264   3.536 -0.1475  0.1254 -0.2697
 4476W        W21323   4.098   4.655   0.910  0.1144 -0.1070 -0.3860
 4477W        W21324   3.708   0.858   3.659  0.0811  0.2328  0.2812
 4478W        W21325  13.538   9.634   4.564 -0.3265  0.0617 -0.1062
 4479W        W21326   5.627   3.730  11.415  0.1948  0.1399  0.1710
 4480W        W21327   9.861   7.060  12.887  0.0740 -0.1864 -0.0910
 4481W        W21328   7.648   4.384   3.921 -0.2449 -0.0424  0.0783
 4482W        W21329  18.138   9.317  11.773 -0.1038  0.1771  0.2711
 4483W        W21330   6.135   3.744  11.394 -0.1837  0.0435  0.0948
 4484W        W21331  17.005  19.281  13.218 -0.0139  0.3169 -0.1456
 4485W        W21332   1.234  14.120  14.318  0.1258 -0.1088 -0.4190
 4486W        W21333  12.193   4.923   2.415 -0.1513 -0.0593 -0.0675
 4487W        W21334  10.370   4.714   4.271 -0.0107 -0.0493  0.1419
 4488W        W21335  13.547   2.830   1.246 -0.5573 -0.2387 -0.1994
 4489W        W21336  10.560  16.194  13.315  0.0457 -0.2116  0.0140
 4490W        W21337   6.428  10.023  12.452 -0.3073  0.0033  0.2003
 4491W        W21338   8.209  11.978  14.871  0.1942 -0.0086 -0.1740
 4492W        W21339   9.619  16.693   3.434  0.2080  0.0985  0.2010
 4493W        W21340   2.255  11.866   1.000  0.2103  0.0363  0.0040
 4494W        W21341   5.054  19.004   3.923  0.1061 -0.0101 -0.1207
 4495W        W21342  13.848   2.617  13.539 -0.3764  0.1035  0.2935
 4496W        W21343  13.200  10.327  11.827  0.1911 -0.0611 -0.0121
 4497W        W21344  17.084   6.647   2.625  0.1529 -0.1213 -0.1957
 4498W        W21345   1.975   4.565  12.405 -0.1396  0.1825 -0.1718
 4499W        W21346  17.130   4.875  12.996 -0.3263  0.2128 -0.2495
 4500W        W21347   4.228   5.275  13.021  0.1281  0.0222  0.1981
 4501W        W21348  14.972   0.242  11.308  0.2436  0.0860 -0.1974
 4502W        W21349   0.378   9.701   3.063 -0.4358 -0.0138 -0.1647
 4503W        W21350   2.173  13.313   4.531  0.1372 -0.1183  0.0580
 4504W        W21351   9.647  14.542  13.485  0.0127  0.0663 -0.2035
 4505W        W21352  10.449  17.627  12.703 -0.1038  0.0422  0.4049
 4506W        W21353  10.380   4.726  11.919 -0.1395 -0.3957  0.1660
 4507W        W21354   4.373  11.462  13.544  0.1296  0.1343 -0.1699
 4508W        W21355  16.147  18.718   0.303 -0.2534 -0.0011 -0.0588
 4509W        W21356   0.451   2.051  10.733 -0.3017  0.0889 -0.0199
 4510W        W21357   1.791  14.817  14.742 -0.2922 -0.2289 -0.2828
 4511W        W21358  10.886  10.815   1.524  0.2444  0.1056 -0.4328
 4512W        W21359   3.529   7.002  10.399  0.0927 -0.1875  0.2261
 4513W        W21360  18.861  12.369   1.945  0.0634 -0.2386 -0.1006
 4514W        W21361   6.961  10.935  13.787 -0.0082  0.0876 -0.1331
 4515W        W21362  16.210  16.782   3.288  0.1274  0.1113 -0.0815
 4516W        W21363  19.282   2.532   2.839  0.4024  0.2199  0.2666
 4517W        W21364  10.193  14.889   0.512 -0.4298  0.0198 -0.1317
 4518W        W21365  17.968   9.786   3.262  0.0732  0.4563  0.3050
 4519W        W21366  12.506  11.004   4.284 -0.0418 -0.1163  0.2322
 4520W        W21367   3.658  11.602  14.426 -0.0125  0.0035  0.5795
 4521W        W21368  18.118   2.650  13.977  0.2618 -0.1080 -0.1167
 4522W        W21369   6.146   5.134   2.419 -0.2576  0.2028 -0.0387
 4523W        W21370  18.022   0.780   1.683 -0.2568 -0.1897  0.2821
 4524W        W21371  10.621   3.806  12.057  0.0683  0.1411 -0.1773
 4525W        W21372  12.237   5.910   0.185 -0.0291 -0.1732 -0.3599
 4526W        W21373  15.397   5.568   3.762 -0.0458  0.1420  0.0720
 4527W        W21374   8.218   8.497  10.463  0.0346 -0.0103 -0.0688
 4528W        W21375  13.072  19.217  12.481 -0.0968 -0.0671  0.4155
 4529W        W21376  10.681   0.695   2.672 -0.1713  0.3453 -0.1876
 4530W        W21377   9.440   3.788   1.561 -0.0028 -0.1657  0.2390
 4531W        W21378   7.536  15.384   1.068  0.0525 -0.0670  0.0123
 4532W        W21379  13.029   9.635   1.906  0.0652  0.0717 -0.1669
 4533W        W21380   7.367  18.831  11.631  0.1915  0.3358 -0.1241
 4534W        W21381  19.107  12.739  14.410 -0.2070  0.3646 -0.0474
 4535W        W21382  18.786  19.247  11.593 -0.0082 -0.1963 -0.0381
 4536W        W21383  10.397  12.569   1.128  0.0492  0.1008  0.2250
 4537W        W21384  14.292   1.309   4.295 -0.0682 -0.3502 -0.1894
 4538W        W21385   8.422  10.623   0.440  0.3930 -0.1756 -0.1723
 4539W        W21386   3.062   8.608  13.284  0.0687  0.0131  0.2665
 4540W        W21387  14.235   9.207   2.695  0.1258 -0.1818  0.0322
 4541W        W21388   2.619   3.649   4.226 -0.1594 -0.0167  0.0268
 4542W        W21389   9.748   5.480  13.721  0.2453 -0.3277  0.1723
 4543W        W21390  11.092  14.805   0.750 -0.0157  0.2549  0.1646
 4544W        W21391   5.256   0.806   2.769  0.0816  0.0935 -0.3675
 4545W        W21392  18.184  17.865   0.740  0.1435  0.1479  0.2192
 4546W        W21393   2.653   7.377   3.410 -0.0656  0.0810  0.3094
 4547W        W21394  17.935   4.705   3.124 -0.2274  0.1867 -0.5003
 4548W        W21395   5.858  12.937  13.497  0.0258 -0.0529 -0.1013
 4549W        W21396   3.335   8.557   4.906 -0.1947  0.0517  0.0781
 4550W        W21397  10.326  18.626   5.037 -0.0508  0.2792  0.1769
 4551W        W21398   0.726  17.754   1.181  0.1464 -0.0825 -0.0785
 4552W        W21399   8.760  13.736  12.925 -0.2229 -0.1880  0.1510
 4553W        W21400  14.263   0.162   0.798 -0.0974 -0.1582 -0.0819
 4554W        W21401  15.287   0.028   4.439  0.1344 -0.1069 -0.3346
 4555W        W21402   5.076   6.678   2.602  0.2495  0.0919 -0.0429
 4556W        W21403   3.175  14.772  13.649  0.0875  0.1101  0.0355
 4557W        W21404   6.370  12.198  11.341  0.0027  0.2470 -0.4050
 4558W        W21405   5.296   2.764  10.931  0.0180  0.1334 -0.0364
 4559W        W21406   5.868  12.604  12.428 -0.3591 -0.1118  0.1520
 4560W        W21407   6.977   4.999   4.083  0.0657  0.1598  0.0836
 4561W        W21408   4.615   3.652   3.634 -0.2046 -0.0229  0.3291
 4562W        W21409  11.586   5.886  12.472 -0.2254 -0.0048 -0.0024
 4563W        W21410  13.344  10.069   1.913  0.0748  0.2632  0.0073
 4564W        W21411   0.551   5.640  13.700 -0.1842 -0.0242 -0.1892
 4565W        W21412  17.161   7.474  11.297  0.0678  0.2178 -0.0079
 4566W        W21413   5.115  11.827   9.828 -0.1824  0.0234  0.1475
 4567W        W21414   1.013  11.301   0.368  0.1065  0.1646 -0.1726
 4568W        W21415   2.036   8.908   3.404  0.0748 -0.3535  0.2086
 4569W        W21416   3.331  17.742   1.122  0.2450 -0.4762  0.1602
 4570W        W21417  18.508  16.311  11.463  0.2299  0.0343 -0.2454
 4571W        W21418  16.740  11.853   2.338  0.2993  0.0631  0.0457
 4572W        W21419  13.249  14.029   4.511  0.0343 -0.1761  0.3394
 4573W        W21420   0.871  10.739  11.128 -0.0612 -0.4441  0.2080
 4574W        W21421  13.863  12.337  14.918 -0.0071 -0.1974 -0.1712
 4575W        W21422   2.283   3.578   0.321  0.4204 -0.0068 -0.6042
 4576W        W21423   2.609   8.669   2.956  0.0646 -0.2314 -0.2945
 4577W        W21424   8.169   2.630  14.762  0.0595  0.1271 -0.2834
 4578W        W21425  10.989  18.897   2.190  0.0063 -0.1188 -0.1609
 4579W        W21426   3.342  16.509   4.682 -0.1468  0.2435 -0.0246
 4580W        W21427  11.407   6.447   0.641  0.2308  0.4187 -0.0481
 4581W        W21428   1.233  16.213   1.228  0.0339 -0.0494 -0.2121
 4582W        W21429  13.285   2.091  14.846 -0.0019 -0.1401 -0.1303
 4583W        W21430   0.439   7.120  12.264  0.0755 -0.2070  0.1167
 4584W        W21431   8.449  15.586  13.728 -0.0119  0.1819 -0.2325
 4585W        W21432  12.038  13.865  11.776  0.0074  0.0723  0.0467
 4586W        W21433  15.591  16.949  14.231 -0.4099  0.0116 -0.2310
 4587W        W21434   0.674  17.088   4.092 -0.0001 -0.0100 -0.1505
 4588W        W21435  18.310  15.567   2.277 -0.0470  0.2158  0.2125
 4589W        W21436   3.256   2.782  13.980  0.2605 -0.1451 -0.2751
 4590W        W21437  10.078  17.444  11.051 -0.1797  0.1083 -0.0395
 4591W        W21438   4.515  11.222   1.584  0.2069 -0.0819 -0.1294
 4592W        W21439   5.457  10.416   0.959 -0.0418  0.0114  0.0481
 4593W        W21440   2.444  17.171  14.860 -0.0767  0.1982 -0.0192
 4594W        W21441   6.838  10.935   0.378 -0.0397 -0.0899 -0.3310
 4595W        W21442  18.010   2.048  12.091  0.1960 -0.3799  0.1667
 4596W        W21443  12.770  15.959   4.206 -0.2279 -0.1567 -0.1478
 4597W        W21444  18.295   8.245   5.430  0.0244  0.1947 -0.0161
 4598W        W21445  15.033   9.925  11.611 -0.0245 -0.0551  0.0258
 4599W        W21446  15.034   5.075  13.384 -0.0422 -0.0522 -0.0449
 4600W        W21447   6.779   3.227   3.340  0.0492 -0.0897 -0.3033
 4601W        W21448  14.049  13.627  13.141  0.0964 -0.0034 -0.3657
 4602W        W21449   8.992   8.503  12.447  0.1781  0.3155  0.0316
 4603W        W21450   1.531  15.767   1.294 -0.1113  0.0145  0.0668
 4604W        W21451  12.126  10.426   1.201  0.1740  0.1970 -0.0098
 4605W        W21452   5.088   3.436   0.710 -0.0063 -0.6385  0.3739
 4606W        W21453  12.154   9.420  12.376  0.0808  0.0958 -0.0116
 4607W        W21454   9.348   2.930  13.057 -0.1238  0.1207  0.1527
 4608W        W21455   7.872   0.957  11.832 -0.0878  0.1827 -0.3398
 4609W        W21456   2.176   9.703  11.725  0.0420  0.3411 -0.0368
 4610W        W21457  18.812   5.734   1.764  0.0680  0.2235  0.2423
 4611W        W21458  14.010  15.986   1.660  0.0367  0.0450  0.0157
 4612W        W21459  16.367   7.193   3.636  0.0034 -0.0279  0.2784
 4613W        W21460  10.628   3.186  10.058  0.1960  0.2834  0.0855
 4614W        W21461   8.320   4.011   3.713  0.2248 -0.2968  0.0634
 4615W        W21462  15.239   2.974  12.587 -0.0090 -0.1918 -0.0510
 4616W        W21463  15.595  14.103  14.554  0.2495 -0.0933  0.0381
 4617W        W21464   0.250   9.698  14.861  0.1910 -0.3147 -0.1774
 4618W        W21465   7.742   3.534  11.463  0.3899  0.2160 -0.0424
 4619W        W21466  13.657   0.042   0.616  0.0695 -0.2398 -0.2918
 4620W        W21467  18.713  11.757  13.460 -0.2192 -0.1370  0.3239
 4621W        W21468   7.761   0.622   4.744 -0.0562  0.3509  0.0053
 4622W        W21469  16.218  17.241   0.739 -0.1835 -0.2346 -0.1607
 4623W        W21470   5.875  13.277  13.118 -0.1489  0.1085  0.3578
 4624W        W21471   9.324  15.803  14.666  0.0946  0.3177 -0.3119
 4625W        W21472  17.088   2.128   0.701 -0.1952 -0.1658  0.1712
 4626W        W21473  17.433   0.368  11.437 -0.3086 -0.1058 -0.0355
 4627W        W21474   6.456  15.626   2.014  0.3063 -0.0741  0.1950
 4628W        W21475   1.000  14.552   2.439  0.1154  0.2732  0.1079
 4629W        W21476   9.401  14.892  11.206 -0.2570  0.0827  0.0755
 4630W        W21477   2.433  11.219   3.799  0.1872  0.2397  0.2032
 4631W        W21478   9.854   8.508  10.757  0.0771  0.1057  0.1762
 4632W        W21479  18.508   5.244   4.218  0.1049  0.2363 -0.0354
 4633W        W21480  14.661  14.749   0.830 -0.0050  0.3425  0.1846
 4634W        W21481   5.333   0.629   3.342  0.1185 -0.3790  0.0251
 4635W        W21482  13.359   8.127  12.030 -0.2669 -0.1975  0.0302
 4636W        W21483  19.032   3.417   2.975  0.2539 -0.0679 -0.0789
 4637W        W21484   0.574   1.941   4.983 -0.3572  0.1747  0.1136
 4638W        W21485  18.770  11.284   0.097 -0.0536  0.0040  0.1637
 4639W        W21486   7.736   1.661   2.077  0.2555  0.0427  0.2645
 4640W        W21487  18.501   8.063   2.811  0.2361 -0.1480  0.1957
 4641W        W21488   8.674   0.289   1.177  0.1744 -0.4087 -0.2916
 4642W        W21489  12.011  11.658   0.659 -0.0218 -0.1368  0.1350
 4643W        W21490  16.507   3.424   3.314  0.1878 -0.3192  0.0668
 4644W        W21491   5.569   2.423  11.499 -0.0851  0.0779  0.3099
 4645W        W21492   2.152  18.279  10.961  0.0089 -0.0132  0.2208
 4646W        W21493   0.259   1.241   2.502  0.3001  0.3082 -0.0682
 4647W        W21494   2.645   2.921  13.332 -0.0234  0.2631 -0.3491
 4648W        W21495   6.220   8.966   3.092 -0.0719  0.3131 -0.2795
 4649W        W21496   7.573  13.769   3.924 -0.0578  0.1498  0.0180
 4650W        W21497  18.303   5.292  14.948  0.3215 -0.2981 -0.1294
 4651W        W21498  10.189   5.216  11.282 -0.0936 -0.5186 -0.2258
 4652W        W21499   8.408  12.096   3.869 -0.0523  0.0851  0.1558
 4653W        W21500   5.479   9.516   4.032  0.1448  0.2411 -0.3071
 4654W        W21501  10.037   4.566   3.179 -0.3087 -0.1254  0.3447
 4655W        W21502   1.643   3.895  10.618  0.3269  0.3337 -0.0149
 4656W        W21503  17.028   9.217  13.268 -0.1294 -0.2950 -0.0505
 4657W        W21504   3.858   1.209  13.836 -0.0610  0.3898 -0.2199
 4658W        W21505   8.453   7.244   1.605 -0.2002 -0.1890  0.0726
 4659W        W21506   4.032   2.238  14.081 -0.2817 -0.1155 -0.1487
 4660W        W21507  17.726  11.771   5.020 -0.1222 -0.1307  0.0084
 4661W        W21508  18.499  16.282  14.801 -0.1162  0.0984 -0.1574
 4662W        W21509   5.851  15.082   1.474 -0.2291  0.3040 -0.0014
 4663W        W21510  12.728   7.604  10.554  0.3358 -0.2264 -0.1527
 4664W        W21511  14.046   1.174   6.034  0.3086  0.0021 -0.1082
 4665W        W21512   2.918   2.559   0.764  0.0712 -0.0353  0.0046
 4666W        W21513  12.641   8.725  12.761  0.1502 -0.0830 -0.1581
 4667W        W21514  16.656  18.304  11.281 -0.2782  0.1301  0.0319
 4668W        W21515  16.250  12.391  14.655 -0.4006 -0.1248 -0.0009
 4669W        W21516  12.486   0.086   5.227 -0.1083  0.2738  0.0253
 4670W        W21517  11.486  14.135  13.992 -0.1052 -0.0115  0.1499
 4671W        W21518  11.484   9.777  14.542 -0.0098 -0.1718 -0.0565
 4672W        W21519   5.515  18.502  11.448 -0.0377 -0.3645  0.1449
 4673W        W21520  14.112   7.640   2.377 -0.1487 -0.1902  0.1372
 4674W        W21521  15.634   3.353  12.935 -0.0573  0.0905 -0.2118
 4675W        W21522   1.739  10.968   1.036  0.2922  0.1115 -0.1786
 4676W        W21523   3.194  14.519   0.671 -0.0431 -0.1618 -0.3523
 4677W        W21524   4.091   0.023   2.858 -0.1908  0.1117  0.3077
 4678W        W21525  11.538   9.999  12.085 -0.0995 -0.1293  0.0951
 4679W        W21526  18.035   3.212   3.448 -0.3297 -0.4355  0.3438
 4680W        W21527   3.261   4.179   1.359 -0.2137 -0.0230 -0.0675
 4681W        W21528   6.881  12.316   4.165 -0.2528 -0.2222  0.0765
 4682W        W21529  15.726  16.972  11.393  0.5046  0.0585 -0.2806
 4683W        W21530  13.382  12.663   2.612  0.1755  0.0687  0.2066
 4684W        W21531  11.530   4.408  13.445  0.1986 -0.1956  0.1449
 4685W        W21532   9.583  16.338  11.555  0.1459  0.4010  0.1906
 4686W        W21533   7.485   3.911  12.180  0.0689  0.2221  0.0691
 4687W        W21534  14.222  12.662   2.303  0.0247  0.4595 -0.1891
 4688W        W21535   3.975   4.065   3.221 -0.0066  0.0979  0.0523
 4689W        W21536  15.540  15.152  14.810 -0.4637  0.0055 -0.0038
 4690W        W21537   3.274  16.978  11.561  0.2264  0.0825 -0.3220
 4691W        W21538  10.505  12.767   2.000 -0.1844 -0.0057  0.0031
 4692W        W21539  18.944  17.884  13.912 -0.1224 -0.2935 -0.2191
 4693W        W21540   4.707   8.219   0.918 -0.3390 -0.0683  0.0802
 4694W        W21541  10.952   2.491   3.911  0.2005  0.1696  0.1380
 4695W        W21542  14.323   5.371   2.256 -0.0166 -0.2253 -0.0946
 4696W        W21543  11.731  10.882  12.093 -0.1676  0.1666  0.0925
 4697W        W21544  11.760  19.148   3.471 -0.1250 -0.1179 -0.1673
 4698W        W21545  10.204   9.374  12.186  0.0844  0.4239 -0.3591
 4699W        W21546  16.313   5.321  10.157 -0.1776 -0.2133 -0.1038
 4700W        W21547   1.785  13.332  11.853  0.2173  0.1298 -0.1406
 4701W        W21548  11.396  15.364   1.949  0.2102 -0.0294  0.4457
 4702W        W21549  14.462   9.038   5.276 -0.3268  0.2002 -0.0020
 4703W        W21550   4.687  18.834  11.025 -0.0341 -0.3833 -0.0204
 4704W        W21551   5.082   4.634  10.536 -0.0095 -0.1946 -0.0549
 4705W        W21552   6.691  12.795  13.540  0.3668  0.2726  0.0554
 4706W        W21553  10.866   1.325  12.707  0.2189 -0.1118 -0.2720
 4707W        W21554   2.826  11.461  13.427 -0.0191  0.1091  0.0586
 4708W        W21555  17.192  11.579   3.333 -0.2098  0.2426 -0.1959
 4709W        W21556   1.530  18.303   5.450  0.1709 -0.0296 -0.0938
 4710W        W21557  10.957  17.754   1.172  0.4528  0.1039  0.1618
 4711W        W21558  12.945  14.674   0.062  0.2189  0.0919  0.2033
 4712W        W21559  10.903  13.950   5.482 -0.2432 -0.2841 -0.2208
 4713W        W21560  15.173   8.321  12.718 -0.1972 -0.0165  0.1648
 4714W        W21561   1.203  15.990  11.276 -0.0913  0.3141 -0.1842
 4715W        W21562  15.819   1.156   2.302 -0.2647  0.0328  0.3732
 4716W        W21563   1.705   5.117  14.326 -0.2947 -0.1560 -0.0517
 4717W        W21564   2.152   8.532   0.464 -0.1082  0.2922  0.1155
 4718W        W21565  18.521  12.322   3.131  0.1376  0.2413 -0.1950
 4719W        W21566  11.521   2.713   1.137 -0.2899  0.2154  0.0654
 4720W        W21567  15.850   8.105  10.452 -0.1810  0.0478 -0.1705
 4721W        W21568  10.647  15.100  12.737 -0.1165 -0.2125  0.2098
 4722W        W21569  12.418  16.109  12.398 -0.1441 -0.2637  0.0096
 4723W        W21570   7.291  10.232  14.091  0.0674  0.0148 -0.2301
 4724W        W21571  19.197  16.394  14.305 -0.0312 -0.0808  0.2475
 4725W        W21572   1.711   5.778   0.386 -0.1596 -0.2752 -0.1317
 4726W        W21573   5.805  17.196  12.774 -0.0853 -0.1380  0.0565
 4727W        W21574  14.263   7.413   0.618  0.0407 -0.0687  0.0981
 4728W        W21575   0.101  12.774   0.284 -0.1397 -0.3598  0.0081
 4729W        W21576  12.219   1.763  15.015  0.1059 -0.2035  0.0523
 4730W        W21577  13.161  13.484  12.976  0.0572  0.1581 -0.2000
 4731W        W21578   3.415   3.619   1.334  0.0763  0.4086  0.0274
 4732W        W21579  18.212   3.239   2.824  0.0756 -0.3908 -0.1097
 4733W        W21580   4.499  18.244   3.775 -0.0476 -0.1337 -0.0660
 4734W        W21581   9.948   3.975  14.335 -0.1875 -0.1345  0.2078
 4735W        W21582   9.675   1.752  13.053 -0.1714  0.0594  0.0935
 4736W        W21583  16.591   1.047   3.375  0.1996 -0.1707 -0.0160
 4737W        W21584   7.407   1.194  14.538 -0.0905  0.1844 -0.0199
 4738W        W21585  14.865  17.683   4.966  0.0199  0.0290  0.4645
 4739W        W21586   3.496  18.188   1.171  0.3766 -0.1468 -0.1507
 4740W        W21587  14.078  18.926   4.319  0.0223 -0.1583 -0.1182
 4741W        W21588   2.191  12.798  14.328  0.1596 -0.2461  0.0837
 4742W        W21589   1.038  11.362   1.246  0.3357 -0.1084  0.1231
 4743W        W21590  17.512   7.941   1.520  0.1196  0.0883  0.1444
 4744W        W21591  11.227   6.915   2.670  0.0935 -0.1903  0.3115
 4745W        W21592   9.340  13.463   5.220  0.1231 -0.2298 -0.1922
 4746W        W21593  12.168  14.626   0.876 -0.1944 -0.1450 -0.2723
 4747W        W21594   9.999  16.186   2.594 -0.0147  0.0998  0.2187
 4748W        W21595  14.140   9.102  14.567  0.1156  0.1213 -0.0218
 4749W        W21596  13.815   2.914  14.741 -0.1746 -0.1369  0.1953
 4750W        W21597  14.555   6.008  12.309  0.0081 -0.1434  0.0814
 4751W        W21598   5.293   6.652   1.396 -0.1772  0.0823 -0.0864
 4752W        W21599  14.479  17.474   0.045  0.0543 -0.3727 -0.0075
 4753W        W21600  10.189   0.945  11.096  0.2778  0.1023 -0.2410
 4754W        W21601   7.062  17.062  11.400 -0.2180  0.1267 -0.0470
 4755W        W21602  16.469   5.451   0.481  0.3567 -0.0633 -0.0047
 4756W        W21603  17.948  15.141   4.771 -0.0449 -0.1225  0.1227
 4757W        W21604  17.800  10.823   0.499 -0.2588  0.0276 -0.3678
 4758W        W21605   8.413   4.351  14.107 -0.1222 -0.2797 -0.0943
 4759W        W21606  15.609   5.849   3.064  0.0280  0.2710  0.0953
 4760W        W21607  14.839   0.411   4.374  0.1669  0.0380  0.0958
 4761W        W21608  18.216  11.249  11.756  0.2563  0.1831 -0.1258
 4762W        W21609  16.695  11.489   1.819  0.1022 -0.0574 -0.2105
 4763W        W21610   5.621   5.679  12.690 -0.2337  0.1520  0.0325
 4764W        W21611   7.451   6.662  11.249 -0.1898 -0.0857  0.1689
 4765W        W21612   1.928   7.660  14.469 -0.1530  0.0592 -0.2274
 4766W        W21613   9.190  10.650   1.765 -0.1896  0.1256  0.0251
 4767W        W21614  15.562   4.546  11.114  0.0586 -0.4047  0.1027
 4768W        W21615   4.336   4.932  14.082  0.4837 -0.2743 -0.2191
 4769W        W21616   4.707   4.001   0.620  0.1780 -0.0150 -0.2200
 4770W        W21617  18.642   2.819  14.187  0.0996 -0.1957 -0.0182
 4771W        W21618  12.626  14.733   0.538  0.1546  0.0538 -0.0023
 4772W        W21619  18.651   3.773   4.433  0.2256  0.3549 -0.0508
 4773W        W21620  12.574  15.561   3.198 -0.2702  0.0528  0.2944
 4774W        W21621   7.398   2.244   1.534 -0.2761 -0.2505 -0.2355
 4775W        W21622   9.623   9.970   1.687 -0.3259 -0.1857 -0.3535
 4776W        W21623   1.710   2.758  14.425 -0.0435  0.1274 -0.0412
 4777W        W21624   0.954   7.972  11.338  0.1364  0.0476 -0.0410
 4778W        W21625   7.401   0.340  14.026  0.0780 -0.0647  0.0101
 4779W        W21626   6.989   8.062   9.948 -0.0492 -0.0953 -0.2694
 4780W        W21627  18.009   4.877   1.321  0.1284  0.0849 -0.1212
 4781W        W21628   8.488  13.606  11.858 -0.0248  0.0096  0.5197
 4782W        W21629  14.099   9.684  13.237  0.0609  0.3289 -0.1863
 4783W        W21630   8.596  13.628   2.530 -0.0904 -0.1897  0.0932
 4784W        W21631   6.688   2.800  14.551  0.0353 -0.3320  0.1184
 4785W        W21632   1.083  11.628  13.289 -0.0591  0.1222  0.5367
 4786W        W21633   5.661  14.065   1.500 -0.2394 -0.0870  0.0502
 4787W        W21634   8.469  11.801  12.613  0.0609 -0.1879 -0.0378
 4788W        W21635  14.038   9.827  11.448  0.4012  0.1497 -0.1625
 4789W        W21636  18.358  11.179   1.277 -0.1546  0.1211 -0.0623
 4790W        W21637   1.398  13.059  12.094 -0.2895  0.3653  0.0737
 4791W        W21638  18.958   7.405   3.882 -0.1118 -0.1311  0.1256
 4792W        W21639  15.757   2.666   3.258  0.0675 -0.1220  0.1556
 4793W        W21640   9.433  19.219   1.320  0.1250  0.1828 -0.0053
 4794W        W21641   3.809  15.852   2.237 -0.2682  0.3344 -0.1069
 4795W        W21642   3.239  15.365   2.919 -0.1156 -0.0419 -0.4302
 4796W        W21643   0.642  14.487   5.491 -0.0472 -0.2439 -0.0256
 4797W        W21644   3.129   0.019   2.655  0.0816  0.1800  0.0196
 4798W        W21645   0.427   6.189  13.636  0.2049  0.1978 -0.3186
 4799W        W21646   9.762  15.637   1.030  0.0913  0.2233  0.0112
 4800W        W21647  17.604   1.120   2.873  0.1418  0.0532 -0.0193
 4801W        W21648   8.671  10.801   0.818  0.0896  0.1939 -0.2486
 4802W        W21649   9.935  11.645   2.055 -0.0864  0.0614  0.2692
 4803W        W21650   0.941   0.495   5.379 -0.1805 -0.0752  0.0014
 4804W        W21651   5.516   5.824   2.654 -0.0613 -0.2327  0.0207
 4805W        W21652  10.544  19.238   0.771 -0.0250  0.1928  0.3098
 4806W        W21653  17.979   5.782   2.766 -0.0649 -0.3194  0.0589
 4807W        W21654   3.699  12.384  10.617  0.0230 -0.2025  0.2028
 4808W        W21655  18.020   7.302   0.827 -0.1187 -0.1194 -0.1316
 4809W        W21656   7.085  14.333   3.354  0.0748 -0.0217  0.3230
 4810W        W21657   1.359  11.309  12.590 -0.0052  0.0630 -0.0208
 4811W        W21658  13.130   6.737   3.941 -0.0275  0.1200 -0.0885
 4812W        W21659   6.520   7.779   3.477  0.0578 -0.0800  0.2697
 4813W        W21660   9.281   2.479   4.734  0.2431  0.1805  0.0517
 4814W        W21661  11.868  13.662   1.916  0.2135  0.0924  0.0235
 4815W        W21662   2.059   9.422   0.745 -0.0313  0.0077 -0.1581
 4816W        W21663  10.381   1.792  11.900 -0.2187 -0.0348  0.0389
 4817W        W21664   9.050   6.521  11.851 -0.1669 -0.3102  0.0881
 4818W        W21665   3.714   8.972   4.680  0.2059 -0.1274  0.0142
 4819W        W21666  13.850  17.439   2.205  0.1556  0.1512  0.1107
 4820W        W21667  14.708  16.327   4.352  0.0086 -0.3049  0.1274
 4821W        W21668   8.542   2.229  10.557  0.3951 -0.1138  0.0059
 4822W        W21669   4.281   1.921   3.235  0.3372  0.0317 -0.0117
 4823W        W21670   0.725   6.555   4.384  0.2807  0.0033 -0.0080
 4824W        W21671   6.054  17.419  12.284 -0.2709  0.0891 -0.2580
 4825W        W21672  13.815   9.340   3.520 -0.3953 -0.1304 -0.0962
 4826W        W21673  14.967   8.009  12.248 -0.3298 -0.0876  0.1598
 4827W        W21674  18.710  14.398  12.212 -0.0697 -0.0181 -0.2442
 4828W        W21675   5.517   3.843  14.130  0.2288  0.2924  0.0580
 4829W        W21676   7.812   5.404  14.183 -0.0719  0.0876 -0.2192
 4830W        W21677   9.585   2.067   4.501 -0.1934 -0.0733  0.0648
 4831W        W21678  18.398  14.076   4.200 -0.0507 -0.0775 -0.0657
 4832W        W21679  11.500  13.984   0.197  0.2237  0.0629  0.1382
 4833W        W21680   3.070  11.855   2.523 -0.0676 -0.2757  0.0237
 4834W        W21681   7.332   0.734   4.517 -0.1801 -0.2077 -0.1533
 4835W        W21682   5.396   0.610  13.319  0.1848  0.0617 -0.2328
 4836W        W21683   4.111   7.359  13.526  0.1934  0.0491  0.1185
 4837W        W21684   3.377   4.834  12.816 -0.0176 -0.0417  0.0905
 4838W        W21685   6.587  14.569  13.534  0.1649 -0.0606 -0.2293
 4839W        W21686   4.644   5.839  10.165  0.4870  0.1882 -0.0407
 4840W        W21687   6.601  18.159  12.295  0.2258 -0.1909 -0.2406
 4841W        W21688   0.951   9.189  14.302  0.0244  0.1609 -0.1321
 4842W        W21689  12.108   6.969  14.152  0.1642 -0.0224 -0.0595
 4843W        W21690   1.047  17.785   4.077  0.0636  0.0307 -0.0137
 4844W        W21691  10.498   8.195  13.848 -0.0333 -0.1457  0.2095
 4845W        W21692  16.485  16.972  13.887  0.1855  0.3524  0.3280
 4846W        W21693  13.708   9.192  10.408 -0.1208  0.3282 -0.0746
 4847W        W21694   9.534   2.935   2.794  0.1298 -0.1756  0.3018
 4848W        W21695   1.367   6.473   3.436 -0.2018  0.1811  0.3217
 4849W        W21696  16.510  15.048  11.878 -0.1155  0.0065 -0.2055
 4850W        W21697   4.440   4.518  11.834  0.0954  0.4568  0.2443
 4851W        W21698  16.807  10.081  11.509  0.2153 -0.4326  0.3138
 4852W        W21699  18.544  18.205   5.177  0.1224  0.0414 -0.0402
 4853W        W21700   4.969   8.461  11.651 -0.2626 -0.2386  0.2821
 4854W        W21701  11.438   5.674  12.051 -0.1832  0.0785 -0.1686
 4855W        W21702   5.317  14.012  10.944  0.2693  0.0503 -0.3425
 4856W        W21703  13.947  13.712   2.232  0.2065  0.3957  0.0394
 4857W        W21704  13.465   1.577  11.654 -0.0638  0.1079 -0.1006
 4858W        W21705   1.347   6.195   2.619 -0.0921 -0.2433  0.2212
 4859W        W21706  10.539  10.415  11.357 -0.1483 -0.1003 -0.1734
 4860W        W21707   2.828   5.597  14.870 -0.1658 -0.0376  0.0669
 4861W        W21708  13.914   0.926   0.188 -0.0434 -0.2131 -0.1375
 4862W        W21709   0.350   1.085   1.035 -0.2859  0.1127  0.0099
 4863W        W21710   8.180  17.479   1.155 -0.2508  0.2234 -0.1760
 4864W        W21711   6.790  16.789   1.254 -0.1294  0.0773 -0.4022
 4865W        W21712  13.104  11.123   1.105  0.3229 -0.0417  0.0058
 4866W        W21713  11.440   8.239  11.499 -0.0927 -0.2233 -0.2266
 4867W        W21714  15.666  15.511   4.746 -0.1230  0.0500  0.0063
 4868W        W21715  12.594  10.751  14.377 -0.2909 -0.1693  0.2557
 4869W        W21716   2.417   2.067   2.093 -0.0244 -0.0175 -0.2001
 4870W        W21717   8.346   0.509   1.611 -0.1532  0.1435 -0.0816
 4871W        W21718   4.376   3.413  12.673  0.5073  0.1040  0.0709
 4872W        W21719  15.452   6.423  14.360 -0.1211 -0.1445 -0.1421
 4873W        W21720  15.494  14.360   4.109  0.3357  0.0227 -0.1015
 4874W        W21721  13.814  18.373  14.687 -0.1502  0.1017 -0.1520
 4875W        W21722  11.273  11.716   1.087  0.1781  0.1706  0.0046
 4876W        W21723   8.297   8.941   0.152 -0.1491 -0.1592 -0.2495
 4877W        W21724   6.908   7.773   2.714 -0.0671 -0.0945  0.0851
 4878W        W21725   0.898  15.643  11.447 -0.0996 -0.0724  0.0753
 4879W        W21726  10.344   4.745  11.173  0.0400 -0.2646 -0.1075
 4880W        W21727  18.825   4.361  11.183 -0.2057 -0.0370 -0.1833
 4881W        W21728   0.442  10.548   4.568  0.4900 -0.1582 -0.0775
 4882W        W21729  10.883   7.981  10.681  0.1815  0.0789  0.0847
 4883W        W21730   4.564   4.420   3.894  0.0325  0.1670  0.2264
 4884W        W21731  16.747   9.652   3.675  0.2191  0.0929 -0.1603
 4885W        W21732  14.968   2.687   0.362  0.1657  0.1087  0.0537
 4886W        W21733  10.877   7.589   4.801 -0.0054  0.1556 -0.0261
 4887W        W21734   5.432   8.860   1.641  0.1166 -0.0357 -0.0878
 4888W        W21735  16.934   5.266  14.968 -0.2055 -0.2507 -0.1206
 4889W        W21736   0.108  10.120  14.130 -0.0873 -0.1036  0.1418
 4890W        W21737   9.125  17.445  13.295 -0.0578  0.0940  0.2502
 4891W        W21738   5.068   4.633  11.056  0.0993 -0.0139  0.0281
 4892W        W21739   6.962  13.895   3.112  0.2345 -0.0186  0.1072
 4893W        W21740  12.751  14.042   4.462 -0.0498 -0.2883  0.0304
 4894W        W21741  15.389   9.537  11.586 -0.1620 -0.0069  0.2052
 4895W        W21742  14.436   3.899   1.274  0.1556  0.1030 -0.2142
 4896W        W21743  16.107  16.553  11.247  0.2671 -0.0744 -0.0606
 4897W        W21744   3.622   1.270   1.655 -0.0820  0.2191 -0.0119
 4898W        W21745  14.007   9.819   5.482  0.0950 -0.0864  0.0340
 4899W        W21746  18.945   9.281  12.967  0.1396 -0.2713 -0.1491
 4900W        W21747   8.498   5.146   1.339  0.0031  0.1541 -0.2094
 4901W        W21748  17.422  18.127  14.401 -0.1619  0.2588  0.0157
 4902W        W21749  12.774   9.970  14.985  0.1081 -0.1184  0.1157
 4903W        W21750  10.556   9.400  12.509 -0.1176 -0.2405  0.1469
 4904W        W21751   6.658   6.779  11.857  0.1266  0.0421 -0.1734
 4905W        W21752   6.347   8.132  13.712  0.2402  0.2404 -0.1506
 4906W        W21753  10.460  15.803   3.105 -0.0958  0.0633  0.1410
 4907W        W21754  15.141  10.193   2.460  0.1777 -0.0680 -0.2828
 4908W        W21755  11.011  17.833   1.665  0.0712  0.0860 -0.0228
 4909W        W21756  19.065   3.459   2.344  0.1370  0.4025  0.2429
 4910W        W21757  15.087   4.376   0.721 -0.0946 -0.2489  0.2239
 4911W        W21758   3.834   2.368  11.153 -0.1230  0.2204 -0.1286
 4912W        W21759  15.323  19.126  14.763  0.2589  0.0311 -0.1512
 4913W        W21760   3.655  11.021   4.271  0.0938 -0.1276 -0.2058
 4914W        W21761  18.633  18.346   3.925 -0.0702  0.0906  0.1564
 4915W        W21762  16.818   0.844  10.154  0.3633  0.3893  0.2812
 4916W        W21763   0.092  18.927  10.549  0.1892  0.0662  0.0443
 4917W        W21764   4.998   2.805   9.470  0.0286 -0.3603 -0.0476
 4918W        W21765  14.939  12.495   5.191  0.0456 -0.2231 -0.1951
 4919W        W21766   3.050   7.723   2.615 -0.1742 -0.1117  0.0931
 4920W        W21767   9.387  13.863  14.089  0.0523  0.0164  0.0478
 4921W        W21768  18.987  10.420  13.142 -0.0705 -0.1941  0.0021
 4922W        W21769  15.604   1.030   1.849 -0.0377  0.2042 -0.1737
 4923W        W21770   9.825  12.856   0.594 -0.2163 -0.0548  0.1861
 4924W        W21771   7.575  15.647   4.329 -0.1213 -0.2139 -0.0512
 4925W        W21772  14.004   5.750   0.575 -0.0950  0.0327 -0.0478
 4926W        W21773  13.436   1.246  14.075 -0.0595 -0.1694  0.0353
 4927W        W21774   8.940  14.429  10.355  0.0643 -0.2118 -0.0713
 4928W        W21775  12.853  16.999   6.424 -0.1222  0.3640  0.1644
 4929W        W21776   0.680  14.357   9.832 -0.0002  0.3076 -0.0655
 4930W        W21777   9.606  11.516   2.630 -0.2629 -0.0429 -0.2334
 4931W        W21778   1.974   0.999   5.300  0.2417 -0.0122  0.3047
 4932W        W21779  15.689  12.885  10.496 -0.0752 -0.0743  0.1680
 4933W        W21780   8.003  18.850   4.679  0.0705 -0.1207 -0.0496
 4934W        W21781   2.732   9.904   0.145 -0.0745  0.2286  0.0022
 4935W        W21782   3.408   1.648   3.694 -0.0072 -0.1047 -0.0434
 4936W        W21783  12.567  16.121  13.972 -0.1303 -0.0605  0.0471
 4937W        W21784   7.320   1.560  12.314 -0.2689  0.0458  0.3458
 4938W        W21785   4.101  13.688   1.818 -0.1729  0.1524 -0.0541
 4939W        W21786  17.105  15.765   2.314  0.1784 -0.0955  0.4975
 4940W        W21787  15.157   6.420   0.329 -0.3071  0.0553  0.3722
 4941W        W21788   4.384  10.730  14.839  0.0948  0.2187 -0.0296
 4942W        W21789  19.082  18.238   3.804 -0.3456 -0.0010 -0.0246
 4943W        W21790  19.201  11.193   2.326 -0.2041 -0.1376 -0.1868
 4944W        W21791   3.157   9.019   4.655 -0.0467  0.3743 -0.0229
 4945W        W21792   0.096  16.363   3.868  0.0512  0.1982  0.2028
 4946W        W21793   8.204   8.735  13.929 -0.0381 -0.1439 -0.0296
 4947W        W21794  18.906  15.426  14.414  0.2920 -0.1399 -0.2000
 4948W        W21795   7.550  12.545   0.150 -0.2615  0.1082 -0.5036
 4949W        W21796   5.007  10.393   1.244  0.3172 -0.1381 -0.1968
 4950W        W21797   6.250   0.267   1.084  0.0360  0.1677  0.0107
 4951W        W21798  10.733   7.455   4.216  0.2024 -0.2222 -0.1719
 4952W        W21799  14.472   9.648   4.164 -0.2702 -0.0079  0.0272
 4953W        W21800  13.652   0.409   5.893 -0.1463  0.0253 -0.0007
 4954W        W21801  17.227   7.606   2.272 -0.1655 -0.1887 -0.0744
 4955W        W21802   2.525  12.896  11.174  0.0122 -0.0611 -0.1374
 4956W        W21803  13.774   8.330  14.176  0.3673  0.1634 -0.1438
 4957W        W21804   0.269  18.132   3.597 -0.4480  0.2575 -0.1690
 4958W        W21805  12.712   0.453   4.128  0.1408  0.0659 -0.3036
 4959W        W21806  17.516   0.727   0.746 -0.1481  0.0154  0.0831
 4960W        W21807  14.191  16.093   3.049  0.0944 -0.0091  0.0536
 4961W        W21808   2.885  10.542  13.351  0.2068 -0.2547  0.3830
 4962W        W21809  16.466  14.406   4.934  0.1660 -0.2843  0.0159
 4963W        W21810   0.890  12.044   3.656 -0.1300 -0.4347  0.1058
 4964W        W21811  14.291   9.350  10.266 -0.0382 -0.2776 -0.4248
 4965W        W21812   6.521  13.981  11.002 -0.5592  0.0778 -0.0906
 4966W        W21813   6.527   3.561   3.696  0.0096 -0.1490  0.2084
 4967W        W21814  12.200   9.230   0.276  0.0219 -0.1524 -0.1382
 4968W        W21815  17.176  18.399  11.216  0.1210 -0.1169  0.1603
 4969W        W21816  15.960   8.183   3.814 -0.0977 -0.0798  0.0288
 4970W        W21817  17.925   5.743   1.781 -0.0707 -0.0796  0.0735
 4971W        W21818  11.978  16.792  14.862 -0.5930 -0.4878  0.3181
 4972W        W21819  19.007   3.765   4.868  0.1346 -0.1451  0.1276
 4973W        W21820   2.670  15.622  12.264  0.2835  0.3779 -0.1986
 4974W        W21821   9.111  18.406  13.438  0.2184 -0.0295  0.0705
 4975W        W21822  12.352   4.584   1.985 -0.0006 -0.0216  0.0602
 4976W        W21823   4.281  18.745   4.556 -0.1881  0.2467 -0.1419
 4977W        W21824   7.629  15.221   3.547 -0.2192  0.1568  0.2101
 4978W        W21825  17.763   6.654  12.486  0.4285 -0.0428  0.0665
 4979W        W21826  18.230  14.562   0.141 -0.0259 -0.0771 -0.0578
 4980W        W21827  12.086  12.649  10.842 -0.2497 -0.1950  0.2405
 4981W        W21828  19.020   8.215   4.972  0.1735  0.0648 -0.0869
 4982W        W21829   4.200   8.896   1.083  0.2027  0.1067  0.0003
 4983W        W21830  14.021   6.826   0.199 -0.0965 -0.0536  0.2360
 4984W        W21831  10.632   2.652   0.799 -0.5208  0.0488 -0.2257
 4985W        W21832  16.361   5.237  13.849 -0.0460  0.1243  0.3117
 4986W        W21833   3.424  12.148   3.774  0.1570 -0.2739 -0.1860
 4987W        W21834   7.146   8.031   9.473 -0.1936 -0.1534 -0.3912
 4988W        W21835   9.657   4.896   2.990 -0.0956 -0.0469  0.0095
 4989W        W21836  11.918  14.558  13.897 -0.0195  0.4194  0.2545
 4990W        W21837   4.307  15.703   1.232 -0.3255 -0.1357 -0.2775
 4991W        W21838  14.203   8.116   2.877  0.2110  0.2180 -0.1780
 4992W        W21839   1.826   8.656   9.782  0.0931  0.2105  0.0159
 4993W        W21840  14.271  18.759  13.439  0.3185  0.3634  0.0244
 4994W        W21841  17.208   9.171  11.609  0.0015  0.1467 -0.0650
 4995W        W21842   7.546  15.018   0.275  0.3125  0.4930  0.2990
 4996W        W21843   6.514  11.233  13.717  0.0896 -0.0250  0.1735
 4997W        W21844   6.949   7.286  14.182 -0.0170 -0.1613 -0.0671
 4998W        W21845   8.925  14.042   2.614  0.3211 -0.1536 -0.1823
 4999W        W21846   8.905  19.264  11.422 -0.0702  0.1675 -0.0714
 5000W        W21847   0.601   7.547  14.033  0.2430  0.0623 -0.2317
 5001W        W21848   8.825  14.596   2.773  0.0577 -0.1786 -0.0929
 5002W        W21849  18.647   5.447   3.118  0.2005 -0.3351 -0.1257
 5003W        W21850  16.764   2.693  11.103  0.1794 -0.2010 -0.0638
 5004W        W21851  14.969   3.452   4.832 -0.2373 -0.0583  0.1394
 5005W        W21852  18.877  10.744   4.462 -0.1063 -0.3449 -0.1781
 5006W        W21853   1.438  17.231   3.745 -0.0130  0.3698 -0.0492
 5007W        W21854   9.243  17.320   4.952 -0.0770  0.0463  0.0063
 5008W        W21855  15.119  14.416   5.393  0.0462 -0.1551  0.5091
 5009W        W21856   6.918   0.556   2.995 -0.2353  0.1670  0.1657
 5010W        W21857  16.197   0.788   3.548 -0.3775  0.2237  0.1448
 5011W        W21858   1.899   2.469   2.928 -0.0206 -0.2431 -0.0392
 5012W        W21859   2.973   5.171  11.435 -0.0850 -0.0746 -0.1289
 5013W        W21860   3.067  15.026   2.424 -0.0051  0.2220 -0.2977
 5014W        W21861   6.433  13.468  11.474  0.0265  0.0199 -0.2434
 5015W        W21862   1.182  17.079   1.909 -0.0525 -0.3337 -0.2784
 5016W        W21863  10.034  16.682   4.327  0.0127  0.2857  0.2995
 5017W        W21864  19.107   7.149   0.094  0.0854  0.0362  0.1282
 5018W        W21865  14.269  19.068   2.268  0.0804  0.0011  0.3662
 5019W        W21866   9.718  17.092   5.709  0.1291 -0.0483 -0.1459
 5020W        W21867  14.749   1.008  14.737  0.1659  0.0553 -0.0104
 5021W        W21868   1.345  10.091  10.912 -0.1295  0.1234 -0.1917
 5022W        W21869  18.231   6.138  13.256  0.0952 -0.3341  0.4204
 5023W        W21870  13.772   3.069  11.325 -0.0289 -0.0120 -0.0698
 5024W        W21871   9.031  16.543   3.607  0.3248 -0.0417  0.2384
 5025W        W21872   7.843  19.033   5.672  0.1257  0.0733 -0.0911
 5026W        W21873   0.057   9.926  12.079  0.1121 -0.0305  0.0007
 5027W        W21874   2.934   1.738  12.687  0.1402  0.0054 -0.1899
 5028W        W21875  13.659  14.815  14.073  0.1163  0.1666 -0.0632
 5029W        W21876  18.550   8.363  14.736  0.2953  0.2258  0.2342
 5030W        W21877  18.986  18.984  13.995  0.4350  0.3042  0.1678
 5031W        W21878   9.146   9.006   0.803  0.1101  0.0497 -0.0870
 5032W        W21879  12.226   9.386  12.909 -0.0193  0.0275  0.2318
 5033W        W21880  11.192  10.715   0.122  0.2722  0.3600 -0.2466
 5034W        W21881  16.349   0.578  14.283 -0.0093 -0.2046 -0.0470
 5035W        W21882  11.195   0.096   2.146 -0.0449  0.4802  0.0574
 5036W        W21883  14.783  15.932  13.130 -0.2910  0.2178  0.1904
 5037W        W21884   1.547  16.447  14.265  0.3291  0.1850  0.0190
 5038W        W21885  10.848   6.626   4.022  0.1781  0.4310  0.1416
 5039W        W21886   2.123  16.209   9.444 -0.4231 -0.3527 -0.0605
 5040W        W21887   7.406  15.268  12.746 -0.2697  0.2205 -0.1355
 5041W        W21888   1.614  18.707  10.136  0.6565 -0.1300 -0.0710
 5042W        W21889   5.347   2.615  14.358 -0.1940  0.0521 -0.2044
 5043W        W21890   1.927   7.983  11.448 -0.1769  0.0512  0.0917
 5044W        W21891   1.005   6.681   0.694 -0.0777  0.4473  0.4120
 5045W        W21892   0.418   9.198  14.549  0.2142 -0.2284  0.1822
 5046W        W21893  17.414   2.314  14.982  0.3628  0.0236  0.2108
 5047W        W21894   0.196   6.889  11.662  0.0204 -0.1643  0.1968
 5048W        W21895  15.784  17.998   2.006 -0.5068 -0.2806 -0.0415
 5049W        W21896  13.505   4.885   1.609  0.2037  0.0822  0.3458
 5050W        W21897  15.452   0.501  11.356 -0.0935 -0.0100  0.1006
 5051W        W21898   3.666   2.908  13.732 -0.3503  0.0108  0.2264
 5052W        W21899  11.254   5.415  12.844  0.2156  0.3437  0.1132
 5053W        W21900   9.821  14.104   4.254  0.0578  0.0640 -0.2017
 5054W        W21901  19.162  17.930  14.377 -0.1713 -0.0457 -0.2071
 5055W        W21902   3.019   5.578  13.247  0.2686  0.1038 -0.2510
 5056W        W21903  14.904   6.944   4.372 -0.1258 -0.0155  0.2967
 5057W        W21904   9.370   0.118  14.888  0.0172 -0.3525 -0.0874
 5058W        W21905  16.709   5.986  11.518 -0.1731  0.0167 -0.0092
 5059W        W21906  15.317   9.293   3.137  0.1340 -0.0109  0.5041
 5060W        W21907  18.012   3.227   4.017  0.1672  0.0854 -0.4447
 5061W        W21908  13.334   2.974   0.529  0.0508 -0.1373 -0.0464
 5062W        W21909  17.033  10.687   1.916  0.1984  0.3771  0.0363
 5063W        W21910   7.816   2.385   0.613  0.1610 -0.0316  0.2663
 5064W        W21911   0.028  12.913  13.604 -0.0848  0.4879 -0.1235
 5065W        W21912  15.616  18.535  12.735 -0.4284  0.1090 -0.4171
 5066W        W21913  12.780  15.679  14.116  0.1712  0.4128  0.0062
 5067W        W21914   0.367   6.360  11.402  0.2687  0.1498 -0.0519
 5068W        W21915   6.785  16.670   0.288  0.1351  0.1467 -0.2343
 5069W        W21916   9.128   6.629  10.057 -0.0691  0.2958  0.0453
 5070W        W21917  17.904   8.587  14.089  0.0422 -0.0901 -0.2461
 5071W        W21918  17.428   6.216  11.261 -0.2063  0.4110  0.0636
 5072W        W21919   5.799   7.602  11.893 -0.1335 -0.2462 -0.2659
 5073W        W21920  17.436  15.387  12.178  0.1556 -0.1433 -0.2734
 5074W        W21921   7.127  12.882  12.319 -0.0646  0.1819  0.1297
 5075W        W21922  13.333  15.318   2.419 -0.1311 -0.4423  0.0381
 5076W        W21923   9.282   7.888  14.209 -0.0630 -0.0156 -0.1701
 5077W        W21924   9.278   8.552   0.644 -0.2463 -0.1439  0.1454
 5078W        W21925  17.911   6.373  10.008  0.3085  0.1778  0.1033
 5079W        W21926   2.778   4.871   2.096 -0.1248 -0.1839 -0.1978
 5080W        W21927  15.552   3.002   4.652  0.0861 -0.0048 -0.1308
 5081W        W21928   6.100  17.684  13.405 -0.1408 -0.0230  0.1164
 5082W        W21929  12.743  17.421   5.718 -0.2714 -0.2641  0.2271
 5083W        W21930  17.650  16.765   2.953 -0.3255  0.0325 -0.3628
 5084W        W21931   8.027  12.086  12.842 -0.1079  0.2621 -0.0025
 5085W        W21932   2.079  18.054   5.082  0.0336 -0.2005  0.3350
 5086W        W21933  11.673   3.532   3.352 -0.2526  0.2006  0.0866
 5087W        W21934  18.791   0.861   3.774 -0.0189  0.0786 -0.1563
 5088W        W21935   2.988  10.681  12.185  0.1615  0.1146 -0.0201
 5089W        W21936   0.586  12.834   0.508  0.2929 -0.1512  0.0723
 5090W        W21937  16.958   6.489   1.774  0.1048  0.2160 -0.0603
 5091W        W21938  10.595  14.528  11.911  0.0153 -0.1679 -0.0907
 5092W        W21939   5.359  13.859   1.947  0.1136 -0.1712 -0.2126
 5093W        W21940   2.382  17.314  11.506  0.0117  0.1520 -0.0539
 5094W        W21941   5.994  15.906   0.369  0.1694 -0.4327  0.0571
 5095W        W21942   4.347  10.736  11.813  0.2936 -0.1327 -0.3800
 5096W        W21943   8.602  10.445   2.857 -0.1756  0.0462  0.1293
 5097W        W21944  14.023   1.710   2.037 -0.0440  0.2877 -0.0798
 5098W        W21945  15.380  10.511   0.568  0.2862  0.0227 -0.2580
 5099W        W21946   6.198   3.728   0.575  0.4368  0.0576  0.1131
 5100W        W21947   4.828   9.913  14.634  0.2188  0.2977  0.2093
 5101W        W21948   4.654   3.096  12.358  0.0829 -0.0249 -0.0337
 5102W        W21949   7.848   0.189   1.135  0.2715  0.2117  0.0138
 5103W        W21950  13.859  18.680   3.373 -0.2829 -0.1374 -0.3573
 5104W        W21951   5.261  18.708   4.292  0.3892 -0.0977  0.0408
 5105W        W21952  12.986  18.542   2.208  0.0383  0.0085 -0.0272
 5106W        W21953  13.340   7.629   0.048 -0.1107  0.1748 -0.3623
 5107W        W21954  10.879  18.525  11.925  0.0925 -0.0986 -0.0259
 5108W        W21955  13.456   0.898  11.367  0.2127  0.1826 -0.0265
 5109W        W21956   6.126  14.302   3.313 -0.3285 -0.1032  0.0432
 5110W        W21957   1.647   5.833   2.781 -0.0490 -0.0060 -0.0805
 5111W        W21958   8.212  14.627  11.309  0.3061 -0.1055 -0.1717
 5112W        W21959  12.778  11.865  12.022  0.1847 -0.0064  0.0309
 5113W        W21960   1.186   0.440  14.718 -0.0204  0.1345  0.1810
 5114W        W21961   4.678  12.723   3.439 -0.5446 -0.0593 -0.2060
 5115W        W21962  15.084  14.730   3.287  0.2517  0.0179 -0.0150
 5116W        W21963   8.427  17.082  12.138  0.1147  0.0554  0.1314
 5117W        W21964  12.089  10.403   1.694 -0.2270  0.2046 -0.0251
 5118W        W21965  17.996   9.795  11.892  0.1000 -0.1289 -0.0734
 5119W        W21966   9.300   8.243   3.532 -0.1568  0.0558 -0.0275
 5120W        W21967  17.187   8.942   3.805 -0.3280  0.0367  0.0792
 5121W        W21968  18.221  18.701   2.447  0.2581 -0.2199  0.0673
 5122W        W21969  13.401  13.400  10.740 -0.0840  0.1410 -0.1183
 5123W        W21970  19.110   8.482  13.571  0.3841 -0.2087 -0.1763
 5124W        W21971  16.353  10.642  13.838  0.1505  0.0131 -0.1882
 5125W        W21972   1.237  12.714   1.097 -0.0292 -0.2406  0.1847
 5126W        W21973   5.513   0.568  12.108 -0.3385  0.1798  0.0431
 5127W        W21974  10.687  13.687   1.495  0.2016  0.2518  0.1322
 5128W        W21975  16.031   6.531   0.852 -0.0430 -0.2075  0.2561
 5129W        W21976   6.319   9.388  13.364  0.4356 -0.0821  0.1402
 5130W        W21977   5.591  10.826   2.311  0.0514 -0.2680 -0.2872
 5131W        W21978   8.676   3.478  12.409  0.0217  0.0344  0.1021
 5132W        W21979  18.996   1.623   3.062  0.1279  0.1818 -0.0542
 5133W        W21980   2.164   4.530  10.626  0.0839 -0.0522 -0.1416
 5134W        W21981   7.589   1.397  11.655  0.0321  0.2071  0.0005
 5135W        W21982   2.362  15.016  13.780 -0.2085 -0.0537 -0.0340
 5136W        W21983  18.210  17.205   0.358 -0.1001  0.0334  0.0274
 5137W        W21984  13.326   7.201  14.674  0.1561 -0.1921 -0.1690
 5138W        W21985   1.600   1.289  10.565 -0.2136  0.2536 -0.3017
 5139W        W21986   7.938   7.554  14.386  0.1392 -0.2019 -0.2726
 5140W        W21987  17.003   3.357  11.273 -0.0090 -0.0569  0.1572
 5141W        W21988  13.405  14.111  12.002  0.3915  0.1040 -0.1891
 5142W        W21989   3.181   0.461   2.953 -0.1213 -0.0556  0.3810
 5143W        W21990  11.807  11.502  14.828  0.1466  0.2283 -0.0919
 5144W        W21991  18.007   6.220  11.330 -0.0583  0.3057 -0.0677
 5145W        W21992   6.181  17.763  14.192 -0.0798  0.1140  0.2251
 5146W        W21993   7.255   9.779   4.505 -0.2320  0.1394  0.1499
 5147W        W21994   5.006   2.011  11.598 -0.2165 -0.1184 -0.0440
 5148W        W21995   8.534   5.300   3.796 -0.3590 -0.2435  0.2544
 5149W        W21996  18.533   1.945   3.334  0.0634 -0.0855 -0.0684
 5150W        W21997  11.133  18.376  14.970  0.2988 -0.2537  0.0341
 5151W        W21998  15.817   3.569   0.786 -0.0727 -0.3126 -0.2652
 5152W        W21999  13.857   3.824   4.129  0.2108  0.0622 -0.0406
 5153W        W22000  17.221  16.260   1.601 -0.0198 -0.1136  0.1397
 5154W        W22001  15.224  11.316  13.774  0.3663 -0.2337 -0.1906
 5155W        W22002  16.385  17.978  15.009 -0.0109 -0.2380  0.0042
 5156W        W22003   2.654   4.173   2.008 -0.1067  0.1452  0.2137
 5157W        W22004   8.725  14.634   0.173  0.3694  0.1806 -0.5741
 5158W        W22005   4.822  17.023   1.138 -0.0574  0.2818  0.2753
 5159W        W22006  16.136  17.823   5.925  0.1023 -0.2696 -0.3618
 5160W        W22007   2.617   9.176   3.369 -0.2106  0.0539 -0.0713
 5161W        W22008   6.270  14.210   1.447  0.1430  0.2013 -0.1487
 5162W        W22009  12.884   7.274   1.767 -0.1726  0.0314  0.2739
 5163W        W22010  11.763  13.149   0.448  0.2553  0.0261  0.0557
 5164W        W22011  13.043   7.271  13.781 -0.3003  0.2042  0.1239
 5165W        W22012  16.938   8.025  11.417  0.1799  0.1697 -0.0537
 5166W        W22013   0.529  14.625   3.030 -0.1132 -0.3071  0.3529
 5167W        W22014   2.968   9.397   2.357 -0.0117 -0.4302  0.1072
 5168W        W22015   3.053   8.018   4.887  0.0133  0.0094 -0.0301
 5169W        W22016   8.019  12.694   1.334  0.1025 -0.1605  0.1701
 5170W        W22017   2.090   7.659  10.028  0.3746  0.1756 -0.1279
 5171W        W22018   3.106  13.751   4.941 -0.3640  0.3969  0.1172
 5172W        W22019   2.745  12.584   0.474 -0.0979 -0.2972 -0.3371
 5173W        W22020  16.851  18.302  12.575 -0.2631  0.2596  0.3366
 5174W        W22021  15.434   8.762  12.833 -0.1792  0.1386 -0.1257
 5175W        W22022   2.907   6.684  12.976 -0.2156  0.0732  0.1388
 5176W        W22023   4.837  12.006  13.736 -0.2248  0.0113 -0.0055
 5177W        W22024   8.145  17.165   2.438 -0.1163  0.0834 -0.3148
 5178W        W22025   9.593  15.840   1.422 -0.0495 -0.2331 -0.0177
 5179W        W22026  10.302   0.104  11.113  0.0380 -0.0477 -0.0758
 5180W        W22027  12.842  18.172   0.330  0.4896 -0.2583 -0.0329
 5181W        W22028  12.120  12.076   3.969 -0.1060  0.3271 -0.4125
 5182W        W22029  13.338  19.054   3.548 -0.0356 -0.4454 -0.0505
 5183W        W22030  16.373   9.021  13.712 -0.0247  0.0490 -0.1224
 5184W        W22031  16.224  13.799  10.660 -0.1621 -0.3603 -0.1119
 5185W        W22032   6.495   7.342   1.188  0.5520  0.2779 -0.2243
 5186W        W22033  14.440   4.400   3.020  0.1986  0.3157  0.0848
 5187W        W22034  13.715  13.774   4.654  0.0259 -0.1415 -0.1860
 5188W        W22035   7.760  12.426  14.673 -0.0190  0.0325 -0.1693
 5189W        W22036  11.184  14.297   1.380  0.0728  0.1555 -0.0106
 5190W        W22037   8.971   6.658   0.235 -0.2457  0.2553  0.1960
 5191W        W22038  13.191  17.189  12.217 -0.0322  0.0961  0.2797
 5192W        W22039  13.395   9.612  13.610 -0.1703  0.1522 -0.1748
 5193W        W22040   0.561  14.782  14.879 -0.1238  0.0063  0.0182
 5194W        W22041  13.069   4.082   4.327  0.2734 -0.0539 -0.2199
 5195W        W22042   1.536  17.098   1.525  0.1449 -0.1944  0.3519
 5196W        W22043  10.677   8.384  14.664 -0.0403  0.3913  0.1566
 5197W        W22044   9.028   7.314  13.001 -0.0527 -0.0104 -0.1146
 5198W        W22045   0.388  13.230   0.138 -0.0523 -0.1135  0.0850
 5199W        W22046  13.528   6.100  13.042 -0.0903  0.3129 -0.2306
 5200W        W22047  11.899   5.636   1.857 -0.3611  0.0336  0.0050
 5201W        W22048  10.384  16.877  13.875  0.0193 -0.0903 -0.0379
 5202W        W22049  10.117  18.568   3.753  0.2477  0.2845 -0.0746
 5203W        W22050   6.266  17.082   3.999 -0.3124  0.1635  0.0061
 5204W        W22051   2.196   2.548  11.391  0.1988 -0.2361  0.1400
 5205W        W22052   1.344  15.271  12.055  0.1459 -0.2481 -0.1666
 5206W        W22053  11.817   3.097   0.114  0.3417  0.2145 -0.1831
 5207W        W22054   2.665   1.696   2.340  0.0265 -0.1482 -0.0836
 5208W        W22055   1.611   5.710   1.423  0.0502  0.3001  0.3360
 5209W        W22056   8.877   3.871   0.062  0.2093  0.3089 -0.0656
 5210W        W22057   9.063   3.824  12.139  0.0724 -0.0014  0.0426
 5211W        W22058   3.917  14.404   1.333 -0.1482 -0.0110 -0.1809
 5212W        W22059   0.150   4.113   4.856  0.0151  0.1554 -0.2475
 5213W        W22060   8.380  15.422   0.103  0.1053  0.1365 -0.3580
 5214W        W22061   5.378  13.113   0.259  0.0914  0.0825 -0.4555
 5215W        W22062   6.775   1.557   1.477 -0.0039  0.3737 -0.2316
 5216W        W22063  15.398   6.037   5.172 -0.1427  0.0574  0.3277
 5217W        W22064  13.907   8.738  10.342 -0.3147 -0.0598 -0.0778
 5218W        W22065  12.310  12.209   2.729  0.0780  0.1775 -0.0996
 5219W        W22066   6.669   6.769   2.710 -0.3047  0.0230 -0.0783
 5220W        W22067   4.749  12.747   0.608 -0.1564 -0.1470 -0.0660
 5221W        W22068   1.082   3.087  12.810  0.0977  0.0407 -0.0004
 5222W        W22069  18.940   8.881   2.724 -0.0148 -0.3080 -0.2618
 5223W        W22070   2.809  12.212   5.082  0.3365  0.0407  0.1739
 5224W        W22071  18.363  15.430   2.749  0.0053  0.2398 -0.0395
 5225W        W22072   8.862  18.881  13.584  0.0613 -0.0981 -0.1537
 5226W        W22073  10.434  11.658  10.939 -0.1277 -0.1506 -0.0855
 5227W        W22074   8.705  17.995   2.576  0.0246 -0.2554  0.0333
 5228W        W22075  11.371  12.480  14.990  0.0588 -0.0586  0.0701
 5229W        W22076  19.067   3.463   4.331  0.1036  0.2857 -0.0849
 5230W        W22077  15.031   8.687  14.060  0.1212 -0.0345  0.2688
 5231W        W22078  10.947  17.001   4.404 -0.3280  0.4075  0.0994
 5232W        W22079   1.802  15.050  12.219  0.0968  0.4204  0.1204
 5233W        W22080   2.659   3.536  14.179 -0.0766 -0.2930  0.1097
 5234W        W22081  14.126   8.991   2.184 -0.0543 -0.0402 -0.1020
 5235W        W22082  18.533   8.506   5.015 -0.0152  0.2802 -0.2369
 5236W        W22083   3.890  10.820   2.907  0.3486 -0.0505 -0.0352
 5237W        W22084   7.944  15.172   3.951  0.0107 -0.1753  0.1084
 5238W        W22085   6.693   2.742   3.448 -0.1686 -0.2330  0.0838
 5239W        W22086  15.513  17.962   5.254  0.2841  0.2000  0.2212
 5240W        W22087   5.825  15.674  10.524 -0.1797 -0.2438 -0.0141
 5241W        W22088   0.651  18.140   3.963  0.1871 -0.0692  0.1045
 5242W        W22089  11.599  14.569   1.646 -0.0940 -0.0524  0.1992
 5243W        W22090   1.237   4.930  14.232 -0.0739  0.0158 -0.0244
 5244W        W22091  13.250  18.524   4.260 -0.0892 -0.0969 -0.0633
 5245W        W22092   2.971  11.963   4.658 -0.0716 -0.2129 -0.1062
 5246W        W22093  15.469   9.477   0.768  0.1913 -0.0717 -0.1021
 5247W        W22094   5.302   2.076  14.339  0.0632  0.0108 -0.1986
 5248W        W22095   8.698   2.533   4.881  0.1887  0.0318  0.3091
 5249W        W22096   9.487  11.817   0.460 -0.3491 -0.0662  0.0699
 5250W        W22097  13.965  17.006   4.805 -0.0739  0.1496  0.2227
 5251W        W22098   1.574   9.984   1.194 -0.0269  0.1121 -0.2057
 5252W        W22099   2.043   6.201   3.537 -0.0313 -0.3883 -0.1556
 5253W        W22100   8.172  12.110   4.328 -0.1942  0.0326  0.1250
 5254W        W22101   8.518  12.294  11.207 -0.2091  0.1452  0.3823
 5255W        W22102   2.388  18.917   4.376 -0.1402 -0.1815  0.0228
 5256W        W22103  14.805  10.385   2.753 -0.2707  0.0484  0.0193
 5257W        W22104  11.839   7.553  10.821  0.0311 -0.2706  0.1920
 5258W        W22105  17.933   8.459  12.323  0.0340 -0.3626 -0.0921
 5259W        W22106  17.282   8.038  12.211 -0.2465 -0.1755 -0.2242
 5260W        W22107   4.264   9.627  11.797  0.1827  0.0422 -0.1687
 5261W        W22108  16.803   4.189   4.467  0.0384  0.0164 -0.0765
 5262W        W22109   9.137   3.046   4.030  0.1379 -0.1036  0.0018
 5263W        W22110   3.859  18.565   2.843 -0.1826 -0.0641 -0.0859
 5264W        W22111  17.351   9.251   5.522 -0.2829 -0.2249 -0.0085
 5265W        W22112  19.139   8.088  10.520  0.0640 -0.1717 -0.1127
 5266W        W22113  12.779  18.603   1.672 -0.1925 -0.1183  0.1197
 5267W        W22114   3.408  14.015   4.528  0.0911 -0.0510 -0.1472
 5268W        W22115   7.328   0.780  13.722 -0.0600 -0.3485  0.0667
 5269W        W22116  17.836   0.294   1.520  0.1875  0.1276  0.0376
 5270W        W22117   9.270  11.089   0.124 -0.0954  0.1544 -0.0692
 5271W        W22118   8.676   6.210  13.467 -0.0380  0.0982 -0.0433
 5272W        W22119   3.100   0.802   9.293 -0.0909  0.0505 -0.1645
 5273W        W22120   3.220  17.287  12.000 -0.0559 -0.3141  0.1287
 5274W        W22121  10.289   0.508  11.938  0.2063 -0.3464 -0.1477
 5275W        W22122   4.839   3.252   3.338  0.0380 -0.2267 -0.0262
 5276W        W22123   9.282   7.611   2.756  0.0665  0.3899 -0.0816
 5277W        W22124  13.864  18.987   2.619  0.0776 -0.2738  0.0593
 5278W        W22125   5.904   5.298   1.202 -0.0087 -0.0538 -0.1304
 5279W        W22126   2.115  12.665  10.457 -0.0210 -0.0102  0.1744
 5280W        W22127   5.632   2.520   1.337 -0.1680 -0.3661 -0.0178
 5281W        W22128   2.870  12.800   4.351 -0.2187  0.2137  0.1074
 5282W        W22129   4.416   2.799   4.389  0.0072 -0.2268  0.0684
 5283W        W22130   8.878   6.479   1.726  0.0136  0.2465 -0.1750
 5284W        W22131  19.196  12.225  14.291 -0.0021  0.1947  0.0554
 5285W        W22132  16.743   8.040   1.619 -0.0401 -0.0654  0.3052
 5286W        W22133  17.306   5.953   1.767 -0.3035  0.0250  0.1305
 5287W        W22134   2.958   8.970   1.486 -0.0353  0.0479  0.2847
 5288W        W22135   4.731   2.501  12.856 -0.1222 -0.0808 -0.2075
 5289W        W22136  12.167   0.600  12.924  0.0023 -0.0195  0.1863
 5290W        W22137   9.847   0.827  13.208  0.0965  0.1706  0.1947
 5291W        W22138   8.199  14.842  10.635 -0.2302  0.1242 -0.0778
 5292W        W22139   8.400   2.902  14.431  0.1571 -0.0325  0.0016
 5293W        W22140  10.719   1.496   4.393  0.0081  0.0851 -0.1520
 5294W        W22141   4.241  12.726  13.904  0.1187  0.1571  0.1925
 5295W        W22142   7.459  13.313  14.615  0.3854 -0.0044  0.1890
 5296W        W22143   7.648   7.492   0.722 -0.3276 -0.2432  0.1993
 5297W        W22144   5.586   8.501  14.814  0.0749  0.0605 -0.1572
 5298W        W22145  16.123   1.463   4.166 -0.2499  0.3341  0.0681
 5299W        W22146  12.669  18.263  14.849  0.0767 -0.0030 -0.1858
 5300W        W22147  10.576   7.365   1.180  0.2003  0.0026  0.0945
 5301W        W22148   8.858  17.466   1.244 -0.3657  0.0123 -0.1461
 5302W        W22149  14.152   0.553  11.896 -0.1941  0.0007 -0.1223
 5303W        W22150  13.812   2.125  14.548 -0.1214  0.0702 -0.1481
 5304W        W22151   1.126  11.922   2.515 -0.2043  0.2984  0.4091
 5305W        W22152   5.396   7.775   4.689 -0.1483 -0.1444 -0.1387
 5306W        W22153  17.906   1.312   3.906  0.0702  0.0591 -0.1521
 5307W        W22154  16.013  10.398  14.831 -0.1394  0.2398 -0.0962
 5308W        W22155   4.180  10.619   2.500  0.2752  0.2240 -0.1139
 5309W        W22156  14.584   7.687  11.317 -0.0539  0.0843 -0.0374
 5310W        W22157  14.178   7.414  10.205  0.2607 -0.1168  0.2175
 5311W        W22158   1.442  17.937   0.186  0.3061 -0.3491 -0.1003
 5312W        W22159  15.369   5.216  12.985 -0.0032  0.3129  0.1305
 5313W        W22160  14.123  12.402  12.129  0.2532  0.0266  0.1588
 5314W        W22161  10.911  15.380  14.512 -0.1167 -0.0793  0.2809
 5315W        W22162  14.271  15.056  12.639  0.3637  0.0377 -0.0512
 5316W        W22163   7.887  16.907   4.013 -0.0864  0.3642  0.0571
 5317W        W22164   0.854   7.685   3.862 -0.0619  0.2319 -0.2527
 5318W        W22165  15.013   1.617   9.592 -0.0929  0.0090  0.2859
 5319W        W22166   5.466   6.037   5.423  0.2343 -0.2534  0.0793
 5320W        W22167  13.561  13.173  12.854 -0.3484 -0.1155  0.2565
 5321W        W22168   3.919   4.818   2.654  0.3140  0.0139  0.0596
 5322W        W22169   1.308   3.228  14.759 -0.1941 -0.1238  0.2077
 5323W        W22170  11.310  10.108   2.840  0.2081  0.2698 -0.4223
 5324W        W22171   6.852   3.964  13.172  0.2183 -0.1090 -0.1304
 5325W        W22172   0.912   4.113  11.260  0.0215  0.2925  0.0004
 5326W        W22173   8.803   9.067   1.776 -0.1965  0.0208 -0.0955
 5327W        W22174  14.281   2.224   4.129 -0.2667  0.0401 -0.1263
 5328W        W22175  12.698  18.688  13.507 -0.0307  0.2418  0.1326
 5329W        W22176  16.716   4.006  10.622  0.2063  0.1695 -0.1591
 5330W        W22177   0.175   5.552  10.954  0.1286  0.2116  0.2666
 5331W        W22178   8.063  14.345  12.989  0.0413 -0.2898  0.0546
 5332W        W22179   4.136  18.114   0.144 -0.0471  0.3007 -0.1061
 5333W        W22180  10.305  12.626  14.818  0.1437 -0.2207  0.3567
 5334W        W22181  13.017  16.983   1.760 -0.0601  0.0928 -0.3746
 5335W        W22182   9.062   2.937   0.159  0.0683  0.0870 -0.0977
 5336W        W22183  18.162   1.284  13.263 -0.2722  0.1565 -0.0473
 5337W        W22184   7.163  18.076   1.609 -0.4539 -0.0477 -0.0334
 5338W        W22185   0.350   4.903   4.318 -0.3605 -0.0060  0.2350
 5339W        W22186   0.594   0.348  11.807 -0.2313 -0.2569 -0.0652
 5340W        W22187   7.909   4.005   4.100 -0.0046  0.1528  0.1253
 5341W        W22188   2.499   9.005   1.815 -0.0557  0.0391 -0.0302
 5342W        W22189  13.303  18.370   0.525  0.1410  0.1202  0.4198
 5343W        W22190   8.691   2.004  11.672 -0.0370  0.0966  0.2304
 5344W        W22191   4.320  11.444   2.966 -0.0178 -0.2868 -0.0632
 5345W        W22192  11.276  14.381  14.972 -0.0861 -0.4851 -0.0823
 5346W        W22193  15.564   7.616  15.020  0.2191 -0.2401 -0.0374
 5347W        W22194   0.149  17.154  13.732  0.1679 -0.2450  0.2048
 5348W        W22195  16.064  10.479   0.794 -0.2311 -0.0746  0.1115
 5349W        W22196   4.954   0.662   0.853  0.0932 -0.0488  0.1187
 5350W        W22197   6.441  14.459   3.762 -0.3144  0.2080 -0.0941
 5351W        W22198   1.718   8.561  12.762  0.4554 -0.0083  0.4776
 5352W        W22199  11.220  17.685   4.983  0.1774 -0.1886  0.0834
 5353W        W22200   7.667   1.079   4.896 -0.3727 -0.2001 -0.1190
 5354W        W22201  14.625  12.161   9.862  0.0771 -0.0601  0.1009
 5355W        W22202   7.441  14.631  10.986  0.2949  0.0736  0.0660
 5356W        W22203   5.762   8.474  13.045  0.2037 -0.1704 -0.1066
 5357W        W22204  15.267  15.676   4.319  0.2209  0.0315 -0.1449
 5358W        W22205  10.322   8.764  10.779  0.2675 -0.0252 -0.1221
 5359W        W22206  11.742   6.542   1.742 -0.2737 -0.2048  0.0930
 5360W        W22207   5.133  10.845  13.155 -0.1436  0.1636  0.3798
 5361W        W22208   7.739   5.633  12.885  0.0089  0.1725  0.5154
 5362W        W22209   2.792   9.005   5.888  0.0647 -0.1471  0.2486
 5363W        W22210   9.584   4.041   4.021 -0.3946  0.3425  0.0971
 5364W        W22211   2.148  14.555   0.858  0.0408 -0.2047  0.0833
 5365W        W22212   5.637  17.847  13.466 -0.2420  0.0007 -0.1851
 5366W        W22213  15.298   8.674   0.813 -0.0448  0.0823 -0.3304
 5367W        W22214   5.611   5.328   0.651  0.1060  0.0653  0.1190
 5368W        W22215   6.882  18.228   1.157  0.1047  0.1139 -0.2666
 5369W        W22216  17.963  13.720   0.843 -0.1085 -0.1324  0.0068
 5370W        W22217   3.312   7.905   3.785  0.0582 -0.1423  0.2550
 5371W        W22218  14.546   5.610  13.978 -0.1661  0.0042  0.0972
 5372W        W22219   9.930   2.903   0.321 -0.1605 -0.1582 -0.0411
 5373W        W22220  18.471   5.904  12.835 -0.3709  0.2137 -0.1950
 5374W        W22221  13.434  17.647   4.870 -0.2268 -0.1950 -0.1450
 5375W        W22222  17.191  11.251   0.014  0.0687 -0.0060 -0.0007
 5376W        W22223   2.161   6.414  13.730 -0.0473  0.1179  0.1419
 5377W        W22224  13.503   6.785   4.382  0.2237 -0.2108  0.2895
 5378W        W22225   2.972  18.946   4.478  0.2053 -0.0008 -0.0617
 5379W        W22226  15.075   8.987  14.656 -0.1828 -0.0061 -0.2160
 5380W        W22227   4.043  11.245   4.619  0.1612 -0.1272  0.0885
 5381W        W22228   3.786   8.120  14.612 -0.1866 -0.0343  0.0573
 5382W        W22229   6.881  10.609   5.406  0.0813  0.2309  0.4610
 5383W        W22230  12.110   1.016   2.017  0.1931 -0.2040  0.0891
 5384W        W22231  18.085   3.789   4.199  0.0003  0.0834  0.1137
 5385W        W22232   7.007   9.445   0.132  0.3728  0.1122 -0.3110
 5386W        W22233   4.674  13.447   4.194 -0.0339  0.0756 -0.2351
 5387W        W22234   7.914   6.647  13.526 -0.0414  0.2757  0.2789
 5388W        W22235  14.138   2.597   1.911  0.0103 -0.2307 -0.0382
 5389W        W22236   4.506  18.288   1.309  0.3266 -0.0305  0.0582
 5390W        W22237   6.917   6.448   1.682 -0.0558  0.0363  0.1045
 5391W        W22238   4.730  13.674   5.218 -0.3718 -0.0987 -0.0016
 5392W        W22239   3.367   7.091   3.777  0.1131  0.0976 -0.0111
 5393W        W22240  11.278   4.015  12.604 -0.2490  0.0741 -0.1144
 5394W        W22241  18.094  10.208   0.967  0.1419 -0.0828 -0.1231
 5395W        W22242  10.964  14.896   2.660  0.1081 -0.1710  0.1869
 5396W        W22243   9.157  17.485  14.915  0.0331 -0.0602 -0.0919
 5397W        W22244  17.637   1.709   1.584  0.0916  0.0306 -0.2039
 5398W        W22245   4.648  14.546   2.578  0.0752 -0.0201 -0.1403
 5399W        W22246   5.496   6.903   3.461  0.0730 -0.2162 -0.0211
 5400W        W22247   1.597  12.177  14.395  0.0952 -0.1653 -0.3646
 5401W        W22248  19.108  11.355   4.317  0.1266 -0.2575 -0.0378
 5402W        W22249   4.276   3.960  14.804  0.0241  0.0430 -0.3051
 5403W        W22250  17.266  15.192   2.249  0.1820 -0.1650  0.1719
 5404W        W22251   6.503   4.653   2.024 -0.0459  0.0636 -0.2072
 5405W        W22252  11.772   0.121  11.737  0.0897 -0.0653  0.0840
 5406W        W22253   7.676   1.214  14.097  0.1801  0.0430 -0.2151
 5407W        W22254  10.828   7.801  13.721  0.2385  0.0797  0.0665
 5408W        W22255  18.829   0.852  12.689 -0.0314 -0.1083 -0.0942
 5409W        W22256   4.120  16.127  12.224  0.1283 -0.0675  0.1513
 5410W        W22257  15.084   8.900  12.501  0.0189  0.0415 -0.0869
 5411W        W22258   2.512   5.143  10.898  0.0239  0.1249 -0.2655
 5412W        W22259  17.442  13.803   0.041 -0.0787  0.3009 -0.2910
 5413W        W22260   9.911   3.904   4.434  0.2402 -0.2473 -0.1353
 5414W        W22261  12.121   1.200  11.625 -0.2781 -0.0302 -0.0087
 5415W        W22262   9.983  12.455   4.217 -0.1217 -0.1385  0.0667
 5416W        W22263  10.709  17.024  13.396  0.1048  0.4406 -0.0222
 5417W        W22264   8.783  10.345   2.318  0.1491 -0.0921  0.2468
 5418W        W22265  10.574   2.918  11.449  0.0830 -0.1026  0.0716
 5419W        W22266   9.183   1.218   2.744  0.0245 -0.0771 -0.4376
 5420W        W22267  15.608   7.233  10.672 -0.0750 -0.3121 -0.2765
 5421W        W22268  17.036  16.082  13.078  0.0873  0.0909  0.3276
 5422W        W22269   6.061  10.490   0.058  0.0859 -0.0425 -0.1357
 5423W        W22270   2.669   2.751   1.470  0.1202 -0.0280 -0.0341
 5424W        W22271   4.833   9.296  14.919 -0.2991 -0.0123 -0.2451
 5425W        W22272  13.100  10.480  11.362  0.2487  0.0255  0.1047
 5426W        W22273  14.385  17.359   4.542 -0.0933  0.0504  0.1349
 5427W        W22274   1.865   3.057  10.904 -0.3416  0.0554 -0.0633
 5428W        W22275  14.471   3.166  13.091  0.3106  0.3186 -0.2450
 5429W        W22276   6.312   1.962   1.820  0.1486  0.0315  0.1239
 5430W        W22277   3.502  14.725  12.849 -0.5182  0.1819 -0.3096
 5431W        W22278   0.376   0.914   2.914  0.2693 -0.5061  0.0385
 5432W        W22279   1.076  14.517  12.160  0.0286  0.1478  0.2930
 5433W        W22280   3.279   7.861  10.453  0.3407  0.2043 -0.1293
 5434W        W22281   2.636  16.210   2.018 -0.2997  0.1099 -0.0507
 5435W        W22282   3.927   7.879   3.810 -0.0830 -0.2169  0.0679
 5436W        W22283   2.139  15.633  13.225 -0.1938  0.3718 -0.0368
 5437W        W22284  17.501   1.747  11.228 -0.2684  0.2563  0.1179
 5438W        W22285  12.079   1.052  14.539  0.1281 -0.0545 -0.4873
 5439W        W22286   8.153  10.210   1.476  0.1595  0.1210 -0.0347
 5440W        W22287  14.445   0.085   1.372 -0.1739  0.2633 -0.1131
 5441W        W22288  13.815  10.932   5.300  0.0802  0.0332  0.0276
 5442W        W22289   1.101   2.375  12.881  0.1251 -0.0655  0.2582
 5443W        W22290  11.767  12.954  10.584  0.1144 -0.1080  0.1080
 5444W        W22291   2.933   9.208   5.082  0.3363  0.0528 -0.3477
 5445W        W22292   1.519   6.743   2.850 -0.0572 -0.2026 -0.2696
 5446W        W22293  10.230   5.561  12.165 -0.1651  0.2529  0.0755
 5447W        W22294   5.336  15.921  14.759 -0.2238 -0.0415  0.1126
 5448W        W22295  12.114   5.497   3.355  0.0962 -0.3728 -0.4157
 5449W        W22296   2.709   7.581  11.595  0.1942  0.1629 -0.0442
 5450W        W22297  18.587  16.768  12.968  0.2675 -0.2227  0.2348
 5451W        W22298  12.460   8.910   4.772 -0.1047  0.0215 -0.4138
 5452W        W22299  15.823   1.274  12.004 -0.0143  0.2726  0.1500
 5453W        W22300   3.963   6.939  13.851 -0.0112  0.0405 -0.3961
 5454W        W22301   1.055   4.223  13.787 -0.2857  0.0690  0.0719
 5455W        W22302   7.024  16.822  13.516  0.0228 -0.3585 -0.0438
 5456W        W22303  18.112  10.724  12.024 -0.0826 -0.2196  0.0282
 5457W        W22304   1.497   6.712  12.524  0.3330 -0.2718 -0.0021
 5458W        W22305  17.396  17.026  13.637 -0.3729 -0.0155 -0.0458
 5459W        W22306   9.787   6.763  10.713  0.2649 -0.3060 -0.0985
 5460W        W22307   7.902   6.990   0.325  0.1179  0.0433 -0.2043
 5461W        W22308  18.390   5.298   0.453  0.0058  0.1362 -0.4255
 5462W        W22309   5.735  14.394   2.681 -0.2321 -0.0144  0.2256
 5463W        W22310   1.444  13.278  11.440  0.0107  0.0617 -0.1001
 5464W        W22311   2.530   8.765  14.971  0.0801 -0.1475 -0.3197
 5465W        W22312  12.060  19.055   2.144  0.1480  0.1681  0.0129
 5466W        W22313  11.615   6.441   3.468 -0.1747  0.0116  0.1480
 5467W        W22314  15.206   1.417   0.006 -0.1469  0.1936 -0.1688
 5468W        W22315  16.981  12.120  14.237  0.1311  0.2143 -0.1507
 5469W        W22316   9.133  14.737  14.632  0.0468 -0.0306  0.1394
 5470W        W22317   4.554   6.975   3.753 -0.3590 -0.1454 -0.0886
 5471W        W22318  13.868  16.006  11.548  0.3704  0.0496 -0.2302
 5472W        W22319   5.069  15.105   0.869  0.0274 -0.0489 -0.1258
 5473W        W22320  13.622  11.111   5.753 -0.0947  0.1034  0.0671
 5474W        W22321  12.798   1.071   1.598 -0.0558  0.3477 -0.0607
 5475W        W22322   9.638  18.010   0.989 -0.0222  0.3465 -0.1147
 5476W        W22323  11.652   3.555   1.098 -0.0765  0.2986 -0.0382
 5477W        W22324   4.767   8.918   5.327  0.1573  0.1510  0.1181
 5478W        W22325  16.555  10.775   1.596 -0.2094  0.0820 -0.0801
 5479W        W22326   9.051  16.163  12.378  0.1740  0.1067  0.1631
 5480W        W22327  14.597   5.062  13.923 -0.1571 -0.1108  0.2476
 5481W        W22328   2.957   8.894   0.482 -0.0986  0.0169  0.1567
 5482W        W22329  15.642  15.619  13.603  0.0289  0.0006 -0.3613
 5483W        W22330  15.105   7.553  12.373 -0.1260 -0.3254  0.0268
 5484W        W22331   1.356   6.319   0.784  0.2811 -0.0343 -0.1238
 5485W        W22332   0.756   2.375   4.718  0.0131 -0.1012 -0.2005
 5486W        W22333  14.273  17.617   1.389  0.3251 -0.1869  0.3320
 5487W        W22334   0.197  16.202   0.453 -0.0455  0.1592  0.0551
 5488W        W22335  13.016  11.462  11.963 -0.4467  0.1677 -0.0482
 5489W        W22336  15.349   3.895  10.941  0.0230  0.0611 -0.0091
 5490W        W22337   9.961  15.674   1.730 -0.0153 -0.1000 -0.1816
 5491W        W22338  13.963   3.019   5.389  0.2501  0.0999 -0.0034
 5492W        W22339   4.665  15.503   5.703 -0.1285 -0.1705  0.1698
 5493W        W22340  13.536  18.950   4.218  0.1903  0.0767 -0.0897
 5494W        W22341   1.585  13.827  11.115 -0.3185  0.0670 -0.1605
 5495W        W22342  15.530   8.072   2.331  0.0899  0.3990 -0.2134
 5496W        W22343   0.839   8.407  10.620  0.3563 -0.3182 -0.2060
 5497W        W22344  12.926   1.822  12.945 -0.1592  0.3718 -0.3286
 5498W        W22345  12.361   1.111   1.050  0.0165 -0.2964  0.1999
 5499W        W22346   8.149   4.742  13.763  0.2729  0.0681 -0.0986
 5500W        W22347   4.675   0.058  10.744  0.0876  0.0835 -0.1138
 5501W        W22348  12.533   3.527  12.517 -0.3120 -0.4253  0.0950
 5502W        W22349  16.706   3.171  10.474  0.1098 -0.0110 -0.0731
 5503W        W22350  11.879   1.580  14.171 -0.1873 -0.2886 -0.4667
 5504W        W22351   2.349   8.139   0.026  0.0975  0.3256 -0.1905
 5505W        W22352  12.750   5.332   1.331 -0.0107  0.0849 -0.2849
 5506W        W22353  10.663  12.660   5.047  0.0863  0.1578 -0.3786
 5507W        W22354   4.231  10.696  12.915 -0.3686 -0.1981 -0.1967
 5508W        W22355   4.286   9.029   1.983  0.0153  0.1179  0.0292
 5509W        W22356   5.892  18.647   0.353 -0.0448  0.0426  0.0225
 5510W        W22357   9.681  15.839  11.722 -0.2675  0.3413 -0.1711
 5511W        W22358   9.596  12.449  12.829  0.0384  0.0062 -0.2204
 5512W        W22359  11.019  12.762   2.204  0.2117  0.1587  0.1023
 5513W        W22360   9.096   5.936  12.716 -0.0055  0.4062 -0.0250
 5514W        W22361  17.623   4.497   2.805  0.1793  0.3147 -0.1366
 5515W        W22362  17.779  18.036  14.997 -0.2934  0.3418 -0.0278
 5516W        W22363  10.305   6.895  11.989 -0.1508 -0.0735 -0.0703
 5517W        W22364  15.866  15.375  11.464 -0.0108 -0.2008 -0.0424
 5518W        W22365   7.866   9.130  11.803  0.1276  0.1423 -0.2416
 5519W        W22366   0.633  17.027  10.197  0.1134  0.5186 -0.3344
 5520W        W22367   7.956  14.144   2.759 -0.3771 -0.1743 -0.0809
 5521W        W22368   8.579  18.252   1.547  0.0068 -0.2486 -0.2867
 5522W        W22369   0.332   7.735   0.734  0.1007  0.1700 -0.0870
 5523W        W22370   2.333   0.103   3.115  0.0797  0.1263 -0.0056
 5524W        W22371  14.719   4.151   4.414 -0.2680 -0.0744 -0.0356
 5525W        W22372  19.127   1.741  12.657 -0.1522  0.2268 -0.0695
 5526W        W22373  11.132  17.159   2.345  0.0363 -0.1737 -0.1912
 5527W        W22374   3.653  13.286   3.147  0.0949  0.0056 -0.0247
 5528W        W22375   2.521  18.795   3.761 -0.1950 -0.2176 -0.0930
 5529W        W22376   4.485   1.983   3.720 -0.1473 -0.3914  0.2260
 5530W        W22377   0.275  10.304   1.269 -0.1305 -0.1007  0.0402
 5531W        W22378   3.841  18.627  14.520 -0.1064 -0.1107  0.0336
 5532W        W22379   8.137   8.100   4.291 -0.2211 -0.0837 -0.2622
 5533W        W22380   2.679  18.401  10.845 -0.1993  0.2172 -0.0757
 5534W        W22381  10.806   9.439  11.134  0.2690  0.0650 -0.0580
 5535W        W22382   6.779   5.531  10.598 -0.1707 -0.0951 -0.1353
 5536W        W22383   1.536   2.210   1.848  0.1940  0.0091  0.0943
 5537W        W22384   7.612   5.153   4.261 -0.2958  0.2148  0.0089
 5538W        W22385   0.063  19.141  12.719 -0.0780 -0.2634 -0.1597
 5539W        W22386   9.882   0.773  10.674 -0.2399 -0.1022  0.1027
 5540W        W22387  18.011   6.088  13.809 -0.0821  0.0396 -0.1668
 5541W        W22388   2.708  11.309   3.384  0.3695 -0.0723 -0.6810
 5542W        W22389   1.935   9.951   4.493  0.1708 -0.2979  0.2170
 5543W        W22390  18.930   7.852   3.149 -0.0067  0.0144  0.0310
 5544W        W22391   3.700  11.864  13.420 -0.0532  0.0468 -0.1034
 5545W        W22392   8.507  18.845  13.978  0.2037  0.1584  0.2426
 5546W        W22393   2.257   3.306  10.012  0.0132  0.1346 -0.2920
 5547W        W22394   9.586   9.022   1.159  0.1446  0.0669 -0.1418
 5548W        W22395   5.555   6.877  10.969  0.0203 -0.6605  0.5743
 5549W        W22396  16.343   4.158  12.385  0.2837  0.2635 -0.1107
 5550W        W22397  13.374   7.475   1.886  0.1143  0.0094 -0.0878
 5551W        W22398  16.698  15.125  14.417  0.0520 -0.0627 -0.0373
 5552W        W22399  11.852  13.448  10.535 -0.0947 -0.1118  0.1992
 5553W        W22400  10.793   5.331   9.846  0.2697  0.3717 -0.2790
 5554W        W22401  14.647  17.373   1.563 -0.4108 -0.2643 -0.3064
 5555W        W22402  14.610  18.938  14.569 -0.2838  0.1803  0.1447
 5556W        W22403  11.259   1.084   1.555 -0.0008  0.2234  0.3345
 5557W        W22404  17.044  14.033  13.614 -0.0867  0.0071 -0.0390
 5558W        W22405  10.187  15.865   4.033  0.2551 -0.1893  0.2966
 5559W        W22406  15.313   0.285   2.315  0.1549 -0.1429  0.0927
 5560W        W22407  15.042  13.488  12.121  0.0983  0.0812  0.2563
 5561W        W22408  17.373  18.565   1.018 -0.3032  0.0272  0.0800
 5562W        W22409   1.326   8.335   0.882 -0.2542  0.2703  0.1389
 5563W        W22410  12.224  12.327  14.336  0.0412 -0.0315 -0.0749
 5564W        W22411   6.870  10.433   0.343 -0.0922  0.0107  0.1132
 5565W        W22412   5.059   0.263  14.402 -0.3580 -0.0818  0.0479
 5566W        W22413   9.295  18.141   4.194  0.2917  0.2158 -0.0464
 5567W        W22414   1.505  12.562  12.070 -0.0853 -0.1125  0.0438
 5568W        W22415  18.134   5.724  10.607 -0.1238  0.2264  0.0054
 5569W        W22416  18.858  10.129   2.512 -0.3255  0.1738  0.1379
 5570W        W22417  10.974  13.576  13.461  0.2350 -0.0885  0.0076
 5571W        W22418  17.512  15.373   2.651  0.1330  0.0341 -0.2049
 5572W        W22419   5.238   9.308   2.306  0.2366  0.2914 -0.1312
 5573W        W22420   1.548   5.644  14.327 -0.1395  0.0359 -0.0713
 5574W        W22421   3.754   3.721   5.141 -0.0883  0.0028  0.3208
 5575W        W22422  12.591  17.628  12.784 -0.0500 -0.0232 -0.1154
 5576W        W22423  11.148   7.838  14.208  0.0952  0.3813  0.3580
 5577W        W22424   2.360  15.493  13.672  0.0498 -0.2128 -0.1555
 5578W        W22425  10.018  10.311  13.524 -0.2530 -0.3099 -0.0134
 5579W        W22426  11.047  10.204  11.559 -0.2028 -0.0976 -0.0985
 5580W        W22427   9.387   6.951   0.227  0.1339  0.2494 -0.4430
 5581W        W22428  18.252  18.576   2.922 -0.0517 -0.1666  0.2061
 5582W        W22429   7.824   8.010  13.565  0.0743  0.0177 -0.0303
 5583W        W22430  16.304   5.771  13.752  0.0451  0.0095 -0.1770
 5584W        W22431   0.940   9.645  14.714 -0.1634  0.2053  0.0357
 5585W        W22432  19.075  16.772   3.798  0.1931 -0.2643 -0.1388
 5586W        W22433  18.540  13.184   1.265  0.0433  0.0881 -0.2311
 5587W        W22434   8.153  16.245   4.852 -0.0405 -0.7192 -0.1488
 5588W        W22435  19.251   0.812   2.555 -0.0135  0.0302 -0.2066
 5589W        W22436  13.840   4.065  14.368  0.0512 -0.2145  0.2714
 5590W        W22437  14.999   3.708   4.411  0.0346 -0.0640  0.0812
 5591W        W22438   4.331   4.774   5.159 -0.0075 -0.1136  0.3745
 5592W        W22439   0.679  10.135  15.017 -0.1466 -0.0922  0.3570
 5593W        W22440  17.534  17.654   4.299 -0.0431 -0.0507 -0.4716
 5594W        W22441   1.948  11.392  11.874  0.0488  0.0760 -0.1307
 5595W        W22442   8.365   6.757   2.487 -0.1115 -0.0078  0.0635
 5596W        W22443   1.223  15.150   3.461  0.2233  0.2370  0.3084
 5597W        W22444   0.599  17.102   3.233  0.0296 -0.2325  0.0072
 5598W        W22445  14.433  17.975   5.976 -0.2398  0.2344 -0.2368
 5599W        W22446   2.130   5.721  14.377 -0.2118 -0.3088 -0.0533
 5600W        W22447   7.733   5.403   0.074  0.0634  0.1877 -0.1442
 5601W        W22448  17.706  17.101  13.172 -0.0063 -0.3506 -0.1283
 5602W        W22449  15.294   5.124   4.043  0.2529  0.1372  0.0829
 5603W        W22450   9.267  14.251  14.472 -0.0854 -0.1402 -0.5197
 5604W        W22451   5.849   6.047   2.213  0.2370  0.0017  0.3423
 5605W        W22452   2.041  15.151  12.893  0.0336 -0.0654  0.0455
 5606W        W22453   1.272  14.346   3.928  0.0412  0.3425 -0.1879
 5607W        W22454   0.486  18.736  11.856  0.3280 -0.1473  0.1982
 5608W        W22455  16.485  14.619   5.378 -0.0492 -0.4266  0.1507
 5609W        W22456   8.069  16.302  11.678 -0.0327  0.0177  0.0145
 5610W        W22457  14.883  16.427  11.538 -0.3563  0.1579 -0.0347
 5611W        W22458  17.437   8.556   0.890 -0.0356  0.2809  0.0587
 5612W        W22459  18.667  10.991  13.409 -0.0583  0.1561 -0.1729
 5613W        W22460   1.545  12.407  13.704  0.0470 -0.0856 -0.2895
 5614W        W22461  11.750   5.264   4.264  0.1385 -0.1685 -0.0842
 5615W        W22462  18.903   8.686  14.810 -0.0080  0.1033  0.1291
 5616W        W22463   7.059  11.668  12.843  0.1517 -0.2649 -0.0582
 5617W        W22464  16.326   9.039  12.117  0.1898 -0.2688  0.0206
 5618W        W22465  10.634  16.181   1.851 -0.2186  0.0399 -0.1315
 5619W        W22466  13.385   6.878   5.626 -0.1240  0.3994  0.1367
 5620W        W22467  13.022   7.125   5.022 -0.0196 -0.2095 -0.0171
 5621W        W22468   9.325   5.608   4.709 -0.0316 -0.0443 -0.1463
 5622W        W22469   7.811  16.652  10.857 -0.2273 -0.1511 -0.1358
 5623W        W22470   2.469   0.015  12.208  0.3688  0.3893  0.3455
 5624W        W22471   6.216  16.764  13.778  0.1797 -0.2638  0.3428
 5625W        W22472  14.784  12.131  12.918  0.0555  0.0178 -0.1314
 5626W        W22473  10.981   5.363   4.676 -0.3051  0.4867  0.0534
 5627W        W22474  14.872  18.010   0.848 -0.0185  0.1196  0.3221
 5628W        W22475   6.497   6.943  10.804  0.2074  0.1300  0.0627
 5629W        W22476  10.289   2.324   1.075  0.3011  0.0304 -0.0328
 5630W        W22477  18.570  14.599   5.205  0.0170 -0.0616  0.1394
 5631W        W22478   5.271  12.493  12.946 -0.2171 -0.0845  0.1534
 5632W        W22479  13.651   8.059  15.021 -0.1416  0.0275  0.0427
 5633W        W22480   6.893  16.963   0.663 -0.0581 -0.1750 -0.0447
 5634W        W22481  12.223  18.193   3.832  0.2961 -0.0286 -0.3723
 5635W        W22482   2.085  17.917   1.804  0.2523 -0.1739  0.2326
 5636W        W22483   4.463   2.313   1.124  0.0789 -0.1021  0.1722
 5637W        W22484  13.455  12.112  10.504 -0.2451  0.1187 -0.0502
 5638W        W22485   9.546  18.031   2.321 -0.0011 -0.0785 -0.3736
 5639W        W22486   6.383   5.685   4.615 -0.2600  0.1095  0.3381
 5640W        W22487   9.560  13.280   4.584 -0.1377 -0.1722  0.1035
 5641W        W22488  18.237  10.745   9.199  0.4879 -0.1857 -0.0941
 5642W        W22489   2.239   0.979  12.319  0.0580  0.0898  0.0529
 5643W        W22490  14.184   4.458  12.730 -0.2565  0.1498  0.0724
 5644W        W22491  15.964  10.073  11.126  0.0805  0.2574  0.0368
 5645W        W22492  12.214  15.633  12.188 -0.2333  0.0037 -0.0848
 5646W        W22493   4.707   1.480  13.068  0.0402  0.0028  0.1708
 5647W        W22494  13.022   5.579  12.301  0.0587 -0.1317 -0.4223
 5648W        W22495  15.263   8.533  10.718 -0.1137 -0.2121  0.2751
 5649W        W22496   7.952   3.507  13.355 -0.1146 -0.1421  0.0362
 5650W        W22497   2.610  11.026  14.468 -0.1124  0.1578 -0.1628
 5651W        W22498   5.591   9.240  14.221 -0.0948 -0.0216  0.2609
 5652W        W22499  11.132   8.918   4.337 -0.2915  0.1780 -0.2455
 5653W        W22500  16.818   0.318   2.009  0.0594 -0.1780 -0.2948
 5654W        W22501  11.033  18.938   0.191 -0.1897 -0.2489 -0.2964
 5655W        W22502  13.056   5.591  14.068  0.0103  0.0109  0.2614
 5656W        W22503  13.254  16.089   5.245  0.0981  0.3008  0.1608
 5657W        W22504  13.831  15.423  11.498  0.0290  0.0830  0.2682
 5658W        W22505  14.042   1.405   3.794  0.2294 -0.2197 -0.0485
 5659W        W22506  10.073  13.098   4.560  0.0736 -0.0506  0.1372
 5660W        W22507  16.945  13.740  11.926  0.0897  0.2092 -0.0272
 5661W        W22508   1.879   8.114   1.760  0.3476  0.3332  0.1211
 5662W        W22509  17.058  17.239   4.862  0.1236  0.1068 -0.3084
 5663W        W22510   9.250  10.095  13.789  0.0871  0.1196  0.4325
 5664W        W22511  11.833   3.288   0.656 -0.2145  0.0997 -0.1003
 5665W        W22512  12.761  13.936   3.972  0.8020  0.0622 -0.0595
 5666W        W22513   9.238  10.411   3.935 -0.3315 -0.1226 -0.1191
 5667W        W22514   2.205   2.928   0.118  0.0101 -0.0587  0.0337
 5668W        W22515  17.019   4.621   1.046 -0.0721 -0.1573  0.4501
 5669W        W22516   0.416   8.775   9.370  0.1061  0.1705  0.1768
 5670W        W22517  11.987  15.273   1.377  0.0297 -0.0086  0.1163
 5671W        W22518  17.931   2.269  13.669 -0.1204 -0.2625  0.0769
 5672W        W22519   6.834   4.244  10.625 -0.1006 -0.1062  0.1415
 5673W        W22520  18.649  16.748  11.260  0.0446 -0.1564  0.3517
 5674W        W22521  14.708   9.531   0.057 -0.1534  0.0901 -0.0332
 5675W        W22522  15.065   0.628   5.482 -0.1645  0.0283 -0.3652
 5676W        W22523   6.447  10.637   2.611 -0.0010  0.0337 -0.0056
 5677W        W22524   7.111   9.637  13.696 -0.1237  0.0088  0.2252
 5678W        W22525   4.963   7.247  11.822  0.3063 -0.2066 -0.1822
 5679W        W22526   1.172  13.335  10.465  0.0832  0.2067  0.0015
 5680W        W22527  15.223  12.030  14.801  0.4144  0.0096 -0.0845
 5681W        W22528   1.794   5.020   2.197  0.0574 -0.0203 -0.2032
 5682W        W22529  15.177   5.385  11.299 -0.1297  0.2073 -0.0299
 5683W        W22530   8.852  13.237   0.550  0.0196 -0.1100  0.1648
 5684W        W22531  13.326   6.884   0.908  0.1854  0.1879  0.1561
 5685W        W22532   4.753  11.322  14.291 -0.0681  0.1812 -0.0968
 5686W        W22533  13.815  18.366   4.228  0.3726  0.0614  0.0820
 5687W        W22534  10.860  17.575  12.297 -0.2955 -0.0973 -0.1807
 5688W        W22535  17.212   9.618  13.523 -0.0188 -0.2222  0.0229
 5689W        W22536   7.959   2.696   4.071  0.0886 -0.2527  0.0699
 5690W        W22537  16.994  19.176   0.496 -0.1775  0.0736 -0.0100
 5691W        W22538   2.374   8.825  12.028  0.0290 -0.1020 -0.2429
 5692W        W22539   7.174   5.045   4.537 -0.0310 -0.0771 -0.0905
 5693W        W22540  18.274   9.861   3.642 -0.0783 -0.3550  0.1909
 5694W        W22541   4.574  16.393  10.960 -0.2346  0.3672 -0.2262
 5695W        W22542   9.110   7.806  14.935  0.1866 -0.1361 -0.0515
 5696W        W22543   9.884   5.284   0.804 -0.0378 -0.3994  0.0951
 5697W        W22544  14.045  11.462   3.396 -0.1125  0.0250 -0.3293
 5698W        W22545   1.663  15.933   4.266 -0.1408 -0.2284 -0.0159
 5699W        W22546   2.865   7.537   1.050  0.0773  0.0749  0.0719
 5700W        W22547   2.093   3.095  12.919 -0.2160  0.3173  0.0651
 5701W        W22548  12.397  15.452  14.796 -0.0176  0.0914  0.2283
 5702W        W22549   2.326  10.065  14.895 -0.1154 -0.0670 -0.2051
 5703W        W22550   2.574  10.836  13.978 -0.1016 -0.0737 -0.1375
 5704W        W22551  14.051   7.121   2.939  0.0158 -0.1007 -0.0827
 5705W        W22552   4.978   0.984  11.686  0.1768 -0.0092 -0.0947
 5706W        W22553  18.121   1.124  14.085  0.1234 -0.0116  0.4256
 5707W        W22554   4.268   0.571   5.241  0.2860 -0.0455 -0.4004
 5708W        W22555   4.753  15.465   3.540 -0.0189  0.2129 -0.0487
 5709W        W22556   9.423  13.119  14.259 -0.3347  0.1228 -0.3558
 5710W        W22557   9.443   7.326  12.101 -0.1090 -0.1484 -0.0953
 5711W        W22558  16.305  12.570  12.131  0.1151 -0.2564  0.0421
 5712W        W22559  17.040   5.441  14.462 -0.0444  0.0837 -0.2270
 5713W        W22560   7.405   0.026  13.078 -0.0167 -0.1043  0.0898
 5714W        W22561   0.518   7.016   4.152  0.0940  0.1025  0.0213
 5715W        W22562  16.248   8.192  13.931 -0.3702 -0.0307 -0.0383
 5716W        W22563   4.571   5.181  13.614 -0.2188  0.1004 -0.1005
 5717W        W22564  16.292   1.000   2.173  0.0435  0.1421  0.0093
 5718W        W22565  14.195  14.623  14.948  0.2329  0.3039 -0.2249
 5719W        W22566   1.837  19.141   2.581  0.1158  0.0094  0.1010
 5720W        W22567   2.773  11.359  11.048 -0.2191  0.2378 -0.0652
 5721W        W22568  13.065   1.601   3.879  0.0862 -0.0478  0.1179
 5722W        W22569   4.868  15.958   3.592  0.0817  0.2412 -0.0619
 5723W        W22570  10.259  18.386  14.737 -0.3474 -0.0601 -0.2086
 5724W        W22571   7.884  13.411  13.010  0.0259 -0.3327  0.1094
 5725W        W22572   5.880   0.601   3.675  0.2415  0.0146  0.1019
 5726W        W22573  11.033   6.380   1.089 -0.1049  0.2414 -0.0948
 5727W        W22574   4.480   5.557  10.630 -0.1665 -0.2019 -0.1321
 5728W        W22575   7.555  11.768   4.251  0.0888  0.0511 -0.0547
 5729W        W22576   8.902  11.137  10.915 -0.2360 -0.2383 -0.2417
 5730W        W22577   8.966  17.399   4.427  0.0588  0.0407 -0.1481
 5731W        W22578  13.557   9.578  13.088 -0.0977  0.1299 -0.0829
 5732W        W22579   5.800   4.983  13.439  0.2336  0.4872 -0.2187
 5733W        W22580  16.647  13.486   0.396 -0.3256  0.1182  0.0972
 5734W        W22581   1.575  14.642  11.979  0.0403 -0.0701  0.1074
 5735W        W22582  10.841  16.079   2.716 -0.1204 -0.4857  0.1155
 5736W        W22583   5.666  16.814   1.262  0.1703 -0.1031  0.1729
 5737W        W22584   5.129   8.480   3.517  0.1656  0.3061 -0.1166
 5738W        W22585  10.071   4.417   2.646 -0.0496  0.1242 -0.1241
 5739W        W22586   3.083  16.248   1.815  0.0883  0.1179  0.0455
 5740W        W22587  10.783   6.823  14.051  0.0334  0.1935  0.1016
 5741W        W22588   7.448  13.005  11.604 -0.1935  0.0143 -0.0612
 5742W        W22589  10.735   1.438   3.870  0.0439  0.1809  0.0492
 5743W        W22590  13.151  15.922   0.956  0.1921  0.0348 -0.2435
 5744W        W22591  16.362   9.653  13.610 -0.4982 -0.2130  0.4349
 5745W        W22592   4.931  18.236  13.039 -0.0504  0.1026 -0.1167
 5746W        W22593   4.381   5.070   0.656  0.0452  0.1014  0.1231
 5747W        W22594  18.088   1.135  11.972  0.1272 -0.3914  0.0010
 5748W        W22595   1.126  15.379   5.562 -0.0150  0.0465 -0.1206
 5749W        W22596   8.531   0.449   2.993  0.0092 -0.2181  0.0128
 5750W        W22597   3.137   1.615  11.344  0.0892 -0.0772  0.1385
 5751W        W22598   0.024   0.030   3.189 -0.0212 -0.3539 -0.1091
 5752W        W22599  12.373  13.584   1.799 -0.1592  0.3710 -0.0017
 5753W        W22600  17.836   6.284  12.186 -0.1783  0.1256  0.5301
 5754W        W22601  13.236  16.382   4.777  0.0432  0.2579 -0.0624
 5755W        W22602  14.184   5.821  11.935 -0.0629  0.0644  0.4337
 5756W        W22603   2.310   4.615  14.344 -0.3821 -0.2504  0.1822
 5757W        W22604  11.466  15.848   4.643 -0.2409 -0.0967  0.2031
 5758W        W22605  15.744  13.550  11.413  0.0668  0.0030 -0.0179
 5759W        W22606  13.730  10.052   4.306  0.0499 -0.2022  0.0373
 5760W        W22607  16.248   8.876  10.449  0.0047  0.3462  0.2116
 5761W        W22608   4.367  14.069  13.901 -0.1764 -0.0252 -0.1017
 5762W        W22609  11.750  11.340  10.210  0.2652 -0.0974 -0.0939
 5763W        W22610  16.526  13.221   4.374 -0.0900 -0.0540 -0.1422
 5764W        W22611  10.294   9.841  14.741  0.0327  0.1085  0.1209
 5765W        W22612   7.183   5.499   3.698 -0.3584 -0.1400 -0.2346
 5766W        W22613   5.610   4.434   0.464 -0.1555 -0.0498 -0.3762
 5767W        W22614   3.138   8.588   1.225  0.1346 -0.1047  0.2811
 5768W        W22615  18.744  14.639  13.855  0.3089 -0.2819  0.0034
 5769W        W22616   6.688  17.228   3.698  0.0508 -0.0131  0.0303
 5770W        W22617  10.822   1.577  14.155 -0.1398 -0.0554 -0.1102
 5771W        W22618   4.428  17.582  14.873  0.1153  0.2550 -0.1027
 5772W        W22619  12.752  16.973  11.359 -0.0509  0.0214  0.2256
 5773W        W22620   4.985   8.817   0.130 -0.1436 -0.4627  0.1767
 5774W        W22621  18.802  18.296   1.127  0.3454  0.2585  0.3346
 5775W        W22622  14.527   1.387   4.773 -0.0985  0.3180 -0.0351
 5776W        W22623   3.457  12.895  13.824  0.0286 -0.1014 -0.2249
 5777W        W22624   3.280   8.948  11.945  0.0363  0.0058 -0.0351
 5778W        W22625  12.076   9.595   0.615 -0.3061 -0.1553 -0.1741
 5779W        W22626   7.726   9.891   0.606 -0.2469  0.0775  0.2413
 5780W        W22627  16.787  17.495   5.213 -0.1108  0.0172 -0.0573
 5781W        W22628   3.920   9.735  12.845  0.0945 -0.0621 -0.4737
 5782W        W22629  12.462  11.749   2.645  0.0837  0.4171 -0.1282
 5783W        W22630  10.684  13.059   4.731 -0.2682  0.0649  0.2042
 5784W        W22631   6.574   7.876  10.868 -0.4112  0.4033  0.0438
 5785W        W22632  14.866  17.028   3.617 -0.0407  0.2568  0.1496
 5786W        W22633  14.049   3.206   3.165  0.1983  0.1462  0.2791
 5787W        W22634  12.657  12.675  14.628 -0.0639 -0.1958  0.2622
 5788W        W22635   7.808  12.037   3.094 -0.1667 -0.0371  0.0991
 5789W        W22636   8.637  17.470  14.344  0.0567 -0.0261  0.2020
 5790W        W22637   1.190   6.217   3.848  0.0615  0.1265 -0.2532
 5791W        W22638   6.076   4.179   4.393  0.0926 -0.3144  0.1546
 5792W        W22639  15.964  14.898   3.411 -0.1606 -0.2597  0.1255
 5793W        W22640   9.424   6.959   2.404 -0.0850  0.1383  0.0472
 5794W        W22641  17.859   9.655   2.316 -0.3004  0.1860  0.2344
 5795W        W22642   9.872  16.603   0.668 -0.1134  0.2207 -0.1317
 5796W        W22643  15.392   9.129   1.655  0.0897 -0.2805  0.3162
 5797W        W22644  14.362  13.901  10.002 -0.3296 -0.0778  0.1181
 5798W        W22645  13.010   4.118   3.131 -0.1763 -0.1093 -0.0608
 5799W        W22646   2.128   7.036   4.670 -0.1696 -0.0841  0.0558
 5800W        W22647   9.560  14.871  14.939 -0.0061 -0.0422 -0.1926
 5801W        W22648  14.011  16.212   0.157  0.3836 -0.2773  0.0133
 5802W        W22649   2.820  15.630  13.864 -0.1150 -0.2830  0.0521
 5803W        W22650   8.446  16.733   3.142 -0.0120  0.1225 -0.0864
 5804W        W22651  16.159   8.438   2.455  0.4518  0.0383  0.0276
 5805W        W22652  12.388   2.538   2.150  0.3625 -0.2491 -0.1430
 5806W        W22653  16.513   4.237  14.256  0.2940  0.1091 -0.1747
 5807W        W22654   2.456  10.491  12.125  0.1511  0.2020  0.1816
 5808W        W22655   5.453   7.078   2.721  0.1868 -0.1344 -0.0495
 5809W        W22656   9.723   7.759   2.936  0.1760  0.0110  0.0261
 5810W        W22657  12.694   9.247  11.654  0.2570 -0.0557  0.1320
 5811W        W22658   3.504  16.567  12.111  0.1102 -0.2245 -0.0204
 5812W        W22659  13.528   4.761   1.111 -0.0744  0.1265 -0.1654
 5813W        W22660   4.722   0.528  14.108 -0.1967 -0.0696 -0.3194
 5814W        W22661   4.961  13.899   4.237  0.1183 -0.1753 -0.0012
 5815W        W22662   1.451   8.285  13.147 -0.2094 -0.0301 -0.1756
 5816W        W22663   6.187   4.254  13.144  0.0409 -0.0992 -0.1438
 5817W        W22664  16.878  10.480   1.399 -0.1990  0.2152 -0.1933
 5818W        W22665  11.721  13.197   4.567  0.0329 -0.1914  0.0930
 5819W        W22666  18.017   6.970   0.484  0.1216 -0.0878  0.2344
 5820W        W22667  18.072  18.631   0.003 -0.0504 -0.2657 -0.1617
 5821W        W22668   5.546   2.237   2.635  0.1719 -0.1910 -0.3741
 5822W        W22669   2.593   8.652   3.495  0.1755 -0.1514  0.1623
 5823W        W22670   2.166  14.987  11.912 -0.2329 -0.1985  0.1739
 5824W        W22671   1.256   2.061   1.407 -0.1579 -0.0322  0.1562
 5825W        W22672   4.999  14.402   4.562  0.0484  0.0028  0.1579
 5826W        W22673  15.255  17.534  13.415  0.2559 -0.0286 -0.1104
 5827W        W22674  18.690  15.026  13.405 -0.0142  0.2476 -0.0608
 5828W        W22675   2.780   7.630  13.543  0.1031 -0.1707  0.1141
 5829W        W22676  17.550   6.063   3.523  0.1003 -0.1827  0.0013
 5830W        W22677   2.441  14.726  12.954 -0.0701 -0.1602  0.1380
 5831W        W22678   9.739   0.439   3.089  0.0511 -0.2236 -0.0565
 5832W        W22679  13.318  18.725  13.658  0.1660 -0.0616  0.0581
 5833W        W22680   9.699   0.392   1.197 -0.0532  0.1844  0.0625
 5834W        W22681  17.619  14.267   4.017 -0.1251 -0.3391  0.1966
 5835W        W22682   1.933   4.279   3.954 -0.1006 -0.3170 -0.1334
 5836W        W22683   3.290  11.442  11.031 -0.0049 -0.1989 -0.0947
 5837W        W22684   3.034  16.538  12.292  0.0569 -0.2756 -0.0732
 5838W        W22685  16.408   0.150  13.015 -0.1161  0.2085  0.1599
 5839W        W22686  14.968   3.225   0.387  0.1546  0.1205 -0.0161
 5840W        W22687   8.757  18.458   2.874 -0.3518  0.0599  0.0569
 5841W        W22688  15.937  17.792  11.724  0.3934 -0.0035 -0.1108
 5842W        W22689  15.738   6.874  11.155 -0.1116  0.0524  0.1269
 5843W        W22690  11.832  16.412   3.505 -0.2447 -0.0362  0.0294
 5844W        W22691   0.871  15.013   5.174 -0.1688  0.0430 -0.0344
 5845W        W22692  17.166  10.656   3.417 -0.0494 -0.0430 -0.2018
 5846W        W22693   3.633  17.184   0.359  0.2366  0.0818 -0.0010
 5847W        W22694  18.495  15.827  10.822  0.2631  0.1468  0.1042
 5848W        W22695  14.829  15.175   5.798  0.5742 -0.1207 -0.3577
 5849W        W22696   5.059  10.813   0.963  0.0725 -0.0404  0.1783
 5850W        W22697   8.518   4.189   1.409 -0.1919 -0.4263  0.1905
 5851W        W22698   4.573  12.368  10.287  0.0728  0.0579 -0.0514
 5852W        W22699   6.091  11.585  13.751 -0.0303  0.1202  0.0556
 5853W        W22700  16.217  13.439  12.543 -0.0785  0.4977  0.2114
 5854W        W22701  10.181  16.140   4.557 -0.1941 -0.0773  0.1906
 5855W        W22702  17.648   0.379  13.431  0.0932  0.2530 -0.1700
 5856W        W22703   1.591   0.036   1.724 -0.0195  0.0756 -0.0305
 5857W        W22704   7.651   4.628   1.448  0.1950  0.2291 -0.2616
 5858W        W22705   3.429  18.691   1.273 -0.0155 -0.2958  0.3509
 5859W        W22706  18.916  16.928  12.615 -0.1182  0.0710  0.0269
 5860W        W22707  14.369  12.225  14.681 -0.0666 -0.3194 -0.2452
 5861W        W22708  17.815   3.086  13.946 -0.2476  0.2684  0.0497
 5862W        W22709   7.666  14.799  14.351  0.4400  0.1331  0.1385
 5863W        W22710   8.111   6.506   0.198 -0.1909  0.0843 -0.0201
 5864W        W22711   0.707   8.019  13.858  0.0149 -0.3028 -0.0442
 5865W        W22712   5.874   6.418   3.446  0.1084  0.0991 -0.3742
 5866W        W22713   1.152   1.699   3.177  0.1118 -0.1025 -0.0886
 5867W        W22714   3.573   7.521   5.685  0.0028 -0.0221 -0.2288
 5868W        W22715   9.392  13.935  14.938  0.2199  0.2076  0.1773
 5869W        W22716   1.734   6.184  13.525  0.0212 -0.0895  0.0453
 5870W        W22717   6.686  12.747   2.633 -0.0117  0.0023  0.1805
 5871W        W22718   8.980   3.685   1.885 -0.0702 -0.0988 -0.2825
 5872W        W22719   2.367  11.285   4.938  0.0891  0.1005  0.3831
 5873W        W22720   6.763  11.987  12.133  0.2177 -0.1597  0.1169
 5874W        W22721  14.756  13.090   1.784  0.0482 -0.0660 -0.2726
 5875W        W22722   1.537   9.191   0.631 -0.2514  0.1736 -0.2705
 5876W        W22723  19.144   8.398   3.016 -0.2525  0.0613 -0.1268
 5877W        W22724   0.028  10.359   2.268  0.0593 -0.1010  0.1866
 5878W        W22725   9.440  14.390   5.654 -0.3998 -0.1573  0.2173
 5879W        W22726   2.516  18.290  11.300  0.1796  0.4328 -0.0451
 5880W        W22727   7.466  16.977   0.240 -0.4684  0.2509 -0.1802
 5881W        W22728   5.969   4.235  11.387 -0.1435  0.0828 -0.2599
 5882W        W22729  13.920   5.922  14.961  0.1643 -0.3576  0.1160
 5883W        W22730  17.020   2.315   3.496  0.2795  0.1798  0.4007
 5884W        W22731  16.197   1.383   3.539 -0.3694 -0.1026 -0.0254
 5885W        W22732   1.367   3.377   3.545  0.0066 -0.0953  0.0976
 5886W        W22733  13.882  10.430  12.200  0.0085  0.0494 -0.0064
 5887W        W22734  11.630  11.016  11.610 -0.1886  0.2750 -0.0100
 5888W        W22735   5.049  13.694   0.966 -0.1604 -0.0462  0.2433
 5889W        W22736   0.432   5.631   1.900  0.1477 -0.1720 -0.2315
 5890W        W22737   9.082   1.896  13.120 -0.1405 -0.4214  0.0006
 5891W        W22738  15.487   9.429  11.072  0.3105  0.4611  0.2162
 5892W        W22739  12.448   2.508   0.304  0.1936  0.1399 -0.3574
 5893W        W22740  13.613  14.528  12.172  0.2539  0.1113 -0.3889
 5894W        W22741  11.108  10.556  10.050 -0.2709 -0.0471  0.0559
 5895W        W22742   3.855   8.387   0.972  0.2114  0.2779 -0.2687
 5896W        W22743   3.065  15.996  10.925  0.0196 -0.0370  0.0086
 5897W        W22744  10.118   4.111  11.422 -0.0847  0.0917  0.2317
 5898W        W22745  15.480   9.430   0.151  0.0031 -0.2911  0.0489
 5899W        W22746   3.093   3.254  14.877 -0.0182  0.0299 -0.1889
 5900W        W22747   3.696   2.831   4.635  0.0492 -0.4115  0.0306
 5901W        W22748   1.063   4.226   2.085 -0.1734 -0.0657  0.0344
 5902W        W22749  11.225   2.316  12.498 -0.1185  0.3559 -0.0956
 5903W        W22750   7.316   9.920   1.023 -0.0845  0.1269  0.0688
 5904W        W22751  14.695   2.085   2.657  0.2260  0.2849 -0.0076
 5905W        W22752  14.309   3.101   0.671  0.1306 -0.1307 -0.0170
 5906W        W22753  10.074   2.157   4.436 -0.2504 -0.3431  0.1886
 5907W        W22754  10.839  14.778   2.162  0.1214  0.0714 -0.3208
 5908W        W22755  18.759  15.052  11.335  0.5895  0.2428 -0.3675
 5909W        W22756  13.328  11.156  14.077  0.0063  0.0205 -0.0281
 5910W        W22757   6.207   8.567  11.238  0.1684  0.2089 -0.2603
 5911W        W22758  12.523  10.525   4.420 -0.2676  0.0319 -0.0386
 5912W        W22759   1.176   8.841   0.174 -0.1670  0.0318 -0.0360
 5913W        W22760   3.786   5.322  11.531  0.1133  0.1421  0.3418
 5914W        W22761  15.866   8.252   2.777  0.0293  0.0887  0.3170
 5915W        W22762  19.252  12.231  11.852  0.0478 -0.0888  0.1231
 5916W        W22763   1.568   2.574  11.689 -0.2688  0.2869 -0.1238
 5917W        W22764   7.230   5.510   4.287  0.0296  0.0086 -0.1094
 5918W        W22765  13.313  10.048   2.900  0.0179 -0.1787  0.0179
 5919W        W22766   1.530  12.156   4.911 -0.1523  0.3607  0.1826
 5920W        W22767   1.461  11.340   3.487  0.0265 -0.0414  0.0036
 5921W        W22768   7.377   9.729  14.185  0.4082  0.0659 -0.0473
 5922W        W22769  10.261  13.671  14.522  0.1214  0.0528  0.1185
 5923W        W22770   6.867   0.647  12.713  0.1132 -0.1061 -0.0139
 5924W        W22771  10.911   4.727   0.357  0.1080 -0.3105  0.1808
 5925W        W22772  12.259  14.926  13.790  0.1340 -0.6550 -0.1468
 5926W        W22773   3.622   3.151  13.099 -0.2113 -0.2471  0.1123
 5927W        W22774   8.508   7.873   1.081  0.2617  0.0535  0.5652
 5928W        W22775  13.971  11.953  14.411  0.1460  0.1185  0.0282
 5929W        W22776   6.931  16.398   2.038  0.1341 -0.0888  0.1683
 5930W        W22777   8.848  12.035   9.914 -0.3687 -0.0738  0.0080
 5931W        W22778  15.627  17.512   3.965 -0.3016 -0.2612 -0.2675
 5932W        W22779   7.958   3.222   3.942  0.1043 -0.3757 -0.2593
 5933W        W22780   9.759  16.282   4.240 -0.0088  0.0158 -0.0819
 5934W        W22781  17.194   7.775   3.048  0.0675 -0.0272 -0.0812
 5935W        W22782   3.230  12.349  14.490  0.1194  0.1418  0.1420
 5936W        W22783  15.289   3.438  12.578  0.0426 -0.1073  0.3328
 5937W        W22784   4.844  13.626  13.230 -0.1146 -0.1276 -0.0697
 5938W        W22785   0.871  15.839  12.638 -0.2330 -0.2213 -0.0157
 5939W        W22786   5.370  17.044   1.928 -0.0321 -0.2981 -0.0656
 5940W        W22787   2.788   8.561   0.835 -0.0746 -0.3589 -0.2240
 5941W        W22788  17.911  17.706   2.732  0.0615 -0.1381  0.2377
 5942W        W22789   3.100   7.019  10.676  0.0807 -0.0599  0.3576
 5943W        W22790  13.999  12.794   3.952 -0.4476  0.1850 -0.1208
 5944W        W22791  13.619   8.650  13.823 -0.2619 -0.0141 -0.1320
 5945W        W22792   7.996  18.011  12.091  0.0323  0.0333 -0.1777
 5946W        W22793   0.576  10.576  11.434 -0.0383 -0.2387  0.1366
 5947W        W22794   1.005   4.983  11.756 -0.1248 -0.1361 -0.0294
 5948W        W22795   8.918   9.845   1.051  0.0020 -0.0761 -0.4196
 5949W        W22796   0.173   8.822   2.609 -0.2006  0.0498 -0.0538
 5950W        W22797   3.527   8.222   1.927  0.0494 -0.4527 -0.1681
 5951W        W22798  18.454  16.520   4.288  0.1876 -0.2071  0.2701
 5952W        W22799  11.710   7.746   4.395 -0.0623 -0.1455  0.1892
 5953W        W22800   1.559  11.428   0.746  0.0479 -0.0028 -0.0203
 5954W        W22801  11.946  15.708   4.862 -0.1225  0.0968  0.0635
 5955W        W22802  13.065  12.691  12.355  0.0167 -0.0799  0.1825
 5956W        W22803  18.714   5.225   0.836  0.1129 -0.0214  0.2833
 5957W        W22804   8.054   2.640   4.672 -0.1482  0.3304 -0.0862
 5958W        W22805   6.312   8.203   4.706 -0.2726 -0.0392 -0.1215
 5959W        W22806   2.423   7.420   0.753  0.2505  0.0446  0.1475
 5960W        W22807   0.631  14.193   1.279  0.1976 -0.1114  0.0235
 5961W        W22808   5.874   3.399  11.663  0.0895 -0.1598 -0.1447
 5962W        W22809  16.711   1.213  11.312  0.3398 -0.0120  0.1853
 5963W        W22810   3.715   4.091   3.645  0.3810 -0.1655 -0.1969
 5964W        W22811   3.415   2.533   9.872  0.0006 -0.3088 -0.2874
 5965W        W22812   6.656  18.364   0.695  0.0671  0.0685 -0.2108
 5966W        W22813   9.434  18.722   3.927 -0.1697  0.2892 -0.2224
 5967W        W22814  17.072  16.235   5.084 -0.0915 -0.0662 -0.4127
 5968W        W22815   4.138   2.991   2.671 -0.4618 -0.3446  0.1513
 5969W        W22816   0.135   0.081   0.832 -0.3986 -0.1629  0.0646
 5970W        W22817   3.239   9.687   9.374  0.1627  0.0498 -0.1217
 5971W        W22818  11.425   9.585  14.105 -0.1710 -0.1629  0.0364
 5972W        W22819   9.901  18.168  11.510 -0.3578  0.0079  0.3989
 5973W        W22820   9.090  10.217  11.554  0.1235  0.2190 -0.0314
 5974W        W22821   4.557   2.400  13.367  0.1475 -0.2951  0.1759
 5975W        W22822   5.834   0.959  12.031  0.2621 -0.1620  0.1073
 5976W        W22823   4.965   7.473  13.245  0.0733  0.0436 -0.2032
 5977W        W22824   2.398  17.339   4.946 -0.1074  0.3523  0.1007
 5978W        W22825   1.860   6.117  14.023 -0.4246 -0.2044  0.2487
 5979W        W22826  12.428  12.512   0.980 -0.0271  0.1501  0.0601
 5980W        W22827   1.580  13.146   2.390  0.0604 -0.1823  0.1468
 5981W        W22828   2.269  16.054   1.198  0.1445 -0.1977 -0.1804
 5982W        W22829  11.899  12.262  12.281 -0.1119 -0.1411  0.0902
 5983W        W22830  18.597  10.204  14.580  0.2642 -0.0508 -0.2171
 5984W        W22831  14.776  11.719  10.178  0.0972  0.1116 -0.0922
 5985W        W22832  10.722  10.500   0.299  0.6247  0.0598  0.0382
 5986W        W22833  17.032   9.401   1.330  0.0059  0.0249 -0.0180
 5987W        W22834  12.680  15.515   4.691 -0.1088  0.0272 -0.0072
 5988W        W22835   3.187   2.798  14.568 -0.4750  0.0191  0.0874
 5989W        W22836   3.781  12.913  13.455 -0.0609  0.0473 -0.0055
 5990W        W22837   7.100   8.923  12.922  0.2679  0.2090 -0.2095
 5991W        W22838  18.393   9.017  12.016 -0.1072  0.1677 -0.1206
 5992W        W22839  18.427  16.035   3.983 -0.0934  0.3447  0.1158
 5993W        W22840  15.896   0.382   5.007  0.0435 -0.1478 -0.0598
 5994W        W22841  11.984  15.784   1.165  0.2017 -0.0147  0.0004
 5995W        W22842  18.374  15.512   0.117  0.1613 -0.2891 -0.0225
 5996W        W22843  16.349  13.305   9.686 -0.0410  0.0916  0.1892
 5997W        W22844   1.318  12.030  11.454 -0.1538  0.0207  0.0571
 5998W        W22845   3.349   1.270  12.097 -0.2827  0.2698 -0.0983
 5999W        W22846  14.428   8.795  10.366  0.1009 -0.0564  0.1363
 6000W        W22847   7.284  13.018   4.887 -0.1386 -0.0748 -0.1861
 6001W        W22848  14.623   4.839  14.416 -0.3933 -0.1847  0.0856
 6002W        W22849  17.583   3.456   4.120  0.0369  0.2382  0.1064
 6003W        W22850  17.363   5.398   4.291 -0.1594 -0.1171  0.1076
 6004W        W22851   6.891  14.768   5.078  0.2962  0.2090 -0.0743
 6005W        W22852   4.710  12.864  13.717 -0.1832 -0.0537  0.1404
 6006W        W22853  10.137   6.662   3.706  0.2285  0.2788  0.0024
 6007W        W22854  19.148   7.803   0.878  0.1059 -0.0088  0.2401
 6008W        W22855   5.011   4.667   1.102  0.1534 -0.1532  0.1815
 6009W        W22856  11.370   4.025  14.079 -0.4648 -0.1034 -0.0686
 6010W        W22857  15.654   4.094  14.510 -0.0096 -0.2288  0.1109
 6011W        W22858   9.802  11.884  12.504  0.1660  0.2034 -0.4716
 6012W        W22859   2.519   7.123   5.065  0.1918 -0.2063  0.1280
 6013W        W22860   0.774  17.990   4.472  0.2164  0.1069 -0.1323
 6014W        W22861  18.059   5.008  12.801 -0.4475  0.0017  0.1247
 6015W        W22862  17.963   4.447   0.909  0.1978  0.0137 -0.2949
 6016W        W22863   5.735   0.089   1.669 -0.1011  0.0230  0.0347
 6017W        W22864  12.435   5.312   5.493  0.2484 -0.1447  0.1471
 6018W        W22865  11.193   6.440  14.824 -0.0882 -0.2567  0.1578
 6019W        W22866   4.954   9.197   0.776  0.0906 -0.1226  0.4840
 6020W        W22867   5.133  17.855  13.352  0.1466  0.0124  0.1658
 6021W        W22868   0.421  19.018   0.312 -0.2329  0.2327 -0.2720
 6022W        W22869  18.134  17.310   1.897 -0.1318  0.1683  0.0660
 6023W        W22870   1.715  15.381   2.903 -0.0251 -0.2388 -0.1103
 6024W        W22871   1.048  14.837   3.823  0.1549  0.0228  0.3034
 6025W        W22872   7.364  17.163  12.886  0.3795  0.0527  0.4760
 6026W        W22873  13.350  13.271   4.010  0.1290 -0.0348  0.2178
 6027W        W22874   9.264  10.411  10.322 -0.2517  0.2614  0.1415
 6028W        W22875   6.910   8.636  14.575 -0.0906  0.0900 -0.3517
 6029W        W22876   9.719   7.053   3.502 -0.2189  0.2905 -0.0085
 6030W        W22877  14.569  16.903   1.740  0.0520 -0.0439 -0.0018
 6031W        W22878  11.801   2.868   3.527  0.0406  0.4209  0.3015
 6032W        W22879   3.929  12.849   3.209 -0.1290 -0.3001  0.2030
 6033W        W22880  15.107   0.012  14.189  0.0028 -0.1173 -0.1374
 6034W        W22881  10.380  10.133  13.203  0.3084 -0.2307  0.1111
 6035W        W22882   5.537  14.815  12.591  0.0651 -0.0802  0.2377
 6036W        W22883   9.382   6.581  12.247 -0.3259 -0.1070 -0.0166
 6037W        W22884   3.617   3.463   2.217 -0.0196 -0.2623 -0.1425
 6038W        W22885   8.625  17.476  10.513 -0.1972 -0.3063 -0.1253
 6039W        W22886  15.238  15.997   2.490 -0.1901 -0.0091 -0.1282
 6040W        W22887  13.911  14.924   5.238 -0.0995  0.1329 -0.2971
 6041W        W22888  10.430  19.227   4.248 -0.0480 -0.1388 -0.0940
 6042W        W22889  11.487   5.772  10.394  0.1712 -0.1226  0.2081
 6043W        W22890   9.473  15.308   1.762  0.1663  0.4021 -0.4956
 6044W        W22891   1.939  12.166  10.550 -0.2129 -0.1163 -0.0071
 6045W        W22892   7.109  16.584  12.486  0.1081 -0.1593  0.1489
 6046W        W22893   6.167  18.076   2.198  0.2476  0.0395  0.3488
 6047W        W22894  16.100  11.915  14.627 -0.1056  0.0395 -0.0893
 6048W        W22895  16.677   2.172   2.051  0.0269  0.1898  0.3209
 6049W        W22896  18.391   7.062   0.188 -0.0970 -0.1246 -0.0420
 6050W        W22897   8.856   8.105  14.011  0.2633  0.0060 -0.0517
 6051W        W22898   7.604  16.933   2.352  0.0324 -0.1970  0.0532
 6052W        W22899  10.463  13.513   1.035 -0.0267  0.0790  0.0409
 6053W        W22900  18.625  14.396   3.789 -0.1229 -0.0580  0.1878
 6054W        W22901   1.147  17.538   4.488  0.0053 -0.0407 -0.0577
 6055W        W22902  12.725  17.697   2.325  0.3568  0.0097  0.1137
 6056W        W22903  15.486   6.485   2.294  0.1498  0.2505 -0.0433
 6057W        W22904   5.693  14.648   3.370 -0.1846  0.1568  0.0995
 6058W        W22905  14.607  18.039   3.993  0.1765  0.3520 -0.3742
 6059W        W22906  16.935   1.879   3.829 -0.0088  0.0159 -0.2615
 6060W        W22907   2.054   7.968  12.425  0.1151  0.0316  0.1778
 6061W        W22908  17.549  14.244   4.493  0.2852  0.0754 -0.2964
 6062W        W22909   6.964  19.046   9.801  0.0213 -0.1375  0.1973
 6063W        W22910  10.750   1.030   4.129  0.0437  0.0848  0.1744
 6064W        W22911   0.773   8.580  12.597 -0.4236 -0.1887  0.0512
 6065W        W22912  16.217  10.202   5.011  0.1294  0.1287  0.4364
 6066W        W22913   8.224   9.010   1.608 -0.2082  0.0585  0.2495
 6067W        W22914  16.408  12.521  12.643  0.2121  0.2556  0.0961
 6068W        W22915  15.235   8.558   3.273  0.1684 -0.3551 -0.2132
 6069W        W22916   9.545   5.438   2.975 -0.0446 -0.2288  0.2182
 6070W        W22917  14.495  17.141   0.444 -0.2297  0.0824  0.0312
 6071W        W22918   7.131  10.001  14.594  0.0626  0.1379  0.0018
 6072W        W22919   5.500  10.224  14.256 -0.0832 -0.0567 -0.0546
 6073W        W22920  13.787   7.997   3.762  0.2067  0.1172 -0.1365
 6074W        W22921  16.707  17.721  11.342 -0.1955  0.0590  0.0810
 6075W        W22922   6.542   4.189  14.572  0.2574 -0.1392 -0.1068
 6076W        W22923   5.305  17.957  11.283 -0.1127 -0.0728  0.4307
 6077W        W22924  18.125  14.490   3.286  0.3113 -0.0428  0.3325
 6078W        W22925   9.503  17.697  14.637 -0.0833  0.0809  0.0137
 6079W        W22926  13.622   3.238  12.821 -0.0342  0.1752  0.2342
 6080W        W22927   0.095  11.190   4.912 -0.3209 -0.0536 -0.2107
 6081W        W22928  14.353  12.191   0.238  0.2209  0.2328 -0.0406
 6082W        W22929  16.865   0.013  13.839  0.0232 -0.1216  0.1674
 6083W        W22930   6.741  12.395  12.489  0.0237 -0.1775  0.2166
 6084W        W22931   3.940  12.399  13.393  0.0258 -0.0744  0.2928
 6085W        W22932  16.127   9.280   1.971  0.2703 -0.0954  0.0512
 6086W        W22933  17.265  16.485  13.740 -0.2478 -0.1277 -0.0528
 6087W        W22934   9.038   7.594  11.287  0.0558  0.1162 -0.1503
 6088W        W22935   3.570  18.755   9.637 -0.0963 -0.1713 -0.2720
 6089W        W22936   9.936   9.623  14.386 -0.1311 -0.1123  0.2281
 6090W        W22937  18.989  15.383   0.939 -0.1611  0.0109  0.2113
 6091W        W22938   4.822  13.824  13.695  0.2201 -0.1630  0.1454
 6092W        W22939  13.412  16.966  11.310  0.0434  0.1410 -0.0819
 6093W        W22940   6.941  14.541   3.829 -0.1153 -0.1102  0.0633
 6094W        W22941   2.351   5.128  11.385 -0.1000 -0.0385 -0.2844
 6095W        W22942  10.804   7.639   0.799 -0.3217 -0.1075 -0.1856
 6096W        W22943   8.541  12.513   2.533 -0.3131  0.1129  0.1118
 6097W        W22944  11.040   6.408   4.462  0.1597  0.0707 -0.3514
 6098W        W22945  12.199   6.008   3.338  0.0379 -0.1471  0.0651
 6099W        W22946   6.193  12.319  12.695 -0.4402  0.1721 -0.1333
 6100W        W22947  15.332  14.844   4.344  0.0824 -0.0564  0.2710
 6101W        W22948  15.507   3.452  13.375  0.3476  0.0889  0.2809
 6102W        W22949  13.440  17.722   2.255  0.1264 -0.1616 -0.2478
 6103W        W22950   4.750  18.553  11.951  0.0196 -0.3143 -0.0617
 6104W        W22951  16.424  18.550  10.846  0.2132 -0.3161 -0.1575
 6105W        W22952   2.647  11.658  10.656 -0.1846  0.0623 -0.0564
 6106W        W22953  13.720  15.236   1.531 -0.1621 -0.1102 -0.3534
 6107W        W22954  18.439   7.209  14.240  0.2437 -0.2046  0.1618
 6108W        W22955   7.045  13.496  12.688 -0.1091 -0.1778 -0.2552
 6109W        W22956   9.561  11.879   1.737 -0.1582  0.2411 -0.2495
 6110W        W22957   9.467   8.878  11.617  0.1476  0.1915 -0.1149
 6111W        W22958   5.793   4.344  12.916  0.0587  0.3123  0.0087
 6112W        W22959  19.283  10.675   4.895  0.0192  0.1607 -0.0125
 6113W        W22960  17.801   1.047   0.246  0.1558 -0.0465 -0.0654
 6114W        W22961  13.258  18.140   1.425 -0.1339 -0.2236 -0.2916
 6115W        W22962  10.767  11.243  11.100 -0.1142 -0.2967 -0.2144
 6116W        W22963   7.161   5.819  10.340 -0.1407 -0.0040 -0.0939
 6117W        W22964  11.949   9.183   3.966 -0.0841 -0.2200 -0.1900
 6118W        W22965   3.825  18.436   4.632 -0.3669 -0.3750  0.1553
 6119W        W22966  14.281   1.555  12.538  0.0979 -0.0452 -0.0080
 6120W        W22967  16.429   5.587  12.705 -0.0028  0.0950 -0.0897
 6121W        W22968   5.354  14.310  11.332  0.0114 -0.0832 -0.1091
 6122W        W22969  13.500   2.145  14.152  0.2359  0.3550  0.2707
 6123W        W22970  12.158   0.099   4.004  0.0819  0.0773  0.0077
 6124W        W22971  11.740   1.977   1.881  0.0798 -0.0391 -0.1521
 6125W        W22972  15.942   0.752   5.433  0.1529 -0.3023  0.0946
 6126W        W22973  18.667   9.796   4.083  0.0208 -0.0418 -0.1741
 6127W        W22974  17.467   2.988   0.242 -0.2096  0.0951 -0.0857
 6128W        W22975  11.436  15.452   5.129  0.0343 -0.2408  0.2377
 6129W        W22976  14.592   9.390   2.425  0.1896  0.0409  0.1526
 6130W        W22977   8.036   3.693   2.143  0.2885 -0.2833  0.1269
 6131W        W22978   1.897  12.876   3.711  0.3699  0.1967  0.0288
 6132W        W22979   6.133   7.983  14.158 -0.3458  0.4293 -0.3055
 6133W        W22980   5.966   0.917   4.051  0.1246  0.1348 -0.0582
 6134W        W22981  16.702  15.529   0.361  0.0098 -0.0283  0.0241
 6135W        W22982   1.389  10.416  13.672 -0.1346 -0.1434 -0.1015
 6136W        W22983   8.169  17.703  11.774  0.5087 -0.2779  0.0525
 6137W        W22984  13.180   1.777   5.579  0.1721 -0.1329  0.1480
 6138W        W22985  16.152   9.485  11.859 -0.3551  0.2002 -0.2957
 6139W        W22986   2.558  14.467   4.344  0.1658 -0.4269 -0.1383
 6140W        W22987  13.473   6.905   5.089  0.2083 -0.0142 -0.0779
 6141W        W22988   2.082   2.374   2.421  0.3428 -0.3496 -0.0097
 6142W        W22989   0.053  10.987  12.673 -0.1108 -0.2195  0.0470
 6143W        W22990  18.034  14.267   2.377  0.0847  0.0301  0.1698
 6144W        W22991  18.553   1.413  10.464 -0.2864  0.2408  0.1461
 6145W        W22992  17.703   5.072   0.908 -0.0594  0.1880 -0.2731
 6146W        W22993  15.464   1.904  10.423 -0.1107  0.0203  0.1129
 6147W        W22994   9.729  18.344   1.402  0.1501 -0.0551 -0.0558
 6148W        W22995   0.349   8.098   3.085  0.0516 -0.3242 -0.1304
 6149W        W22996   7.679   2.565   5.090 -0.0911  0.0607  0.1580
 6150W        W22997   0.401   3.454  15.007 -0.0134 -0.0726 -0.0058
 6151W        W22998   3.390   7.575  14.044 -0.0965  0.0900  0.0991
 6152W        W22999   4.182  11.366   4.156  0.1199 -0.1045 -0.2648
 6153W        W23000   0.238   0.174  14.462 -0.2631 -0.0622  0.0445
 6154W        W23001  12.500   5.279   3.862 -0.1037 -0.0662 -0.0327
 6155W        W23002  12.999   9.689   2.860  0.5380 -0.4685 -0.2696
 6156W        W23003   3.043  16.784  14.630 -0.1682 -0.1694 -0.1945
 6157W        W23004   9.147  18.725   0.981 -0.3395 -0.2302 -0.2660
 6158W        W23005  13.323  18.984   5.006  0.0452  0.1362 -0.1033
 6159W        W23006  17.233   0.264   2.542 -0.1821  0.2001 -0.1981
 6160W        W23007   0.674   3.148   2.394 -0.0893  0.2942  0.0410
 6161W        W23008  17.367  12.390  12.755 -0.3370  0.0854 -0.1984
 6162W        W23009   9.973  15.096   1.801  0.0662  0.2701 -0.2158
 6163W        W23010  15.187  13.226   4.531  0.2498  0.0256 -0.0971
 6164W        W23011   0.781   3.079   3.437  0.1681 -0.1287 -0.1770
 6165W        W23012   1.084   6.580   5.196 -0.0023 -0.1362  0.0119
 6166W        W23013   3.733  10.964   2.376 -0.3199  0.1058 -0.0292
 6167W        W23014  11.824  12.294   2.648  0.1929 -0.1776  0.0151
 6168W        W23015  14.299  14.801   2.377  0.0691  0.0814  0.2806
 6169W        W23016  17.420   6.670  11.052 -0.1141  0.1543  0.3275
 6170W        W23017  15.936   8.687   0.673  0.0628 -0.2756  0.1851
 6171W        W23018   8.968  13.812  12.031 -0.3215 -0.2413 -0.0333
 6172W        W23019  10.643   9.361   3.173  0.1406 -0.2826  0.2366
 6173W        W23020  10.227   4.690   4.760  0.1318 -0.3320  0.3502
 6174W        W23021   0.454  12.021  14.396  0.2312  0.1626 -0.1499
 6175W        W23022   7.609  18.816   0.657  0.2513 -0.0686  0.0692
 6176W        W23023  16.198  14.987   0.728 -0.3011 -0.1121  0.2540
 6177W        W23024  11.421   9.821   4.985  0.5279  0.1414 -0.0955
 6178W        W23025   8.547  10.836  14.406  0.0843  0.2737 -0.4922
 6179W        W23026   1.794   8.780  14.016  0.2179 -0.3370  0.2483
 6180W        W23027   3.669  16.642   0.230  0.1197 -0.1449  0.2705
 6181W        W23028  13.095  13.842  13.992  0.1057  0.0953 -0.0037
 6182W        W23029   7.653   2.636   1.090  0.0633  0.0120 -0.2193
 6183W        W23030  15.016  16.934   2.430 -0.0051 -0.0498 -0.0042
 6184W        W23031  17.010   1.109  10.846 -0.0511  0.1059 -0.1178
 6185W        W23032   8.315  10.778  10.245  0.1912 -0.0413 -0.0330
 6186W        W23033   8.644   2.306   2.084  0.0111 -0.1437  0.0227
 6187W        W23034  15.457  18.476   4.979 -0.0088  0.1361 -0.1052
 6188W        W23035  15.918   4.471   2.156  0.1384  0.3223  0.0780
 6189W        W23036  13.724  12.545   5.749 -0.0583 -0.0032 -0.1443
 6190W        W23037  12.490   4.521   0.513  0.1208 -0.3547  0.0536
 6191W        W23038  14.623   2.654  14.657  0.1884  0.1733 -0.0586
 6192W        W23039   4.519   2.314  13.851 -0.0613  0.0493 -0.2139
 6193W        W23040   4.125   9.398  14.812 -0.1663 -0.3160  0.1355
 6194W        W23041  16.313  14.666   4.441  0.0035 -0.1246  0.2815
 6195W        W23042  15.538   1.387   5.164 -0.0957 -0.1932  0.3384
 6196W        W23043   6.542   2.724   3.897 -0.1077  0.1817 -0.0662
 6197W        W23044   1.360   2.431  11.243  0.2861  0.1662  0.2121
 6198W        W23045  18.010  16.092   1.806 -0.0516 -0.1206  0.2987
 6199W        W23046   9.492  13.738   1.420 -0.4804  0.1591  0.2018
 6200W        W23047   8.559  18.566  11.609 -0.3285 -0.1254  0.2344
 6201W        W23048  18.793  12.875   4.671  0.2247  0.3959  0.1955
 6202W        W23049   5.990   8.329   1.032 -0.0589 -0.1518  0.2725
 6203W        W23050  16.690   4.259   1.076 -0.0286 -0.1247 -0.0386
 6204W        W23051  14.999  14.522   2.820 -0.2912 -0.3267 -0.0741
 6205W        W23052  17.428  13.085  13.836 -0.3588  0.2671  0.1644
 6206W        W23053   7.250  16.101   4.239  0.2528  0.2323 -0.3849
 6207W        W23054  14.589   1.162  12.931 -0.1464  0.1002  0.3184
 6208W        W23055   2.155  10.328  12.488  0.2440  0.1177 -0.3590
 6209W        W23056  11.875   8.626   3.830 -0.1796 -0.1894 -0.1226
 6210W        W23057   8.020   1.626  11.361  0.1538  0.4657 -0.0523
 6211W        W23058   1.360  19.093  11.709 -0.1899  0.1502 -0.0142
 6212W        W23059   5.052   6.630  13.641 -0.0114 -0.2242 -0.1435
 6213W        W23060   6.672   3.428  12.939  0.0075  0.1063 -0.0074
 6214W        W23061  12.737  19.208   5.636  0.2406  0.2352 -0.0809
 6215W        W23062   9.809  15.266   1.378 -0.4039 -0.0718  0.0671
 6216W        W23063   0.036   5.123  10.625 -0.2817 -0.0426 -0.1979
 6217W        W23064  10.349  12.104   4.305 -0.1362  0.2355 -0.2559
 6218W        W23065  10.724  16.970  11.628  0.1450 -0.0252  0.2707
 6219W        W23066  13.406   2.703  11.528 -0.1423  0.0950  0.2976
 6220W        W23067  14.179  10.304   2.323 -0.0029 -0.1473  0.0013
 6221W        W23068   3.432   8.703   3.858  0.1731 -0.0595 -0.1789
 6222W        W23069   4.106   6.190  12.643  0.1118  0.1508 -0.2404
 6223W        W23070  11.670   1.052   5.028 -0.0567 -0.0130  0.0583
 6224W        W23071   4.970  14.853  11.309  0.0926 -0.0509 -0.0143
 6225W        W23072   5.366  13.396  11.787  0.2193 -0.0151 -0.3579
 6226W        W23073  15.519  13.235   0.574 -0.1457  0.2040  0.2306
 6227W        W23074  18.836  16.317   4.669 -0.0500  0.2247  0.2128
 6228W        W23075   6.017  14.707  14.834  0.0192 -0.1176  0.1223
 6229W        W23076   2.998   9.961   3.479 -0.1482  0.0160  0.0121
 6230W        W23077   4.030   9.486   0.997 -0.4565  0.2387  0.0588
 6231W        W23078   6.897   3.590   1.045 -0.4127 -0.0094 -0.1018
 6232W        W23079  13.093  16.599  12.816 -0.0717 -0.0245  0.1664
 6233W        W23080   1.094  12.243   0.898  0.0184 -0.1443  0.0635
 6234W        W23081  12.101  15.595   2.451 -0.2040 -0.0711 -0.0109
 6235W        W23082   2.429   2.349   1.685 -0.0532 -0.0503 -0.1352
 6236W        W23083  16.304  16.496   0.013  0.0029 -0.1976 -0.3091
 6237W        W23084   6.453  12.465   3.670 -0.3073 -0.0988  0.1241
 6238W        W23085   2.607   0.563   3.075  0.1052  0.1986  0.1020
 6239W        W23086   5.321   1.254  11.431 -0.0834  0.3816  0.2954
 6240W        W23087   6.410   2.031  11.601 -0.0864 -0.0010 -0.0974
 6241W        W23088   0.181  10.261   0.006 -0.1008 -0.1925 -0.1783
 6242W        W23089   3.668  13.668   3.578  0.1822  0.1947  0.2105
 6243W        W23090  17.539   4.164  10.473  0.1737  0.0793  0.1214
 6244W        W23091   9.048   2.931   4.897 -0.0040 -0.1048  0.0259
 6245W        W23092  15.969  10.700  13.507 -0.2634 -0.0402  0.0753
 6246W        W23093  14.478   8.673   2.506 -0.0387 -0.2324 -0.1760
 6247W        W23094   8.946  18.354   0.491  0.0378  0.0909 -0.0682
 6248W        W23095   4.450  11.025   4.574 -0.2830  0.0941  0.2096
 6249W        W23096   5.920   2.312   1.702 -0.0797  0.0325 -0.0581
 6250W        W23097  16.997   4.488  14.508 -0.2500  0.1249  0.1395
 6251W        W23098   1.697  12.855   3.245  0.2731  0.0360 -0.1182
 6252W        W23099   2.207  15.198   3.826 -0.0975 -0.0074  0.0427
 6253W        W23100  11.814  14.109  12.170  0.4639  0.0214 -0.1773
 6254W        W23101  18.297  10.905  13.831  0.0001  0.1357 -0.1893
 6255W        W23102  14.704  18.417   3.660  0.1594 -0.0040 -0.2623
 6256W        W23103  18.833  16.347  12.721 -0.4871 -0.0251 -0.1173
 6257W        W23104  13.115  13.174   1.756  0.0037  0.1714  0.1557
 6258W        W23105   3.521   4.128   4.878 -0.0189  0.2172  0.0773
 6259W        W23106  14.877  15.114   0.019  0.1458  0.0768  0.1152
 6260W        W23107   6.582  10.913   4.447 -0.1815 -0.0603 -0.0731
 6261W        W23108   8.277   1.316  14.362  0.3196 -0.3081 -0.0935
 6262W        W23109  17.783   3.647   0.989  0.1739 -0.0752 -0.1292
 6263W        W23110  13.800  11.474   4.330  0.3234 -0.1267  0.1960
 6264W        W23111   3.555  14.776   3.657  0.3299 -0.2881 -0.1709
 6265W        W23112  13.282  10.582   0.489  0.0094  0.1658 -0.3549
 6266W        W23113   2.102  16.847   3.673  0.1927  0.0276  0.1016
 6267W        W23114  18.833   3.090   1.909  0.0951  0.1007 -0.2431
 6268W        W23115  10.470  15.597  14.250 -0.0593  0.3275 -0.1769
 6269W        W23116   0.969  13.975   3.949  0.1170 -0.0668 -0.1031
 6270W        W23117  15.845  16.237   2.620 -0.1605 -0.0103 -0.0707
 6271W        W23118  15.965  13.691   1.410  0.1215  0.0549  0.0044
 6272W        W23119   3.831   7.317  11.103 -0.0336 -0.1695  0.0132
 6273W        W23120   5.390   2.214  12.295  0.3281 -0.1106 -0.4214
 6274W        W23121   2.447   8.854  14.392 -0.0301  0.1589  0.0881
 6275W        W23122   1.841   3.184   1.617 -0.0105 -0.4844  0.0659
 6276W        W23123   0.497   4.748  13.648 -0.2807  0.0283  0.2313
 6277W        W23124  14.201   8.782  14.973  0.0742 -0.1582  0.2581
 6278W        W23125  18.261  10.027   4.884 -0.1582 -0.2292 -0.1038
 6279W        W23126  10.027  18.418   4.703 -0.1165 -0.0405  0.2108
 6280W        W23127  12.340   1.492   1.333  0.0893  0.1063 -0.0852
 6281W        W23128   6.988   3.734  10.297  0.1238  0.0980 -0.0345
 6282W        W23129  12.282  17.081  10.515 -0.0765  0.1818 -0.2684
 6283W        W23130  11.343   5.628   1.273  0.0947 -0.0344 -0.0035
 6284W        W23131  16.942   8.812  10.688  0.1137  0.0980  0.0318
 6285W        W23132   9.713  11.992   2.941 -0.1409  0.0781  0.2032
 6286W        W23133  17.875   7.325  14.316 -0.0071 -0.2231 -0.2850
 6287W        W23134  15.951  14.266   0.357  0.0878 -0.0337  0.1746
 6288W        W23135   3.184  14.601   1.614 -0.0804 -0.1848  0.1255
 6289W        W23136  17.809   0.050   0.556  0.0043  0.0602  0.0125
 6290W        W23137   1.282  18.392  12.378  0.2523 -0.0767 -0.0394
 6291W        W23138  16.191   2.746  13.425  0.1269  0.0144  0.1659
 6292W        W23139   8.160   8.405  10.944  0.2560  0.1421 -0.1973
 6293W        W23140   3.936  15.156  12.224  0.4356  0.0339 -0.0696
 6294W        W23141  11.269   2.320  11.989 -0.0248 -0.0224  0.1418
 6295W        W23142  15.132   9.609   2.483  0.0503 -0.2355 -0.0440
 6296W        W23143   2.532  13.312  13.920 -0.1745 -0.0267  0.0025
 6297W        W23144  18.818   0.401  11.905 -0.1147  0.0063  0.0906
 6298W        W23145  17.209  11.220  13.451 -0.1163  0.1612  0.1675
 6299W        W23146  15.274  14.326   3.660  0.0655 -0.0662 -0.0656
 6300W        W23147   6.454   7.043  11.315  0.1298  0.1009  0.3570
 6301W        W23148   3.973  17.700   0.356 -0.0116 -0.0986 -0.1284
 6302W        W23149   5.995   6.366  12.392  0.1934  0.2724 -0.3247
 6303W        W23150  19.098  19.225  14.921 -0.3074 -0.1835 -0.0070
 6304W        W23151  17.308  16.323   1.117 -0.1099  0.2111 -0.1192
 6305W        W23152  11.723   6.783   3.826 -0.0250 -0.0125  0.3153
 6306W        W23153   7.708  10.126   5.137  0.1741  0.1314  0.2156
 6307W        W23154  14.467  14.715   0.357 -0.1278  0.2132  0.1591
 6308W        W23155   3.027  11.198   1.627  0.2243 -0.2636  0.0440
 6309W        W23156   6.521  14.335  12.876  0.1677 -0.1290 -0.0467
 6310W        W23157  11.459  13.124  11.274 -0.0589  0.0621 -0.0408
 6311W        W23158  12.781   0.248  13.227 -0.1289 -0.2590  0.3198
 6312W        W23159  11.017   8.347  12.477 -0.0927  0.1041 -0.2746
 6313W        W23160  16.877  14.560  13.624  0.1776 -0.0896  0.2063
 6314W        W23161   6.311   2.536  13.350 -0.1180 -0.1312 -0.0093
 6315W        W23162  16.186   2.399  12.387  0.0047  0.1139 -0.2240
 6316W        W23163   0.291   3.083  12.249 -0.0398  0.4038 -0.0343
 6317W        W23164  15.856  13.594   9.576  0.0715 -0.1470 -0.4512
 6318W        W23165  15.459  12.814  12.647  0.2180  0.1698 -0.0682
 6319W        W23166   0.368   3.726   1.843  0.2592  0.3648  0.2827
 6320W        W23167   5.522   4.530  10.332  0.2335  0.2939  0.0651
 6321W        W23168  19.217   7.889  14.425  0.2961  0.2595 -0.0570
 6322W        W23169   4.491   5.131   0.108 -0.2281 -0.2754 -0.0533
 6323W        W23170   7.282   6.043  12.905 -0.0031  0.2559 -0.1243
 6324W        W23171  16.230   9.774   3.404 -0.1377 -0.0516  0.4604
 6325W        W23172   6.101  13.660  14.190  0.4299 -0.2348 -0.2110
 6326W        W23173  16.636  15.569  12.045  0.1196 -0.1162 -0.0444
 6327W        W23174   0.834   9.925   3.953 -0.1508  0.5174 -0.2167
 6328W        W23175   3.113   0.457   1.143 -0.1035  0.1066 -0.3593
 6329W        W23176  16.644   5.921   4.910  0.2180  0.2728  0.1036
 6330W        W23177   3.333  17.729   3.182  0.2084 -0.1057  0.2789
 6331W        W23178  19.121  11.125   9.594 -0.2252 -0.1470  0.0226
 6332W        W23179  18.179   1.570   3.277  0.0891 -0.2021 -0.1386
 6333W        W23180  16.274  18.178  11.868 -0.0619 -0.1601  0.2083
 6334W        W23181  15.941   7.258  13.073 -0.0287  0.0471 -0.1113
 6335W        W23182  14.274  11.165  11.646  0.1796 -0.1393  0.0514
 6336W        W23183  11.162  17.364   1.391  0.1436 -0.2016  0.0165
 6337W        W23184  17.937   5.110   3.488 -0.1850 -0.0220  0.2129
 6338W        W23185   1.554   8.084   3.361 -0.1127  0.0360 -0.0284
 6339W        W23186   4.130  15.835   4.376  0.0160 -0.2071  0.0074
 6340W        W23187   5.614  10.545  13.229 -0.0297 -0.0196  0.0094
 6341W        W23188  10.027  13.967   5.283 -0.0718  0.1928  0.1364
 6342W        W23189  15.307   0.082   2.892  0.2753  0.0706  0.1563
 6343W        W23190  19.108  10.655   0.840  0.0280 -0.2785 -0.0594
 6344W        W23191  14.351  18.161  12.759 -0.1688 -0.0213  0.2599
 6345W        W23192   2.342  18.075  14.766 -0.1548  0.2276  0.2332
 6346W        W23193  17.781  13.025  12.687 -0.1615 -0.0076  0.0538
 6347W        W23194   5.981   7.966   3.366 -0.2991  0.0166 -0.0855
 6348W        W23195  17.532  17.559  10.283 -0.0599  0.0497 -0.0380
 6349W        W23196   4.405   2.905  14.751  0.2317  0.1912  0.0753
 6350W        W23197   5.638   1.355  14.890  0.2232 -0.0183  0.0204
 6351W        W23198  10.729   3.817  10.652 -0.1371 -0.1890 -0.0235
 6352W        W23199   1.137   4.971  14.829  0.2618  0.1251 -0.0836
 6353W        W23200   9.384   6.950  14.380  0.2183  0.2551  0.5787
 6354W        W23201   1.273   6.404  13.432 -0.1968  0.2727 -0.2748
 6355W        W23202  18.991  19.129  13.062  0.0618 -0.0739 -0.0858
 6356W        W23203   3.179   9.873   4.509 -0.0660 -0.2390  0.0063
 6357W        W23204   5.720  17.649   3.656  0.1644 -0.1650 -0.1748
 6358W        W23205  14.176   7.730   3.645  0.0413 -0.2246 -0.4798
 6359W        W23206   9.372  12.623   3.376  0.2271  0.0464 -0.1264
 6360W        W23207   7.951   1.301   4.325 -0.0156 -0.0831 -0.0403
 6361W        W23208   4.178   3.490  11.294 -0.2186 -0.4588 -0.1178
 6362W        W23209  16.665   7.602   2.224  0.0868 -0.1213 -0.1944
 6363W        W23210   9.192  15.177  12.776 -0.2934 -0.5791 -0.2662
 6364W        W23211   3.858   5.340   1.804 -0.1601 -0.2331 -0.0010
 6365W        W23212  13.839  13.088   1.084 -0.1623 -0.1495  0.2099
 6366W        W23213  16.453  11.379   5.326  0.1652 -0.1973 -0.2243
 6367W        W23214  14.390   1.112  13.845  0.0653 -0.0836 -0.1052
 6368W        W23215   9.099   3.456   0.092 -0.3086  0.0663 -0.0713
 6369W        W23216  12.885   6.436  10.564 -0.2547 -0.3716 -0.1756
 6370W        W23217  18.778   3.276  12.952 -0.0884 -0.3198  0.1012
 6371W        W23218   1.218  12.016  14.653 -0.0377 -0.1494 -0.0370
 6372W        W23219  16.405   3.516  14.712  0.2209 -0.3690  0.0189
 6373W        W23220  13.958   1.458  11.539  0.3770  0.0225 -0.2954
 6374W        W23221  17.755   1.597   5.200  0.0491 -0.0309 -0.0899
 6375W        W23222  12.803  14.935   4.474  0.0587 -0.1743 -0.0741
 6376W        W23223   8.374  16.053  11.301  0.1283 -0.0945 -0.0279
 6377W        W23224  17.967   6.005   4.114 -0.3727 -0.1371  0.1407
 6378W        W23225   9.963   5.639   2.762 -0.0397  0.0600 -0.1914
 6379W        W23226   8.006   5.194  11.511 -0.0953  0.1265 -0.3248
 6380W        W23227   8.911   7.665   0.462 -0.1301  0.0366 -0.0023
 6381W        W23228  13.748   9.428  14.668  0.0354 -0.2300 -0.1148
 6382W        W23229   2.183   3.366  14.888  0.0980 -0.1457  0.0326
 6383W        W23230  11.168  18.193  14.199 -0.3129  0.2639  0.1187
 6384W        W23231  15.331  13.280  12.510  0.2039  0.1827  0.1656
 6385W        W23232   4.987   2.074  12.125 -0.0268  0.1827  0.2126
 6386W        W23233  14.506  10.093  10.658  0.1768  0.0349 -0.0506
 6387W        W23234  19.104  16.019   2.236 -0.1582 -0.5872 -0.1074
 6388W        W23235   1.240   5.610   0.613  0.1192 -0.0766 -0.2043
 6389W        W23236   8.360   0.581  12.753 -0.0130  0.0213 -0.2535
 6390W        W23237  10.933   1.829   9.826  0.0739  0.0663 -0.0731
 6391W        W23238  11.333   9.726  13.263  0.1385 -0.1565 -0.1008
 6392W        W23239   5.790  16.000  12.398 -0.1231 -0.1898  0.0909
 6393W        W23240   0.481   4.084   2.326  0.0142  0.0508 -0.6660
 6394W        W23241  17.958  11.644   2.623  0.0141 -0.1874  0.1273
 6395W        W23242  13.052  14.769   3.524  0.0058 -0.1225 -0.1842
 6396W        W23243   5.479  14.878   0.689  0.1294  0.0510 -0.2900
 6397W        W23244   8.335   8.127   3.552 -0.3592 -0.2305 -0.1376
 6398W        W23245  10.076  11.489  13.174  0.0051  0.2596 -0.0276
 6399W        W23246   9.542   3.164   3.801 -0.0062  0.1080 -0.0591
 6400W        W23247   3.220  13.975  12.155  0.2782  0.3869  0.0850
 6401W        W23248   6.108   8.134   0.520 -0.1439 -0.0486  0.2574
 6402W        W23249   4.784  19.129  13.543 -0.0286  0.0911 -0.2410
 6403W        W23250   8.186  18.272   2.410 -0.0907 -0.1113  0.1453
 6404W        W23251  18.787   2.072   2.908  0.0532 -0.1823  0.0405
 6405W        W23252  12.420  12.567   3.066 -0.1120  0.0132  0.1730
 6406W        W23253  15.135   2.482   1.542  0.1068  0.1859  0.2517
 6407W        W23254  18.502  14.493   0.588  0.3096  0.2877 -0.2687
 6408W        W23255  18.482   7.564   2.776  0.3077  0.0839 -0.1133
 6409W        W23256  15.187  11.287   4.772  0.0632  0.1390  0.4091
 6410W        W23257   9.234  18.346   1.314  0.0661 -0.0713  0.0935
 6411W        W23258   8.904   4.240   4.402  0.1008  0.0501 -0.0076
 6412W        W23259   6.486   1.747  13.725  0.1044 -0.2249  0.0062
 6413W        W23260  16.260   4.802  14.776  0.3491  0.2732 -0.1868
 6414W        W23261   2.057   8.652   2.849 -0.0383 -0.1182 -0.0419
 6415W        W23262   4.804  13.297  14.658  0.0576  0.3233  0.0847
 6416W        W23263  12.742  14.562  11.930  0.1092 -0.2401 -0.1270
 6417W        W23264   7.671  11.163   3.459 -0.0851 -0.1324 -0.1163
 6418W        W23265  16.708  15.874  11.157 -0.1365 -0.0977  0.0729
 6419W        W23266  11.545  17.169   1.061  0.1590  0.1952 -0.1285
 6420W        W23267  11.593  15.403  11.883  0.2309 -0.1827  0.0829
 6421W        W23268  12.849   0.702   2.732 -0.0914 -0.0332  0.0806
 6422W        W23269   0.222  14.247   3.510 -0.0328 -0.0297 -0.2413
 6423W        W23270   3.695  17.429  11.046 -0.2568 -0.1310 -0.0950
 6424W        W23271  15.444   9.294   2.177  0.1181  0.1348  0.1317
 6425W        W23272   7.934   6.114  14.660  0.1349  0.0719 -0.0323
 6426W        W23273  11.735  18.818   1.649  0.0017 -0.2594  0.0405
 6427W        W23274   2.751   5.346  10.051 -0.0866 -0.3131  0.2627
 6428W        W23275  14.398  13.214   1.394  0.1294  0.2939 -0.3463
 6429W        W23276   4.848   1.708  12.677  0.1256  0.1044 -0.6254
 6430W        W23277   1.130  18.068   5.128  0.2154  0.0676 -0.0257
 6431W        W23278  17.918   4.021   9.873 -0.0080  0.1454 -0.3954
 6432W        W23279   9.020   8.245   0.172 -0.1183 -0.0388 -0.2204
 6433W        W23280  12.711   5.749  14.927  0.4822 -0.1493  0.0484
 6434W        W23281   6.703  18.709   2.006 -0.0579  0.3758  0.0519
 6435W        W23282   8.771   4.623   3.308  0.2640 -0.2803  0.1742
 6436W        W23283  17.024  12.059  14.729  0.2997 -0.1200 -0.0937
 6437W        W23284  18.484  16.384  10.732  0.0370 -0.0466 -0.1569
 6438W        W23285   1.424  18.135   2.776  0.0873  0.2168 -0.1444
 6439W        W23286   3.933  10.160  11.022 -0.1814  0.0028  0.1880
 6440W        W23287   5.237   2.930   4.557  0.0608  0.2495  0.0726
 6441W        W23288  13.315   0.110   2.100  0.1016 -0.2427  0.0722
 6442W        W23289   5.150  12.475   0.754 -0.0801 -0.2873 -0.0246
 6443W        W23290   3.316  16.583   3.734  0.0200  0.0921  0.0976
 6444W        W23291   5.310   7.768  12.940 -0.0652  0.4329  0.0438
 6445W        W23292   5.031   7.987  11.465  0.2595  0.1284 -0.0462
 6446W        W23293  13.241  11.819  11.128  0.0994 -0.0115 -0.1116
 6447W        W23294   6.994   0.446   3.925  0.0048  0.4326 -0.0186
 6448W        W23295   4.402   8.938  11.210 -0.1507 -0.1119  0.0606
 6449W        W23296   3.302   5.785   4.119  0.3327 -0.1996 -0.0216
 6450W        W23297  13.829   6.682   0.858  0.1017  0.2528 -0.2085
 6451W        W23298  14.199  12.646   0.238  0.2772 -0.3049  0.0428
 6452W        W23299  18.029  11.811   0.605  0.2772 -0.4231 -0.0615
 6453W        W23300   4.582   6.801   2.774  0.1315 -0.1363 -0.0374
 6454W        W23301   0.663   2.909   4.647 -0.1224  0.0852  0.1176
 6455W        W23302   7.652   5.375   3.793  0.1203  0.2598  0.2185
 6456W        W23303   3.841  12.013   4.941 -0.3545  0.1000  0.0433
 6457W        W23304   5.397   5.318  14.127 -0.1316  0.1609  0.1153
 6458W        W23305   9.311  10.683   0.466 -0.0061 -0.1331  0.0103
 6459W        W23306  15.107  16.160   1.932  0.2386 -0.3365 -0.0041
 6460W        W23307   0.548  15.660  14.185  0.0782 -0.2113 -0.0471
 6461W        W23308  12.343   9.219   3.416 -0.1756 -0.4004 -0.0775
 6462W        W23309   0.367  11.344  14.275 -0.0721  0.1800  0.3079
 6463W        W23310   4.337  15.933   2.154  0.0576 -0.0762  0.1576
 6464W        W23311   6.895  12.042   0.227 -0.1553 -0.1660  0.0382
 6465W        W23312   4.629   5.293  12.227  0.0291  0.0408  0.0521
 6466W        W23313   6.606   8.081  14.347 -0.1098  0.3573 -0.1498
 6467W        W23314   3.136   3.665   4.391  0.1327 -0.0536 -0.0641
 6468W        W23315   8.695  14.426   5.065  0.0553  0.2005  0.0390
 6469W        W23316   7.885   0.943   2.305  0.3047  0.1256 -0.1942
 6470W        W23317   2.908  14.673   3.316 -0.4899 -0.1600  0.4042
 6471W        W23318  10.531   7.892   1.215  0.1718 -0.1396  0.0384
 6472W        W23319  10.845  10.292  14.274 -0.2850 -0.1075  0.1232
 6473W        W23320   6.112   9.416   1.792  0.1813  0.3206  0.1815
 6474W        W23321  17.884   1.868  10.992 -0.0753  0.3421  0.3518
 6475W        W23322   0.717   6.263   3.531  0.1176  0.0132 -0.0438
 6476W        W23323   2.765   3.877  12.892  0.1289  0.1620  0.4182
 6477W        W23324   9.470   8.506   4.456  0.0856  0.0324  0.2984
 6478W        W23325   4.085  14.846  13.836  0.1331  0.0282  0.1064
 6479W        W23326  17.309  12.853  11.384  0.2710  0.2508 -0.3677
 6480W        W23327  15.174  16.530   3.277  0.2754  0.1607 -0.2324
 6481W        W23328  12.438   0.786   4.560 -0.0579  0.1525  0.2271
 6482W        W23329   7.260   9.376  12.820 -0.4159 -0.1005 -0.1710
 6483W        W23330  13.585   0.727  13.272 -0.1568  0.0705  0.1716
 6484W        W23331   9.299  12.067  12.498 -0.0236 -0.2192 -0.3389
 6485W        W23332   5.960  17.464   1.643 -0.0682 -0.0533  0.0827
 6486W        W23333   1.195   6.598   1.603 -0.1582  0.2056  0.1285
 6487W        W23334  16.892  10.480  14.502 -0.2198 -0.0085  0.0414
 6488W        W23335   9.276  18.992  10.664  0.2294  0.3716 -0.1903
 6489W        W23336  10.533   4.600   2.346 -0.1835  0.0582  0.3293
 6490W        W23337  12.571   5.259   4.391  0.2254 -0.2722  0.3390
 6491W        W23338  16.859  12.663   1.575 -0.1651 -0.1013  0.0898
 6492W        W23339   1.445   8.776   1.108 -0.0865  0.3247 -0.1031
 6493W        W23340  13.969  16.744   1.912  0.2480 -0.0564  0.2201
 6494W        W23341  17.553  13.448  14.712 -0.0593 -0.1459  0.2577
 6495W        W23342   3.257  12.180   2.135 -0.0719  0.2496  0.0095
 6496W        W23343   6.233  10.739  10.532 -0.1418 -0.1442 -0.1077
 6497W        W23344  19.087   8.849   2.219  0.1693  0.0847 -0.2543
 6498W        W23345  13.587   6.153   3.450  0.1570  0.2003 -0.1819
 6499W        W23346  11.354   1.471   3.436 -0.0828  0.1201 -0.1616
 6500W        W23347   1.356  10.451  11.297 -0.1676 -0.3065  0.1201
 6501W        W23348   6.386   2.123  14.258 -0.0428  0.0454 -0.2050
 6502W        W23349   4.297  13.171  11.902  0.1507  0.2750 -0.0140
 6503W        W23350   6.812   5.057  10.845  0.1884  0.1409  0.1714
 6504W        W23351  13.925   7.877   4.763  0.1953  0.0266  0.0459
 6505W        W23352   4.733  10.730  13.370 -0.0489 -0.1228  0.0832
 6506W        W23353  10.222  17.513  14.036 -0.1909  0.2169 -0.1008
 6507W        W23354   3.853  12.695   4.303  0.2027  0.2386 -0.1253
 6508W        W23355   0.467  11.767   3.749 -0.1875 -0.0486  0.2450
 6509W        W23356   7.405  14.094   2.958 -0.1828 -0.1801 -0.0888
 6510W        W23357   2.956   6.881  14.392  0.0186  0.0809  0.0412
 6511W        W23358   8.665  17.186  13.864 -0.0465 -0.1011 -0.0543
 6512W        W23359  15.858   3.403   4.012  0.1373 -0.1620 -0.1785
 6513W        W23360  15.395   5.351   2.873 -0.1543  0.1652  0.0542
 6514W        W23361  13.761  11.021  14.935 -0.1533  0.2259 -0.4951
 6515W        W23362   5.934   0.477  11.881 -0.2026  0.0800 -0.2103
 6516W        W23363   9.792  11.155  14.188 -0.2037 -0.0219  0.0176
 6517W        W23364  13.317   4.390  14.413 -0.3245  0.2168  0.0051
 6518W        W23365   2.861  14.274   3.036 -0.1052 -0.3902 -0.0359
 6519W        W23366   0.112  15.022  13.623  0.0560  0.0976  0.0780
 6520W        W23367   6.417   6.292   9.413 -0.1304  0.0629  0.2041
 6521W        W23368  16.353  18.443   1.368 -0.1228 -0.0424  0.2118
 6522W        W23369  14.642   9.494  13.380 -0.0752  0.1338  0.1163
 6523W        W23370  19.077   8.447   1.912  0.0219 -0.0925 -0.3198
 6524W        W23371  18.623   9.486   3.682  0.0398  0.2433  0.4936
 6525W        W23372   8.892  14.833   1.869 -0.0048 -0.3127  0.2307
 6526W        W23373   0.518   5.243  12.902 -0.1444 -0.0293 -0.0739
 6527W        W23374   7.902   9.902   3.751  0.2350 -0.1780  0.1417
 6528W        W23375  16.463  16.377   0.914 -0.4387  0.1587  0.0872
 6529W        W23376  15.212   9.817   3.891 -0.0226 -0.0119  0.2818
 6530W        W23377   5.321  11.030   3.886 -0.1055 -0.0058  0.1808
 6531W        W23378   6.972   0.047   1.754 -0.2845 -0.0845  0.0525
 6532W        W23379  10.369   8.899   1.855  0.3830  0.2580  0.0417
 6533W        W23380   7.018  14.237  11.924  0.1592  0.4518  0.3232
 6534W        W23381   0.232   2.963   1.171 -0.1552  0.1102 -0.2007
 6535W        W23382   9.468   8.225   0.929  0.0261 -0.1420  0.0950
 6536W        W23383   3.125  17.228   3.000 -0.0115 -0.1240 -0.1159
 6537W        W23384  12.898   7.817  12.755  0.2005  0.0871  0.0978
 6538W        W23385  14.803   0.474  12.266 -0.2890  0.0430  0.0072
 6539W        W23386  12.841  19.089  12.945 -0.0410  0.0908  0.0657
 6540W        W23387  10.408   6.558   1.837  0.0041 -0.1494  0.0086
 6541W        W23388   5.457  12.431   3.530 -0.0927 -0.2501  0.0865
 6542W        W23389   8.496   5.317   4.343 -0.0504 -0.0199 -0.0893
 6543W        W23390   3.718  10.022   4.483 -0.0801  0.0614  0.0355
 6544W        W23391   1.846  16.096  14.613  0.1580 -0.1000 -0.1537
 6545W        W23392   9.049   2.880  13.547 -0.3499  0.0169  0.1241
 6546W        W23393  15.427  13.894  14.082  0.1597 -0.3622 -0.0823
 6547W        W23394  17.709   7.642   4.130  0.1579 -0.1917  0.0093
 6548W        W23395   6.973   2.124  11.337 -0.2090 -0.1336 -0.2634
 6549W        W23396   2.029   5.480   0.202  0.3789  0.1245 -0.1031
 6550W        W23397   1.974  10.806  12.776  0.0731 -0.0609 -0.3823
 6551W        W23398   3.976   6.422   5.014  0.1719  0.0994  0.1641
 6552W        W23399   7.680  17.960   0.045 -0.1417  0.1737  0.3294
 6553W        W23400   0.495   1.405  12.533 -0.0398 -0.0352  0.0670
 6554W        W23401  16.094   0.362   3.304 -0.0550  0.0949 -0.0509
 6555W        W23402  16.792   1.663   0.531 -0.3203 -0.0404  0.0951
 6556W        W23403  11.784   9.853   5.370 -0.0748  0.0355 -0.2035
 6557W        W23404  15.253  18.922  12.195 -0.3404  0.0461  0.1856
 6558W        W23405   9.651   4.026  11.491 -0.1217 -0.0832  0.5912
 6559W        W23406  10.391  16.952   3.029 -0.0038  0.3091  0.1502
 6560W        W23407   0.007   2.908  14.273  0.4514  0.2792  0.2656
 6561W        W23408   4.567  13.474   3.001 -0.1652  0.0230  0.2448
 6562W        W23409   2.593  16.213  13.438 -0.2908 -0.1403 -0.1504
 6563W        W23410  15.970   5.300   0.604 -0.4479 -0.0902 -0.0743
 6564W        W23411   6.956   6.357  12.028  0.2267  0.1378 -0.2906
 6565W        W23412   3.377  12.937   5.038 -0.1450  0.0027  0.2021
 6566W        W23413   0.331  18.215  14.348  0.0302 -0.2236 -0.0689
 6567W        W23414  18.942   1.358   4.355  0.1486 -0.1014 -0.1498
 6568W        W23415  14.484   2.413  12.970  0.0141 -0.1656  0.3936
 6569W        W23416  19.117   2.147  11.908  0.1420 -0.1123  0.0058
 6570W        W23417  17.087  10.386  11.136 -0.2291  0.1525  0.2344
 6571W        W23418   0.006   9.295   1.031  0.1815  0.1155  0.0082
 6572W        W23419  19.074   2.918   4.484  0.1445 -0.2176  0.0067
 6573W        W23420  10.388   2.468   4.761 -0.0056 -0.0757 -0.1177
 6574W        W23421  14.067  16.762  11.771 -0.2629  0.2162  0.1923
 6575W        W23422   4.848  17.005   4.589  0.1085 -0.1727  0.0385
 6576W        W23423  12.928   4.612   4.959 -0.0428 -0.1378 -0.0803
 6577W        W23424  12.468   6.340  11.724  0.1919  0.2205 -0.3825
 6578W        W23425   5.605   6.006   4.558 -0.0753 -0.2143 -0.3465
 6579W        W23426   9.218  17.062   3.238  0.1269  0.0121 -0.2635
 6580W        W23427  17.702  14.268   2.037  0.1512 -0.1947 -0.1504
 6581W        W23428  18.998  16.529  10.843 -0.2155  0.2114  0.1029
 6582W        W23429   2.688   9.747  14.235 -0.2759 -0.2829  0.0367
 6583W        W23430   1.288  10.893  13.960  0.0806 -0.1137 -0.0225
 6584W        W23431   4.747  11.092   2.697 -0.1275  0.0562 -0.0716
 6585W        W23432   5.529   7.799   5.185  0.0665 -0.0221  0.2519
 6586W        W23433   7.349  14.863  14.784  0.1032  0.2227 -0.0674
 6587W        W23434   3.474  17.917   0.263 -0.0040 -0.0698 -0.1003
 6588W        W23435   1.696  14.805  13.228  0.1966  0.0273 -0.1446
 6589W        W23436   6.945   0.861   1.899 -0.1422  0.2606  0.2445
 6590W        W23437   9.358  19.234   3.157  0.1603 -0.0358 -0.2498
 6591W        W23438  10.220  16.398   3.956 -0.1921 -0.1939 -0.2516
 6592W        W23439   7.405   3.811  11.212  0.6123 -0.0977 -0.1694
 6593W        W23440   8.823  14.652  13.747 -0.0999  0.0561  0.1136
 6594W        W23441  16.298  17.228   1.718 -0.3775  0.2468 -0.0705
 6595W        W23442   4.529  12.643  12.082  0.3959 -0.2952  0.1092
 6596W        W23443  11.193  19.167   3.483 -0.0598 -0.1452  0.0373
 6597W        W23444  18.002  11.516  14.396  0.1244  0.2375  0.2988
 6598W        W23445   5.802   0.161  11.080  0.0958 -0.1933  0.1748
 6599W        W23446  17.423   0.493  13.868 -0.0109 -0.2369 -0.1441
 6600W        W23447   3.173  10.750   0.853  0.1514 -0.0146 -0.0424
 6601W        W23448   1.683   1.673   1.502  0.1284 -0.0411 -0.0206
 6602W        W23449   7.490   4.609   0.543 -0.1902 -0.1093 -0.0199
 6603W        W23450   8.298  10.413  10.614 -0.2106  0.0030 -0.0414
 6604W        W23451   7.068   6.239  11.019  0.0389 -0.0659  0.0468
 6605W        W23452   4.837   6.533   1.159  0.1721  0.1511  0.1098
 6606W        W23453   9.809   8.122  11.014  0.0878 -0.0436 -0.1395
 6607W        W23454  17.834  18.574   1.306  0.0592  0.1152 -0.0416
 6608W        W23455  12.617  18.585  10.915  0.1454  0.3464  0.1443
 6609W        W23456   7.686  14.070  12.279 -0.1155 -0.2231 -0.0259
 6610W        W23457   1.671   3.573   0.003 -0.0497 -0.2364 -0.0338
 6611W        W23458  13.316   6.461   1.178 -0.2209  0.1957 -0.3367
 6612W        W23459   8.934   5.942   2.497 -0.0285 -0.0427  0.0526
 6613W        W23460   2.221   9.750  13.143 -0.0008  0.0608  0.2128
 6614W        W23461   4.266   0.181  10.993 -0.0566 -0.0107  0.0349
 6615W        W23462  16.923  12.373   3.030  0.1487  0.1771  0.0719
 6616W        W23463   3.266  16.224  11.818 -0.0193 -0.0269  0.0283
 6617W        W23464   8.129  11.105  11.421 -0.0313 -0.1241  0.1117
 6618W        W23465   3.521  13.326   0.032 -0.0861 -0.0627 -0.0563
 6619W        W23466   1.883   2.788   2.060  0.3026  0.0169  0.2995
 6620W        W23467  19.236   6.651  14.267  0.0330 -0.1749  0.0012
 6621W        W23468  14.115   4.129  13.846 -0.5030 -0.1719 -0.2577
 6622W        W23469  16.829   1.133   0.916 -0.2981 -0.1005 -0.2120
 6623W        W23470  18.551   4.450  13.440  0.3538  0.1061  0.0004
 6624W        W23471  12.833   4.612  13.612  0.0323  0.1751  0.2180
 6625W        W23472  15.806   3.726   5.581 -0.1777 -0.1866 -0.0733
 6626W        W23473   4.857  14.173  11.185 -0.1111 -0.2577  0.0111
 6627W        W23474   8.612  10.185  11.644 -0.1150  0.1985 -0.1076
 6628W        W23475  15.467  18.353   0.542  0.1071 -0.1819 -0.4895
 6629W        W23476   8.752  14.166  13.252 -0.0116  0.0435  0.2157
 6630W        W23477   7.645  14.862  10.604 -0.1307  0.1948  0.1200
 6631W        W23478  15.113  18.980  11.397 -0.3289  0.4857  0.1865
 6632W        W23479   4.088   8.634  12.232 -0.0933 -0.0090 -0.3430
 6633W        W23480  12.887   1.506  12.001 -0.1355  0.0807  0.0367
 6634W        W23481   3.349   5.369  11.859 -0.3154 -0.0032  0.0319
 6635W        W23482   8.574   6.871   1.911 -0.0293 -0.1002 -0.2016
 6636W        W23483   8.479   1.050  12.610 -0.0573 -0.0212 -0.0047
 6637W        W23484   3.217   2.278   4.699 -0.2165 -0.1060  0.0853
 6638W        W23485   8.015  11.580  14.544 -0.2118 -0.0461 -0.0475
 6639W        W23486  18.042   2.946   4.471 -0.2779  0.2148  0.1773
 6640W        W23487  11.844   8.530   0.664 -0.1991  0.2298 -0.2796
 6641W        W23488   2.922  15.406   0.289 -0.1365  0.0058  0.3982
 6642W        W23489   9.609  17.753   2.781  0.1626  0.0002 -0.3647
 6643W        W23490  17.567   8.068   1.045  0.2505  0.1282 -0.2513
 6644W        W23491  10.603   8.781  11.852  0.2606 -0.1851  0.0468
 6645W        W23492   8.195   9.667   1.427 -0.1766 -0.0728 -0.0055
 6646W        W23493   0.093  17.994  12.071  0.0208 -0.0659 -0.1197
 6647W        W23494   4.919  13.931   1.817 -0.1569  0.2044 -0.1449
 6648W        W23495   2.849   1.857  10.399 -0.0915 -0.1265 -0.0957
 6649W        W23496   5.762  19.147   0.400  0.1618 -0.0834 -0.0025
 6650W        W23497  16.110   2.555  12.941 -0.0480  0.2136  0.1055
 6651W        W23498  17.468   5.010  10.793 -0.0343  0.3259  0.2726
 6652W        W23499   7.248  15.674   1.595  0.0221  0.1173  0.1362
 6653W        W23500  11.864  12.204  10.674 -0.1265  0.0694 -0.0900
 6654W        W23501   3.923  10.185   1.293  0.0178  0.1048  0.2008
 6655W        W23502  16.676  17.883   0.450 -0.1849  0.2165 -0.0207
 6656W        W23503   7.799   1.616  14.381  0.0541  0.2198 -0.1089
 6657W        W23504  14.471  14.414   2.032 -0.0943  0.2530  0.1421
 6658W        W23505   0.330   0.130  12.169 -0.1544  0.2419 -0.2135
 6659W        W23506   2.729   0.114   4.394 -0.1092  0.0541 -0.0666
 6660W        W23507  14.224  16.003  12.340 -0.1663  0.1817  0.2001
 6661W        W23508   1.827   1.058  14.546  0.4662 -0.3725 -0.3066
 6662W        W23509   9.332   1.609  13.484 -0.1102 -0.2662 -0.0537
 6663W        W23510   4.280  11.131   2.485  0.0697 -0.1624  0.2180
 6664W        W23511   6.287   1.845   0.902  0.3694 -0.2791  0.4264
 6665W        W23512   6.776  18.701  14.890  0.4367 -0.3363 -0.0414
 6666W        W23513   4.728  18.684   1.777  0.2025  0.3136 -0.2131
 6667W        W23514  11.973   8.340  11.475  0.0882  0.2340 -0.2401
 6668W        W23515   7.396  17.330  11.869 -0.4349  0.3422  0.1847
 6669W        W23516   1.978  11.597  13.856  0.2266  0.1349 -0.3588
 6670W        W23517   3.155  18.416  13.200  0.4250 -0.3092 -0.3271
 6671W        W23518   2.959   4.223  14.747  0.2524  0.0908 -0.0564
 6672W        W23519   4.901   4.919  13.869  0.1606 -0.2221 -0.6467
 6673W        W23520   4.929   7.525   4.671  0.1049  0.0321  0.0880
 6674W        W23521  11.661   8.714  11.532  0.0867 -0.1196 -0.0953
 6675W        W23522  14.088  14.487   0.899  0.2120 -0.1639  0.1732
 6676W        W23523  11.731  19.069   4.086  0.1850  0.0200  0.0231
 6677W        W23524  13.724   8.962  14.215 -0.3447  0.0195  0.0106
 6678W        W23525  16.952  12.675   2.611 -0.0131  0.2164 -0.1951
 6679W        W23526   5.535  17.833  14.071  0.2122 -0.0209  0.2751
 6680W        W23527  16.084  13.566  12.066 -0.3555  0.1666  0.0550
 6681W        W23528  18.832   9.126  12.326  0.0279 -0.1636  0.3459
 6682W        W23529   8.570   8.087  12.390  0.0543 -0.0421  0.1963
 6683W        W23530  10.288  18.468  11.417  0.0242 -0.0560  0.0130
 6684W        W23531   6.228   7.444  10.941  0.4055 -0.4623  0.2629
 6685W        W23532   7.033  15.763  14.851  0.0629 -0.1713 -0.2704
 6686W        W23533  15.837   7.938  11.789  0.2419 -0.0052  0.1499
 6687W        W23534   4.555   3.661  12.290 -0.1567  0.1735 -0.1655
 6688W        W23535  17.471   1.937  10.746 -0.1798  0.1793 -0.0193
 6689W        W23536  10.970   9.571  10.686  0.1529  0.1030  0.0343
 6690W        W23537  19.065  13.970   0.187 -0.1843  0.0471 -0.0009
 6691W        W23538   6.871   3.858   9.833  0.1636  0.0334  0.0012
 6692W        W23539  18.531   5.202  13.564 -0.3472  0.0843  0.2791
 6693W        W23540  13.995  10.596   1.353  0.0259  0.0884 -0.0621
 6694W        W23541  14.802   2.625  11.444 -0.0600 -0.4086  0.5508
 6695W        W23542  12.345  17.931  13.182  0.1932 -0.0435  0.2930
 6696W        W23543  10.480   5.052   3.820  0.3101 -0.3503 -0.1945
 6697W        W23544  12.890   3.767   0.030 -0.0512 -0.0582  0.2171
 6698W        W23545  12.004   5.188  13.011  0.2380 -0.0281 -0.0856
 6699W        W23546  18.081  16.461  14.625 -0.1764 -0.0365  0.2226
 6700W        W23547  13.388   1.877  12.571 -0.0542  0.1243 -0.0690
 6701W        W23548  10.529  14.122   3.540  0.1029 -0.0074 -0.1843
 6702W        W23549   5.149   5.173   4.133 -0.3010 -0.0177  0.0095
 6703W        W23550   2.782  13.809   1.974 -0.3611  0.0828  0.2202
 6704W        W23551  16.133   5.370  11.021 -0.0451 -0.2234  0.0990
 6705W        W23552   7.308  12.467  14.202  0.0185 -0.0448 -0.2506
 6706W        W23553  10.850   5.494   1.241 -0.3681  0.3822 -0.0314
 6707W        W23554  18.645   3.088  12.417 -0.0185 -0.0805 -0.1982
 6708W        W23555   9.993  13.416  11.008  0.0945  0.2387  0.0089
 6709W        W23556   2.253  17.761   4.721 -0.2511  0.0703  0.0453
 6710W        W23557   0.148  14.729   2.723 -0.0648  0.0506  0.0019
 6711W        W23558   7.399  12.023   2.159  0.0180 -0.0935  0.2294
 6712W        W23559  19.104   1.943   3.372 -0.1326  0.1241 -0.0923
 6713W        W23560   8.521   9.934   4.392 -0.2748 -0.3784 -0.1174
 6714W        W23561   5.162   6.000  11.168 -0.0483  0.0677 -0.0176
 6715W        W23562   9.412   4.805  11.715 -0.1032 -0.2977 -0.1154
 6716W        W23563  11.881   2.353  11.422  0.0990  0.1774  0.0165
 6717W        W23564   2.657  17.397   0.795  0.1438 -0.1334  0.0683
 6718W        W23565   9.705  12.185   2.102  0.1073 -0.0472  0.0828
 6719W        W23566   8.502   7.285  14.557  0.0846 -0.1096  0.4158
 6720W        W23567  16.471  17.225   4.001  0.1666  0.2697 -0.0902
 6721W        W23568   9.644  15.418   4.277 -0.1371  0.3310 -0.2010
 6722W        W23569   9.268   7.899   3.855  0.2401 -0.1010  0.0660
 6723W        W23570   1.682  19.009   3.538 -0.1948  0.1170 -0.1534
 6724W        W23571  12.145  16.736  13.356 -0.0292 -0.1641  0.0915
 6725W        W23572   0.015  13.580   4.257  0.1197  0.2439 -0.0119
 6726W        W23573  11.037  17.820  13.754  0.0727  0.0056 -0.2657
 6727W        W23574   2.813  13.665   2.881  0.2838  0.3724  0.2732
 6728W        W23575   7.592   7.748   0.252 -0.2405  0.2950  0.0761
 6729W        W23576  16.072  13.030   2.120  0.2083  0.2183  0.0708
 6730W        W23577   1.683  17.801  10.984 -0.1643 -0.2500 -0.2537
 6731W        W23578  16.243   3.471   3.723  0.2287  0.0163  0.2158
 6732W        W23579  19.080  17.892  11.131  0.0129  0.0775 -0.1412
 6733W        W23580   4.434   7.844   0.014 -0.2138  0.1369  0.0757
 6734W        W23581   1.000   4.540   3.505  0.1546  0.0162  0.0373
 6735W        W23582  12.898   0.126   1.059  0.3540  0.0237  0.2331
 6736W        W23583   8.710  13.218  13.224  0.0419  0.2531  0.1579
 6737W        W23584   2.867   2.520  13.061 -0.3651  0.2417 -0.1745
 6738W        W23585   9.226  15.231  12.073  0.2095 -0.1133  0.0477
 6739W        W23586   8.417   4.579   1.720 -0.2158  0.0985 -0.1032
 6740W        W23587   0.666   5.166  13.439  0.2921  0.1240  0.0962
 6741W        W23588  11.776  15.873  14.576 -0.0360 -0.1587 -0.0082
 6742W        W23589   0.503  18.008  11.339  0.1069 -0.1762  0.0723
 6743W        W23590  18.083  13.139   3.846 -0.1198 -0.0243 -0.0881
 6744W        W23591  12.231  11.648  11.768  0.0962  0.1862 -0.1445
 6745W        W23592  16.738  12.191   0.654  0.0095  0.1949 -0.1770
 6746W        W23593   0.962  12.611  13.993 -0.2873 -0.3593  0.0714
 6747W        W23594  13.119   7.783  10.252  0.0448  0.1006  0.1726
 6748W        W23595   6.272   6.166  12.776 -0.0198  0.0572  0.0610
 6749W        W23596   2.714  10.505   4.584  0.0453 -0.0716 -0.1369
 6750W        W23597  10.934  15.698   0.564  0.0517 -0.1574  0.1208
 6751W        W23598  17.736   8.046  10.646 -0.0594  0.3219  0.2245
 6752W        W23599  13.439   0.350  14.683 -0.2315 -0.0180 -0.0477
 6753W        W23600  18.406   1.260  12.852 -0.0067  0.0810  0.1112
 6754W        W23601  12.299   7.295  13.225  0.1010  0.0068  0.2477
 6755W        W23602   6.956  12.043   3.423 -0.0070 -0.0398 -0.1675
 6756W        W23603  13.087   4.901   9.290 -0.2544  0.1210  0.0325
 6757W        W23604   8.384   5.503   4.839  0.0852  0.3378 -0.1273
 6758W        W23605  18.376   0.893   2.453 -0.0842  0.0191 -0.1337
 6759W        W23606  12.315  18.287  12.806 -0.0824  0.4338  0.2316
 6760W        W23607   8.398   7.156  11.562  0.0750  0.0341 -0.0976
 6761W        W23608   0.571  16.353  10.966  0.0755 -0.0090  0.2396
 6762W        W23609   7.621  11.992  14.368 -0.5208 -0.2411  0.0955
 6763W        W23610   8.060  11.519  13.583 -0.2317  0.0994  0.2034
 6764W        W23611  10.921   1.635   1.893 -0.0106  0.2293 -0.1117
 6765W        W23612   7.132   4.633  10.610  0.4681 -0.0146 -0.1563
 6766W        W23613   3.868   0.823   0.297  0.1984 -0.1177 -0.0300
 6767W        W23614  13.132  16.416   0.715 -0.0522 -0.0793  0.1598
 6768W        W23615   0.027   1.468   2.078 -0.1103 -0.2022  0.0403
 6769W        W23616   6.101  11.385  14.659  0.0385  0.0166  0.1122
 6770W        W23617   8.103   6.673   3.916  0.4554  0.0742 -0.0483
 6771W        W23618   9.201   1.667   1.065  0.3702 -0.0430 -0.0471
 6772W        W23619  17.146  11.602  11.648  0.2553  0.2031  0.2579
 6773W        W23620  17.239  14.945   0.930 -0.0807  0.1594  0.1557
 6774W        W23621  12.923   8.243  12.407  0.0068 -0.3842 -0.0895
 6775W        W23622   1.498   0.583  13.815  0.1949 -0.0462 -0.2104
 6776W        W23623   9.529  10.309  11.315  0.2238 -0.1599  0.1536
 6777W        W23624  13.851   9.963   1.434 -0.0050  0.0109 -0.1008
 6778W        W23625  10.528  18.374   4.667 -0.0386  0.1308  0.3114
 6779W        W23626   7.301   4.300  10.935  0.2064 -0.0469 -0.2418
 6780W        W23627  12.195  11.430  10.004  0.2226  0.2172 -0.2307
 6781W        W23628   8.166   5.379  11.023  0.1676 -0.1406  0.0998
 6782W        W23629  14.367   1.435   3.338 -0.1283  0.3227 -0.1397
 6783W        W23630   1.793   5.539  10.090  0.0591 -0.2833 -0.0597
 6784W        W23631   5.847  17.009   1.705  0.0798 -0.0861 -0.4081
 6785W        W23632   9.220  19.082  11.884  0.1263  0.3714 -0.1068
 6786W        W23633   8.813  10.812   2.000  0.1926 -0.1315  0.0927
 6787W        W23634  12.934   8.964  14.100 -0.1460 -0.0427 -0.1957
 6788W        W23635  16.333   6.545  10.084  0.1130 -0.0995 -0.3807
 6789W        W23636   9.460  17.150   2.642 -0.2187 -0.2515  0.2348
 6790W        W23637  15.630  19.020  12.589  0.1737 -0.2198  0.2589
 6791W        W23638  17.936  10.207   0.154 -0.1428  0.2444  0.4357
 6792W        W23639  13.347   2.158   2.693 -0.0063 -0.2639  0.1828
 6793W        W23640  17.178   6.286   4.391  0.1612  0.0518  0.1147
 6794W        W23641   0.157  17.970  12.618 -0.0391 -0.1281  0.2448
 6795W        W23642  12.887   1.072   4.720 -0.0423  0.2607 -0.2817
 6796W        W23643   3.694   1.995   1.333 -0.1347 -0.1072  0.1268
 6797W        W23644   2.654   2.953  12.079  0.4744 -0.3287 -0.1414
 6798W        W23645   6.419  14.789  13.063 -0.2965 -0.3099 -0.1347
 6799W        W23646  11.136   6.605  14.381 -0.0348  0.0757 -0.3329
 6800W        W23647  17.559   6.855   4.380 -0.1103  0.3609  0.1089
 6801W        W23648  14.384  11.605   5.721 -0.0011  0.1873 -0.2081
 6802W        W23649   9.154  15.144   4.154  0.0488  0.2650 -0.0881
 6803W        W23650   6.488   0.932  12.428  0.3439 -0.0841 -0.1457
 6804W        W23651   0.605   3.630   2.672 -0.1838  0.0061 -0.1013
 6805W        W23652  19.174   7.428  10.959 -0.0070  0.2909 -0.0379
 6806W        W23653  14.341   6.585  13.057  0.2804  0.2658 -0.1182
 6807W        W23654  18.116  16.968   3.743 -0.1475  0.2456  0.1011
 6808W        W23655  15.352  17.983  12.781  0.0623 -0.1908 -0.1188
 6809W        W23656  18.876   5.298  10.811  0.1688 -0.2657  0.1289
 6810W        W23657   4.884   7.741  14.794 -0.2212 -0.1588  0.1400
 6811W        W23658   0.133   9.108   4.150  0.0455 -0.0399 -0.0371
 6812W        W23659  13.852   3.894   0.407 -0.2214  0.0642  0.1041
 6813W        W23660  16.164  12.051   1.065 -0.2619  0.4228  0.1111
 6814W        W23661   1.151  15.379  12.667  0.1799 -0.1080 -0.0600
 6815W        W23662  10.386  15.889  12.448  0.1888  0.0357 -0.2975
 6816W        W23663  16.169   2.090  14.122  0.0607  0.2590  0.0849
 6817W        W23664  16.109   6.816  13.285 -0.2704  0.1798  0.2384
 6818W        W23665  15.355  12.115   2.962  0.0965  0.2333  0.1277
 6819W        W23666  12.979  16.924   0.149 -0.0866  0.1161 -0.1603
 6820W        W23667  13.797   0.848  12.221  0.1848  0.2436  0.0848
 6821W        W23668   4.291  18.024   0.601  0.1946  0.0531 -0.0619
 6822W        W23669   8.937  11.416  14.290  0.0287 -0.1878 -0.2598
 6823W        W23670  15.176   1.175  14.463  0.2220  0.2276 -0.2118
 6824W        W23671   2.424   6.467   3.827  0.1972 -0.1048  0.0588
 6825W        W23672   0.204   1.705   9.936 -0.0538  0.0421 -0.1154
 6826W        W23673   8.941  17.104  10.229  0.0624 -0.1793  0.3170
 6827W        W23674  15.336   5.450  11.830  0.2204 -0.2402  0.0138
 6828W        W23675  18.872   1.696  11.715  0.2674 -0.0793 -0.1733
 6829W        W23676  14.873   1.155   5.226  0.6131 -0.2610  0.0562
 6830W        W23677   1.580   6.778  10.435 -0.2432  0.0088  0.1248
 6831W        W23678  10.733  14.359   4.621  0.0564  0.3570 -0.1772
 6832W        W23679   0.692  18.622   2.674 -0.1538 -0.1667  0.1184
 6833W        W23680  16.742   8.480  11.604  0.1321 -0.0564 -0.2546
 6834W        W23681  13.301  12.969  13.667  0.1536  0.0457 -0.0060
 6835W        W23682  15.950  12.532   1.870 -0.0785 -0.0405  0.0212
 6836W        W23683  14.735   9.856   2.275  0.0842  0.0691  0.0033
 6837W        W23684  13.968   8.349   1.421  0.1686  0.0281  0.3408
 6838W        W23685   8.363   7.990  13.230 -0.0911  0.0758 -0.1630
 6839W        W23686  13.160   8.138  11.198  0.0234 -0.2772  0.2757
 6840W        W23687   6.178  19.160   1.415  0.3524  0.2545 -0.1075
 6841W        W23688   6.041   4.654   2.178  0.0882 -0.0168 -0.0005
 6842W        W23689   0.029   8.402  11.971  0.1342  0.2699 -0.3522
 6843W        W23690   8.135  18.722  14.622  0.3664 -0.1947 -0.1412
 6844W        W23691   2.906   6.195  14.694 -0.3175 -0.0094  0.1896
 6845W        W23692   4.025   8.271  12.735 -0.2323  0.1783  0.0766
 6846W        W23693   2.058  11.978   3.294 -0.1964  0.3161 -0.0968
 6847W        W23694   3.819  11.314  10.564 -0.0286 -0.0139  0.2142
 6848W        W23695  10.860   2.006  11.442  0.0651 -0.1157  0.0589
 6849W        W23696  17.766  17.243   5.686  0.0525  0.1020 -0.0715
 6850W        W23697  11.736   8.050   1.920 -0.2285 -0.1365  0.0541
 6851W        W23698  14.308  13.290  10.759 -0.2559 -0.4050 -0.4716
 6852W        W23699  12.756  10.306   4.774 -0.0021  0.0364 -0.1569
 6853W        W23700   9.344  19.157  12.764  0.1627  0.0868 -0.1774
 6854W        W23701  16.265  12.466   3.783  0.0856  0.4359  0.3214
 6855W        W23702  11.623   9.475  13.622  0.0471 -0.0247 -0.2047
 6856W        W23703   6.930   1.426  13.441 -0.0760 -0.2398  0.2251
 6857W        W23704   6.532  17.093  12.166 -0.1333 -0.3670  0.0661
 6858W        W23705   7.369   9.233  13.867  0.2214  0.1770  0.0596
 6859W        W23706  16.224  18.032   3.011 -0.1174 -0.0305 -0.0922
 6860W        W23707  16.962   2.458  12.620  0.3334  0.0691 -0.3271
 6861W        W23708   7.374   0.198  14.534  0.0194 -0.4354 -0.0405
 6862W        W23709   2.598  12.843  13.039 -0.4846 -0.0201 -0.1578
 6863W        W23710   8.916   3.606  10.459  0.1798  0.3703  0.2010
 6864W        W23711   3.693  11.251   0.230  0.0828  0.0006  0.1530
 6865W        W23712  14.928   2.038  12.294 -0.0066  0.0634 -0.0230
 6866W        W23713   9.116  11.599   1.666  0.0240 -0.2199 -0.3569
 6867W        W23714  14.407  12.177  14.194  0.0390  0.2510  0.0886
 6868W        W23715   0.581   9.646  11.800 -0.1159 -0.0556 -0.1497
 6869W        W23716  18.207   6.780   4.003 -0.0061 -0.1794 -0.1545
 6870W        W23717  14.617  18.199   5.108  0.0050 -0.0754 -0.2539
 6871W        W23718  10.147  13.761   2.851 -0.1202  0.1842  0.0496
 6872W        W23719  15.372   7.579  11.985  0.0212 -0.0456  0.0322
 6873W        W23720  10.181  10.527   4.186  0.2149  0.1210 -0.2570
 6874W        W23721   8.249   9.807  11.408  0.1578  0.0936 -0.2428
 6875W        W23722   3.365   5.960   5.588  0.2448  0.0777 -0.2483
 6876W        W23723   0.181   3.893   2.683 -0.2722  0.1355  0.2219
 6877W        W23724   0.962  18.410   4.788  0.2728  0.0507  0.2818
 6878W        W23725   2.585   7.652   5.065 -0.1681 -0.2420 -0.0612
 6879W        W23726  17.410   1.271   0.702  0.2580  0.0272 -0.1432
 6880W        W23727  10.034  12.982   1.097  0.1829  0.1846  0.0541
 6881W        W23728   6.904   2.289   2.316  0.1554  0.1301 -0.1411
 6882W        W23729  17.926  16.865   2.032  0.0861 -0.3259  0.0513
 6883W        W23730   4.668   4.535   2.099 -0.2816  0.0106  0.1122
 6884W        W23731  10.960  17.476   0.721 -0.3021  0.2372 -0.0550
 6885W        W23732   1.852   9.295  10.796 -0.0196  0.1764 -0.0678
 6886W        W23733  18.548   5.618  13.895 -0.1668 -0.0247 -0.1540
 6887W        W23734  10.927  10.476   2.451 -0.2575  0.2737 -0.0867
 6888W        W23735   3.836  11.008  12.337  0.3126 -0.0015 -0.0185
 6889W        W23736   2.209   7.469  12.411  0.2340  0.2328 -0.0105
 6890W        W23737   1.300   1.505   4.539  0.2985 -0.1651 -0.6472
 6891W        W23738  19.012   2.746   1.076  0.1545  0.1657 -0.0624
 6892W        W23739  18.712  14.981   2.087 -0.1803  0.2284  0.0439
 6893W        W23740   7.987   8.683  12.824  0.1978 -0.3193 -0.0258
 6894W        W23741   4.837  16.130  13.873  0.1694  0.3503  0.0983
 6895W        W23742   0.710  14.869   0.727  0.1099  0.0287 -0.3468
 6896W        W23743   0.029  11.862   4.733  0.1024 -0.0693  0.0649
 6897W        W23744  11.873  15.378   4.444  0.1746  0.0955  0.3593
 6898W        W23745   0.345  15.043  11.656 -0.1085  0.1573  0.2163
 6899W        W23746  11.287  11.918   3.425 -0.0846  0.2754 -0.0646
 6900W        W23747  10.567  17.234  12.072 -0.0955  0.1162 -0.1194
 6901W        W23748   4.553   4.136  13.225 -0.1530  0.2235  0.1062
 6902W        W23749  16.070   5.716  10.472  0.2646  0.0236  0.3845
 6903W        W23750  18.607   5.376   1.409 -0.3287  0.1230  0.1015
 6904W        W23751   7.834  15.929  13.024  0.0019 -0.1530  0.2334
 6905W        W23752  10.988   2.811  10.292 -0.1657 -0.0923 -0.0866
 6906W        W23753  13.968   3.537  11.249  0.1029 -0.1758 -0.2401
 6907W        W23754   7.358   6.358   0.774 -0.0231  0.1361 -0.0088
 6908W        W23755   0.162   6.899   1.100 -0.0850  0.0391 -0.0469
 6909W        W23756  13.695   7.093   1.734 -0.1219  0.1525 -0.3218
 6910W        W23757   4.245  11.214   0.086  0.1465 -0.1944  0.1250
 6911W        W23758  11.273   4.004   2.308 -0.0942  0.1050  0.1578
 6912W        W23759  11.705   0.054   1.941 -0.1144 -0.4707 -0.1387
 6913W        W23760   2.818  11.822  11.955  0.1574 -0.0600  0.2449
 6914W        W23761  14.613  10.601  13.362 -0.1766  0.1473 -0.1030
 6915W        W23762   1.091  14.210   0.152  0.0423 -0.0429 -0.2363
 6916W        W23763   5.873  16.856   0.784  0.0191  0.2740  0.2537
 6917W        W23764   8.870  15.419   5.200  0.2378 -0.0136  0.5306
 6918W        W23765   8.892   4.393   0.253  0.1278  0.1416  0.0378
 6919W        W23766   4.963  18.266   1.556 -0.0455 -0.3230  0.0565
 6920W        W23767  16.303  15.149  14.858 -0.0405 -0.2791  0.3739
 6921W        W23768  18.209   0.293  14.832 -0.1572  0.2793  0.3585
 6922W        W23769   9.392  16.866  13.524 -0.1742  0.0666  0.3196
 6923W        W23770   2.715   2.221   3.728  0.0709 -0.0941 -0.0111
 6924W        W23771   3.934  14.139  14.707 -0.1887  0.5227  0.0779
 6925W        W23772   8.506  18.403  13.625  0.1287  0.4753  0.3287
 6926W        W23773  11.129   3.600  13.941 -0.0904 -0.1600 -0.0999
 6927W        W23774   9.164   8.983  13.603  0.1616 -0.6736 -0.0136
 6928W        W23775  12.170  18.124  14.490  0.0966  0.4034 -0.3304
 6929W        W23776  16.595  16.470  11.386  0.0890  0.1090  0.1056
 6930W        W23777   8.082   9.327  11.373  0.0958  0.0431  0.0886
 6931W        W23778  15.644  11.050  13.624 -0.1096  0.2276 -0.0263
 6932W        W23779  10.358  16.149   5.481  0.1774 -0.2216 -0.1916
 6933W        W23780  16.104  10.594   1.793 -0.0331  0.2779  0.0180
 6934W        W23781   4.142  14.181   2.976 -0.0670  0.3547  0.0431
 6935W        W23782   7.195   7.374   0.557  0.0484  0.0799 -0.1970
 6936W        W23783   8.915  11.847   5.338 -0.1106 -0.3560  0.0846
 6937W        W23784   9.724  11.085   2.159  0.1223 -0.0304  0.1645
 6938W        W23785  13.877  12.710   2.699  0.0489 -0.0809  0.0817
 6939W        W23786   1.436   9.739  12.000 -0.1239  0.1439  0.2815
 6940W        W23787   2.184   8.218   1.367  0.3287  0.0011 -0.1521
 6941W        W23788   3.190  10.072  11.721  0.0209  0.3277 -0.0586
 6942W        W23789  15.968  14.164  12.952 -0.1825  0.0111  0.1643
 6943W        W23790  16.190   6.069   1.821 -0.0367 -0.1018  0.2995
 6944W        W23791  18.608  14.464   2.941  0.1308  0.0663  0.0455
 6945W        W23792   2.586   6.418  13.313 -0.1636 -0.2079  0.1425
 6946W        W23793   0.028  16.449   0.933 -0.2626  0.3608 -0.1219
 6947W        W23794  11.205  12.329  14.119  0.1699  0.0572 -0.0576
 6948W        W23795   1.147  16.150   3.593  0.1137  0.0162  0.1001
 6949W        W23796   4.565   3.721  13.626  0.2135 -0.3006 -0.0846
 6950W        W23797  16.977   3.379   1.789 -0.2953 -0.0511 -0.0374
 6951W        W23798   5.726   3.627   2.722  0.1554  0.1934 -0.0988
 6952W        W23799   8.014   0.652  14.866 -0.1664 -0.0365 -0.2666
 6953W        W23800   6.888  14.382   2.927 -0.0254 -0.0548 -0.1694
 6954W        W23801  12.430  14.896   0.039 -0.0361 -0.1678 -0.0629
 6955W        W23802  17.942  10.712  14.213  0.0584  0.2098 -0.3946
 6956W        W23803  17.418  15.594  14.837  0.4223  0.4272 -0.3524
 6957W        W23804   5.438   1.573  10.528  0.0802  0.2364 -0.2905
 6958W        W23805   5.775   7.340  14.536 -0.1224  0.0494  0.0597
 6959W        W23806   3.200   2.950  10.653 -0.0488 -0.1219 -0.1783
 6960W        W23807  10.183  11.108  12.457 -0.0048  0.0309  0.2857
 6961W        W23808   2.085  14.045  12.981  0.1522 -0.0690 -0.2303
 6962W        W23809   7.688  17.011   1.608 -0.0732  0.1185  0.0119
 6963W        W23810   3.534   8.391   1.420  0.2801  0.3878  0.1954
 6964W        W23811   1.051  14.819  13.608  0.1233 -0.0704  0.0773
 6965W        W23812  14.705   5.626   2.482 -0.1060 -0.1471 -0.0299
 6966W        W23813   6.394  17.115   2.409  0.1249 -0.0030 -0.1482
 6967W        W23814   9.447  10.525  12.399 -0.1868  0.0363  0.3714
 6968W        W23815   9.715   4.327  12.651 -0.0702  0.1431  0.0319
 6969W        W23816   2.707  16.458  14.866  0.0472  0.1312  0.0805
 6970W        W23817   2.631   4.307  11.570 -0.0862  0.1079 -0.3172
 6971W        W23818   9.140   0.279  13.926  0.1178 -0.2528  0.2319
 6972W        W23819  10.398   7.381  11.988  0.1157 -0.0464 -0.0176
 6973W        W23820   6.643   8.213   3.117  0.1040  0.0448 -0.1481
 6974W        W23821   0.445   7.803   4.070  0.0736  0.3192 -0.0376
 6975W        W23822   9.334  17.786   3.195  0.0211  0.0933 -0.2712
 6976W        W23823   2.482  10.278   3.426  0.1903 -0.0427 -0.0656
 6977W        W23824  14.671  19.244  12.105 -0.0525  0.0313  0.1201
 6978W        W23825   5.311  12.475  14.678  0.0571  0.1030 -0.0718
 6979W        W23826  15.114  12.422  12.626  0.0841 -0.0997 -0.0477
 6980W        W23827  14.649   0.641   0.939  0.0335  0.0303  0.0496
 6981W        W23828  17.353   5.106   2.682  0.1184  0.0466  0.0516
 6982W        W23829   1.775   8.288   5.286  0.1315 -0.0519  0.2976
 6983W        W23830   0.796  15.516  10.722 -0.0901 -0.1047  0.3130
 6984W        W23831   6.717  15.526  14.444 -0.2757 -0.0419  0.0366
 6985W        W23832   4.602  12.668   1.633  0.3996  0.0862 -0.1035
 6986W        W23833  12.568  19.097   1.378 -0.0528  0.0504 -0.0238
 6987W        W23834  15.914   0.218  12.303 -0.0396  0.1531  0.1527
 6988W        W23835   7.934   4.208   5.075  0.0811 -0.1149 -0.1469
 6989W        W23836  11.631   0.460   5.223  0.4429 -0.1285  0.1487
 6990W        W23837   4.469   0.204  14.899 -0.1056 -0.0998  0.1208
 6991W        W23838  18.063   7.745   1.173  0.0227 -0.2746 -0.2309
 6992W        W23839   1.312  17.261   1.082 -0.0395 -0.1617  0.0190
 6993W        W23840  16.672   7.031   2.930 -0.0531  0.0724 -0.1336
 6994W        W23841  16.067  14.360   2.079  0.0689 -0.0913 -0.1363
 6995W        W23842   9.332   5.623  12.252  0.1851 -0.0851 -0.0397
 6996W        W23843   0.120  17.488   0.719 -0.1339 -0.0053  0.0950
 6997W        W23844   9.869  14.550   0.855 -0.0466  0.1507 -0.0216
 6998W        W23845   9.579  16.222   0.552  0.0423 -0.1241  0.2249
 6999W        W23846  11.045  10.663  12.960  0.0706  0.1587  0.1929
 7000W        W23847   9.711   4.199   1.874 -0.1166 -0.0863 -0.2229
 7001W        W23848   4.300  15.905  14.807 -0.0549  0.0739  0.1311
 7002W        W23849   5.202  12.996   0.772 -0.2212 -0.1679 -0.1049
 7003W        W23850   4.400   4.554  11.218  0.1501 -0.2756  0.2564
 7004W        W23851  12.747   5.346   0.799 -0.0556  0.2036  0.4083
 7005W        W23852   2.178  17.197   2.022 -0.0957  0.0235  0.0056
 7006W        W23853   5.832  15.263  12.779 -0.0764 -0.1753 -0.0157
 7007W        W23854  12.756  11.278  14.820 -0.0475 -0.0675 -0.0415
 7008W        W23855  12.567   0.687   1.192  0.0964 -0.0545  0.0912
 7009W        W23856   6.598   3.704  10.661 -0.1313  0.2991  0.0247
 7010W        W23857   7.210  15.869   4.667 -0.0128 -0.0555  0.0616
 7011W        W23858   5.164   4.805   5.404 -0.1127  0.0910 -0.0532
 7012W        W23859  16.582  13.961   0.669  0.0872 -0.2739 -0.0057
 7013W        W23860  19.210   8.361  13.111  0.0523 -0.2199  0.0391
 7014W        W23861   0.551   6.862   5.180 -0.0660 -0.0074  0.2820
 7015W        W23862  11.990   2.397  13.900 -0.3114  0.0702 -0.1261
 7016W        W23863   7.722  11.789  10.919 -0.4093 -0.1207  0.1133
 7017W        W23864  12.624   8.756  11.868  0.2007 -0.0559  0.0653
 7018W        W23865  18.260  14.785  12.082  0.1840 -0.1130  0.5101
 7019W        W23866  13.215  12.580  13.352 -0.0330  0.3033 -0.2020
 7020W        W23867  16.448   3.086   1.108  0.0859  0.2115 -0.1800
 7021W        W23868  13.467  11.379   0.832 -0.0813  0.1453 -0.4830
 7022W        W23869   3.803  12.937  15.012  0.2301 -0.0885  0.0167
 7023W        W23870   2.294  12.223  11.888 -0.1239 -0.1246  0.0375
 7024W        W23871  11.029   7.339   0.399  0.1912 -0.0683  0.3860
 7025W        W23872   5.793  11.994  13.484 -0.1143  0.0088 -0.1187
 7026W        W23873  10.531   4.700  12.543 -0.3827 -0.2268  0.0608
 7027W        W23874   3.506   5.606   1.534  0.0290 -0.0370 -0.0306
 7028W        W23875   3.001  18.216  11.469  0.0183 -0.1995 -0.0388
 7029W        W23876  15.344  13.010   1.147  0.0687 -0.3957 -0.1382
 7030W        W23877  10.290  14.948  11.802 -0.0424  0.3920 -0.2367
 7031W        W23878  18.766   7.326  12.162  0.1765  0.2212 -0.2610
 7032W        W23879   3.714  10.518   4.294 -0.4002  0.5078  0.0611
 7033W        W23880   3.968  15.411   4.655  0.2069  0.0665 -0.1355
 7034W        W23881   3.460   8.041  14.214  0.2013 -0.2287 -0.3545
 7035W        W23882   4.146   0.546   2.020  0.1882  0.0820  0.0200
 7036W        W23883  11.994  11.256   3.389 -0.0002  0.3538 -0.0203
 7037W        W23884   2.181  16.194  11.053 -0.2668 -0.0112 -0.1165
 7038W        W23885   1.834  18.381   2.878  0.4294  0.2644  0.1777
 7039W        W23886   7.088  17.804  14.438  0.3170 -0.0108  0.0613
 7040W        W23887   5.581  12.891  11.021  0.0347 -0.3094  0.2966
 7041W        W23888   0.176   9.421  10.033 -0.0838 -0.0805  0.0850
 7042W        W23889  12.915  17.171  10.916 -0.0345  0.0150 -0.1732
 7043W        W23890  18.293   8.900  12.466 -0.1395  0.1783  0.3565
 7044W        W23891   3.265  15.914   4.621  0.2796 -0.0061  0.0550
 7045W        W23892  14.684  13.323   5.748  0.0193 -0.3835 -0.1683
 7046W        W23893   9.479   3.261   0.336  0.0631  0.0938 -0.1595
 7047W        W23894  18.763   8.276   4.519 -0.0637 -0.0365  0.2991
 7048W        W23895   5.802   5.253   4.101  0.0341  0.0649 -0.0640
 7049W        W23896   5.740  13.127   3.980 -0.0303  0.2368 -0.1311
 7050W        W23897  14.604   7.814   2.713  0.1488 -0.1733 -0.3295
 7051W        W23898   0.540   0.693   0.722 -0.0025 -0.1328  0.1617
 7052W        W23899   0.780   0.240   1.616 -0.1806  0.4275  0.2217
 7053W        W23900   1.758   5.648  12.502  0.1785  0.0297 -0.1022
 7054W        W23901  13.273  13.584  14.947 -0.0676 -0.1331 -0.0012
 7055W        W23902   9.736  12.461   0.916  0.1298  0.2915  0.2729
 7056W        W23903  14.544  15.248   0.956 -0.0836  0.1142  0.1084
 7057W        W23904   9.729   8.811  13.058 -0.0116 -0.0340 -0.0077
 7058W        W23905  12.927   9.805  14.064 -0.2282 -0.1815 -0.1363
 7059W        W23906   2.201   0.258  14.116  0.2003  0.0170 -0.1091
 7060W        W23907   8.756  17.110   3.180  0.2465  0.0316 -0.2191
 7061W        W23908  17.976  18.437   4.762 -0.2270 -0.0252  0.0205
 7062W        W23909   1.210  18.411   1.050  0.0445  0.2152  0.1677
 7063W        W23910  19.066  13.234  10.686  0.1045  0.0063 -0.2458
 7064W        W23911   9.585  14.882   2.187  0.3544  0.0637 -0.1007
 7065W        W23912  15.186  12.439   1.272 -0.1903  0.1525 -0.3326
 7066W        W23913  18.837  16.299   3.321 -0.0586 -0.0549 -0.1672
 7067W        W23914   3.565   6.033  14.457  0.1561 -0.2648  0.0240
 7068W        W23915   6.949   0.937  11.212  0.0037 -0.4347  0.2115
 7069W        W23916  15.943  12.281  13.230  0.0423  0.0234  0.0515
 7070W        W23917   3.849   6.583  12.417  0.0152  0.0222  0.0645
 7071W        W23918   2.904  12.701  12.571  0.1552 -0.2579 -0.2360
 7072W        W23919   4.666   9.011   3.354  0.1665  0.0893 -0.1143
 7073W        W23920  12.728  18.390  12.184  0.0509  0.3537 -0.0050
 7074W        W23921  10.675  16.878   9.618 -0.0414 -0.0080  0.1217
 7075W        W23922   7.391  12.960   3.569  0.1355 -0.0089  0.1187
 7076W        W23923  19.065  18.833   1.226  0.1106  0.2899 -0.2675
 7077W        W23924   6.168  17.053  14.696  0.0988  0.2492  0.0112
 7078W        W23925   4.215   7.100  12.522  0.0176  0.1073 -0.0209
 7079W        W23926  11.039   7.911   2.641 -0.1112 -0.0024 -0.3262
 7080W        W23927   9.221   6.152   0.105 -0.1433  0.0737  0.1376
 7081W        W23928  17.284  17.937  12.128  0.1547  0.0698 -0.1127
 7082W        W23929   1.774   6.789   0.255 -0.3318  0.1017 -0.0024
 7083W        W23930   5.970   4.256   3.885  0.2869 -0.0742 -0.1454
 7084W        W23931   2.355  19.259   3.990  0.0453  0.2640  0.1104
 7085W        W23932   6.593   1.404   9.167  0.2630  0.0266 -0.1986
 7086W        W23933  15.739  11.318   0.831 -0.1152  0.1366  0.2421
 7087W        W23934   9.506   1.561  11.350  0.0999 -0.0935 -0.0851
 7088W        W23935   3.876   6.012   4.602  0.1079 -0.0012 -0.1689
 7089W        W23936  16.293  11.194   3.449 -0.0403  0.1643  0.1834
 7090W        W23937  14.346  12.204   4.694  0.1483  0.1727 -0.0838
 7091W        W23938   4.202   4.022  11.989 -0.2141  0.0085  0.1270
 7092W        W23939   3.904  11.260  14.747  0.0583 -0.1890 -0.1265
 7093W        W23940  18.300  19.025  10.953  0.0759  0.2439 -0.3373
 7094W        W23941  18.144  14.190  14.850  0.1343 -0.0782 -0.1695
 7095W        W23942  12.213  12.158   1.849 -0.3649 -0.0423  0.0288
 7096W        W23943  10.692   9.388   1.419  0.0224 -0.1274  0.0921
 7097W        W23944  16.050  14.363   3.674 -0.2179  0.1636  0.2037
 7098W        W23945  10.747  15.644   2.375  0.1498 -0.3253  0.0995
 7099W        W23946  14.351  18.985   0.025  0.1781 -0.3476  0.0521
 7100W        W23947  17.290   8.850   3.231  0.3266 -0.0157  0.1022
 7101W        W23948   3.284  12.792   0.454 -0.1679  0.0007 -0.0243
 7102W        W23949  19.030   3.193  12.024 -0.1102 -0.3912 -0.4297
 7103W        W23950  10.924   5.050  13.755  0.0047  0.2182  0.0446
 7104W        W23951  10.081  14.953   2.521  0.4103  0.2552  0.2102
 7105W        W23952  10.346   8.109   0.839  0.0867 -0.1503 -0.1523
 7106W        W23953  16.952  16.258   5.976 -0.0175 -0.0646  0.3510
 7107W        W23954   5.516  14.911   3.000  0.0173 -0.1719  0.0882
 7108W        W23955   5.259  19.254  13.732 -0.1183  0.2694 -0.0011
 7109W        W23956   0.780  15.611   4.175  0.1606  0.0055  0.1251
 7110W        W23957   9.413  16.607   2.970  0.0558 -0.2559  0.0894
 7111W        W23958   5.093  11.406  13.825  0.0786  0.0064 -0.2317
 7112W        W23959   8.471   6.266   3.240  0.1282  0.0910 -0.0896
 7113W        W23960   4.518   9.729   2.860  0.3427 -0.4261 -0.0889
 7114W        W23961  18.729  17.539   5.164 -0.3046  0.0158  0.0711
 7115W        W23962   1.603   7.213   2.642  0.0553 -0.1046  0.0936
 7116W        W23963   9.727   2.690  14.003 -0.1092  0.2130 -0.0331
 7117W        W23964   5.225  12.622  11.234  0.1976 -0.1966  0.1745
 7118W        W23965  17.880  15.287   4.018 -0.1922 -0.0726 -0.0520
 7119W        W23966   5.949  14.991  13.835 -0.1256 -0.0508 -0.2147
 7120W        W23967   1.221   8.376   3.182  0.2674 -0.3053  0.0169
 7121W        W23968   5.397  12.154   0.107  0.0650 -0.1322 -0.1270
 7122W        W23969   1.457  16.760   1.161  0.0463  0.1870  0.2460
 7123W        W23970  17.977   9.351  12.255 -0.0643 -0.3711 -0.0657
 7124W        W23971  14.620   9.112  14.754 -0.0207 -0.0058  0.2497
 7125W        W23972   9.719  19.096  11.767  0.0251  0.1578  0.1046
 7126W        W23973  15.171  10.805   0.230 -0.3436  0.0065  0.0306
 7127W        W23974   1.025  10.952  12.494  0.0224  0.0748  0.5267
 7128W        W23975   9.211  15.631   4.099  0.2871 -0.0407 -0.2144
 7129W        W23976   1.908   7.754   1.434  0.0062  0.2790 -0.0389
 7130W        W23977   2.587  12.322   0.894 -0.0949  0.2873 -0.3530
 7131W        W23978  11.095  10.346   1.483 -0.2110  0.0245  0.1405
 7132W        W23979  15.296   8.379  13.613  0.1062 -0.0578 -0.1128
 7133W        W23980   7.661   2.124  14.430  0.0598  0.0584  0.0923
 7134W        W23981  16.902   5.178   0.446  0.0354 -0.1260  0.0119
 7135W        W23982  19.019   2.762  11.746 -0.0401  0.1089 -0.0097
 7136W        W23983  10.294   1.558  13.906 -0.0099 -0.0365 -0.2283
 7137W        W23984  14.772   1.631  12.599 -0.0980 -0.1352 -0.0779
 7138W        W23985  12.673  10.960   3.305 -0.1148 -0.0963  0.2456
 7139W        W23986  11.594  11.301   0.473  0.3695 -0.1575  0.2627
 7140W        W23987  13.317   7.585  12.916 -0.1410 -0.3143  0.1685
 7141W        W23988   2.500   2.192  13.971 -0.1286 -0.2226  0.0242
 7142W        W23989  12.884  14.362  12.778  0.1416 -0.3666 -0.3989
 7143W        W23990   2.864   3.039   0.705 -0.0258  0.2646  0.2090
 7144W        W23991   9.620  15.603  12.964  0.0117  0.3686 -0.1319
 7145W        W23992  10.635  11.172  11.918  0.4344 -0.1222  0.0878
 7146W        W23993   2.556   8.218   3.138  0.2139  0.1367  0.3280
 7147W        W23994   8.449   6.961  14.230  0.0609  0.0263 -0.1334
 7148W        W23995   9.386  10.455  11.866  0.2537  0.3662 -0.2304
 7149W        W23996   4.101   2.524  13.588 -0.1572  0.1207  0.1385
 7150W        W23997  15.138   3.929  10.410 -0.1642  0.1214  0.0156
 7151W        W23998  10.924  18.482   1.853  0.3156  0.0801 -0.4177
 7152W        W23999   9.653  15.182  12.489  0.1566 -0.0175  0.2997
 7153W        W24000  13.302  17.793   0.535  0.0719  0.1624 -0.2932
 7154W        W24001  10.471   7.887  11.558  0.2398  0.0958  0.0458
 7155W        W24002   2.156  12.521   3.955  0.1344 -0.1410 -0.0925
 7156W        W24003   3.919   4.623  13.675  0.1973 -0.2769 -0.1541
 7157W        W24004   9.052   5.969  11.745 -0.2885  0.1212  0.0563
 7158W        W24005  12.193   2.807  14.974 -0.0021  0.0396  0.0345
 7159W        W24006   1.412  11.427  13.636 -0.1812 -0.2737  0.0405
 7160W        W24007  12.091   4.633   0.863  0.0198 -0.2564  0.1954
 7161W        W24008  18.634  13.585   3.427  0.0323  0.0505 -0.0827
 7162W        W24009  18.733  15.850   3.034 -0.0758 -0.0430 -0.3707
 7163W        W24010  16.449   0.131  14.605  0.4448 -0.1920 -0.3939
 7164W        W24011  17.063   9.454  12.746  0.2066 -0.0327  0.0846
 7165W        W24012   2.706  13.299   1.165 -0.1947  0.0455 -0.1363
 7166W        W24013   8.973   3.021   1.852  0.0445 -0.0003  0.2775
 7167W        W24014  11.768  11.016  10.648 -0.2206  0.0222 -0.0227
 7168W        W24015   0.959  10.523  11.693  0.0530  0.0927  0.1412
 7169W        W24016   2.389  12.887  11.728 -0.0969  0.0645  0.0064
 7170W        W24017   5.033  12.236  14.302 -0.2644  0.0417 -0.3678
 7171W        W24018   8.474  13.042  10.941  0.0540  0.1337 -0.3138
 7172W        W24019   2.942   5.096   4.214  0.1221  0.2204 -0.0528
 7173W        W24020   7.613   1.751  10.609 -0.0552 -0.2411  0.0284
 7174W        W24021  13.531  19.280   1.483 -0.1098 -0.0263  0.0148
 7175W        W24022  13.548  14.466   4.533  0.1349 -0.1062 -0.0521
 7176W        W24023   9.797  15.673  12.506  0.0656 -0.0977  0.1105
 7177W        W24024   5.026   1.837   2.317 -0.0099  0.0107 -0.1722
 7178W        W24025  11.228   4.840  12.462 -0.1032 -0.1110 -0.1207
 7179W        W24026  14.768   8.438  12.403 -0.0864  0.0107  0.3561
 7180W        W24027   0.204  11.037  13.401 -0.1630  0.1111 -0.1151
 7181W        W24028   9.468   0.640  14.714 -0.0329  0.2553 -0.0633
 7182W        W24029  17.502  10.511  13.262  0.4770 -0.2498 -0.1594
 7183W        W24030   6.633   3.593   0.418 -0.0114 -0.0205  0.0119
 7184W        W24031   9.475  18.243  11.147 -0.0862 -0.1288 -0.2374
 7185W        W24032   2.278   8.961   0.851  0.1516 -0.3122 -0.1647
 7186W        W24033  14.937   4.281  13.802 -0.3763  0.1810 -0.0025
 7187W        W24034   3.043   3.989   1.744 -0.1331 -0.1222 -0.1039
 7188W        W24035  15.038  15.267  14.111  0.1065 -0.1566  0.1931
 7189W        W24036   0.914  19.081   0.254 -0.1326 -0.2496 -0.2450
 7190W        W24037  13.158  11.557   3.874  0.0095  0.1730 -0.0915
 7191W        W24038   0.100  13.758  10.714  0.0260 -0.1116 -0.1797
 7192W        W24039  16.229   6.390  12.437  0.2951  0.2109 -0.2295
 7193W        W24040   9.418   4.609   3.341 -0.0936 -0.0663 -0.1517
 7194W        W24041   8.245   7.197   5.243  0.1050  0.1540  0.1331
 7195W        W24042   2.780   9.733   2.714  0.2559 -0.1614  0.1181
 7196W        W24043   1.024  10.453   0.074 -0.0318  0.0597  0.2237
 7197W        W24044  13.357   0.419   1.730 -0.2996  0.1108 -0.0078
 7198W        W24045   5.515  14.382   0.696 -0.1033 -0.2708 -0.0891
 7199W        W24046  13.563  13.834  13.321  0.0414  0.0150 -0.2715
 7200W        W24047   4.962   9.762   4.397 -0.0108 -0.1610 -0.1736
 7201W        W24048  13.065  16.176   2.289  0.0475  0.4186 -0.1430
 7202W        W24049   2.952   6.119  13.092  0.2238 -0.2089  0.2471
 7203W        W24050  10.634   8.079  11.124 -0.1426 -0.1052 -0.2713
 7204W        W24051   8.893  14.658  12.428  0.1782 -0.1811  0.0692
 7205W        W24052   7.745   8.848  14.073  0.1738  0.2733  0.2350
 7206W        W24053  17.950   5.370  14.633 -0.0225  0.0489 -0.2547
 7207W        W24054   2.431  15.177  13.229  0.0432  0.2098  0.1083
 7208W        W24055  12.887   9.135   5.492 -0.0665 -0.0013  0.0839
 7209W        W24056   1.147   2.527  14.296 -0.1628 -0.0740  0.3449
 7210W        W24057   5.227  11.524   3.711  0.0535 -0.2477 -0.1074
 7211W        W24058   3.183  10.270   0.079 -0.2562  0.2789  0.1041
 7212W        W24059   3.554   9.026   2.294  0.0314  0.0983 -0.0053
 7213W        W24060   6.966   1.966   2.756 -0.1608 -0.1145  0.1033
 7214W        W24061   1.441   3.038   4.837  0.1643  0.0612  0.1844
 7215W        W24062  14.541   5.329  12.591 -0.1501  0.0044  0.1446
 7216W        W24063   6.065  10.244   0.557  0.0619 -0.0330 -0.0434
 7217W        W24064   8.397   0.075   5.275  0.1097  0.1162  0.0641
 7218W        W24065   7.840   1.791  13.044 -0.1166  0.2820 -0.0072
 7219W        W24066   4.160   2.585   0.761  0.0885 -0.2790 -0.1172
 7220W        W24067   1.163  16.070  11.817 -0.3411  0.1055 -0.2472
 7221W        W24068  17.382  18.764   4.698  0.2906  0.0159  0.1923
 7222W        W24069   0.634  10.606  14.725  0.0964 -0.0932  0.0106
 7223W        W24070  18.976  13.314   1.608 -0.3070 -0.0326  0.0238
 7224W        W24071   4.497  16.573   2.998 -0.0666 -0.0426  0.0195
 7225W        W24072   4.893  13.742  10.989  0.0220  0.0179 -0.0764
 7226W        W24073  11.833  17.126  14.455  0.1524  0.0065 -0.2330
 7227W        W24074   4.239   6.620  11.520 -0.1399 -0.0675 -0.0305
 7228W        W24075  10.203   8.435  11.223  0.0038 -0.0109 -0.1594
 7229W        W24076  18.579  11.017   9.881 -0.0550 -0.1425  0.0602
 7230W        W24077  12.606   3.632  12.043 -0.0777  0.0943  0.1918
 7231W        W24078   4.443   0.350   2.742  0.1241  0.4025 -0.2821
 7232W        W24079   5.433  10.849   3.370  0.4302  0.1562 -0.1597
 7233W        W24080   9.569  13.722   4.768  0.2322  0.1645  0.2240
 7234W        W24081   4.298   8.748   3.088  0.0522 -0.1979 -0.0710
 7235W        W24082  18.483   0.343  12.829  0.2181  0.1149 -0.3423
 7236W        W24083   9.185   9.340  14.964 -0.0823  0.3243 -0.4160
 7237W        W24084   8.722   2.040  14.020 -0.0661 -0.2997 -0.0729
 7238W        W24085   3.141   9.765  13.980  0.1002  0.1012  0.1130
 7239W        W24086  12.929   6.706   0.599  0.2990 -0.1004  0.3933
 7240W        W24087   7.819   3.342  10.124 -0.0994 -0.0557 -0.1746
 7241W        W24088  16.316  16.579   4.662 -0.1535 -0.0132 -0.2247
 7242W        W24089  16.796  14.777  12.720  0.5098 -0.1389  0.1194
 7243W        W24090   9.115  19.106   4.003  0.1332  0.5713  0.1779
 7244W        W24091   5.613  13.892  14.332  0.0445 -0.0253  0.0249
 7245W        W24092   2.748   7.122  10.303 -0.0758  0.0130  0.2495
 7246W        W24093   2.272   1.972   0.378  0.0589 -0.0084  0.0657
 7247W        W24094  18.506   2.907  10.319 -0.0266  0.0208 -0.1738
 7248W        W24095   4.627  15.021   2.740 -0.3517  0.1617 -0.0504
 7249W        W24096  14.091  13.328  14.199  0.0428 -0.1884 -0.0877
 7250W        W24097  13.818  12.740   1.453 -0.1375  0.2307  0.0564
 7251W        W24098  15.098  19.120   0.642 -0.2209  0.0644 -0.3685
 7252W        W24099  17.993  16.571   4.494 -0.0805 -0.2503  0.1812
 7253W        W24100  17.717  17.719  14.539 -0.0331 -0.0914  0.0986
 7254W        W24101  15.308   6.986   4.060 -0.1710  0.0149 -0.1669
 7255W        W24102  19.154  18.152   2.757  0.2318  0.1815  0.1121
 7256W        W24103   1.627  16.161  13.503  0.1000 -0.3027  0.1248
 7257W        W24104   8.376  10.641   5.429  0.0109  0.2712  0.0297
 7258W        W24105   6.807  11.178  13.367 -0.1533  0.2293 -0.0154
 7259W        W24106   3.802   7.105   0.363  0.0694 -0.0231 -0.0434
 7260W        W24107  11.304  17.337   5.305  0.0607  0.3318  0.0495
 7261W        W24108  17.673   7.403   5.034 -0.0962 -0.2139 -0.0129
 7262W        W24109  15.891   5.823  10.930  0.2691  0.2624  0.2107
 7263W        W24110  15.996  18.427   0.675 -0.0318 -0.0839  0.1813
 7264W        W24111   1.106   3.721  12.308  0.0191  0.0806  0.0614
 7265W        W24112  15.486   0.879   0.909  0.0177  0.0836  0.0976
 7266W        W24113  13.833  15.950  13.329  0.2647 -0.0822 -0.2285
 7267W        W24114  18.761   3.691  11.411  0.1425 -0.1721  0.2783
 7268W        W24115   3.480   4.263   3.242 -0.0961  0.0481  0.0647
 7269W        W24116  11.666  17.180  11.906 -0.3171  0.0905  0.2395
 7270W        W24117  10.205  10.067  11.393  0.1326  0.1397  0.0436
 7271W        W24118   6.060   0.541  11.376 -0.1137  0.1113 -0.2330
 7272W        W24119   2.006   0.368  10.420 -0.1639 -0.0120  0.0011
 7273W        W24120  12.409   3.144  12.063  0.0105  0.3012  0.4188
 7274W        W24121  18.523   3.581  12.482 -0.3714 -0.0617 -0.0451
 7275W        W24122   1.587   2.036   5.413  0.0584  0.0472 -0.0796
 7276W        W24123   5.882   4.649  13.849  0.0315  0.0958 -0.1996
 7277W        W24124  11.528   6.049   0.970  0.1639 -0.3884  0.1701
 7278W        W24125  11.281   6.133   1.760  0.1106 -0.2099  0.4142
 7279W        W24126  12.535   8.303   4.998 -0.2711  0.1583 -0.2064
 7280W        W24127   6.888   0.089   3.257 -0.1239  0.0505  0.3186
 7281W        W24128   3.746   5.405  12.254  0.0450  0.2566  0.0940
 7282W        W24129  17.315   1.619   1.958 -0.2049  0.0103 -0.0180
 7283W        W24130  16.465  17.120   9.946  0.1092  0.1315  0.3072
 7284W        W24131   9.721   4.018   3.212  0.0036  0.2513  0.1439
 7285W        W24132  13.382   2.495  13.347 -0.0587 -0.0444  0.0700
 7286W        W24133  12.723  17.634   0.621  0.2911 -0.1308 -0.2291
 7287W        W24134   7.798   4.913   3.177  0.1346 -0.4480 -0.0895
 7288W        W24135  16.744   2.494   0.760  0.0953  0.2132 -0.3361
 7289W        W24136  17.547  14.248   2.595  0.1599 -0.0224  0.2444
 7290W        W24137   9.306  14.688  12.084 -0.0592  0.0204  0.1814
 7291W        W24138  12.271  15.754  13.811  0.0562 -0.0352 -0.1992
 7292W        W24139  17.947  17.172   2.838  0.2301 -0.0947  0.1789
 7293W        W24140   0.124  11.385   3.346 -0.1394  0.2321  0.3175
 7294W        W24141   6.666  19.177  12.064 -0.0784  0.3127  0.1490
 7295W        W24142  16.169   5.726   5.077  0.0981 -0.3139 -0.0357
 7296W        W24143  10.200  11.043  13.036  0.0487 -0.1371  0.0256
 7297W        W24144  11.408  18.638   2.071 -0.0519 -0.4178 -0.2866
 7298W        W24145  13.850   7.154   0.701  0.2476  0.1267  0.1400
 7299W        W24146  18.775   0.379   1.357  0.0621  0.1418  0.3187
 7300W        W24147  12.924   8.578   2.701  0.1749  0.0334 -0.0648
 7301W        W24148  13.854  11.812  13.802 -0.2885  0.3587 -0.3620
 7302W        W24149   3.811   8.913  11.902  0.1378  0.2391  0.3787
 7303W        W24150   2.943   6.366  10.892 -0.2112 -0.1681 -0.3032
 7304W        W24151  10.507   6.625  11.415  0.0360  0.2762 -0.0191
 7305W        W24152  12.885   4.877  10.339  0.0980  0.0101  0.2639
 7306W        W24153   0.248   7.709   4.540 -0.0340  0.3835  0.2764
 7307W        W24154  13.360   1.013   5.128  0.2604  0.2732  0.2620
 7308W        W24155  12.850   7.587  11.865  0.2725  0.3689 -0.1915
 7309W        W24156   1.466   5.867   1.871 -0.1182 -0.0922  0.2471
 7310W        W24157  15.382  18.804   4.310 -0.0017  0.3446  0.0960
 7311W        W24158   6.676  14.024  10.520  0.0067 -0.1405  0.0673
 7312W        W24159   5.204   4.479  13.817  0.2646  0.1007  0.2377
 7313W        W24160   2.687   9.860   2.230  0.3455  0.0320 -0.1307
 7314W        W24161   8.196   1.913   0.952 -0.2131 -0.2871  0.1880
 7315W        W24162   1.491   4.520   5.166  0.1883 -0.2958  0.0270
 7316W        W24163  13.412   5.001   2.174  0.0823 -0.1606 -0.2084
 7317W        W24164  14.445  19.267   2.740  0.0164  0.1564 -0.1573
 7318W        W24165   7.899   0.692  11.014  0.3786  0.2382 -0.1720
 7319W        W24166   8.236  18.232  14.943 -0.3386 -0.3157 -0.0878
 7320W        W24167   0.646   8.335  11.126 -0.0353 -0.0006  0.0821
 7321W        W24168   8.582   9.072  14.316  0.0078  0.0347  0.1224
 7322W        W24169  15.460   1.022   4.001 -0.1397  0.0227 -0.0198
 7323W        W24170   1.150   8.540  13.453  0.5731  0.0854  0.0144
 7324W        W24171  15.040   0.858   3.453 -0.0236 -0.4064  0.0502
 7325W        W24172   8.082   5.800  14.030  0.1178  0.0307 -0.0894
 7326W        W24173   3.014   1.195   0.449  0.0399 -0.2489 -0.0249
 7327W        W24174  10.113  13.109   2.043  0.0095  0.1926 -0.0390
 7328W        W24175   0.715  14.889   2.670 -0.2475  0.3003 -0.2623
 7329W        W24176   7.604  13.114   5.423  0.1584 -0.1448  0.0069
 7330W        W24177  12.611   1.662   2.650  0.4060 -0.0891  0.0156
 7331W        W24178  16.578  15.257   2.752 -0.1182  0.3095 -0.1443
 7332W        W24179   0.945   3.726   5.324 -0.0680 -0.0228 -0.0330
 7333W        W24180  14.718  11.735   4.597 -0.0203 -0.1550  0.0686
 7334W        W24181   7.969   2.578  11.355  0.0546 -0.1217 -0.1826
 7335W        W24182  16.402   2.009  11.942  0.2778 -0.1585 -0.1331
 7336W        W24183   1.136   1.431  11.382 -0.1250 -0.1070 -0.2750
 7337W        W24184   2.048   6.100  12.574  0.0299 -0.1965  0.1675
 7338W        W24185   1.177   1.340  10.788 -0.2108 -0.2232 -0.3707
 7339W        W24186   0.628   1.533   2.215 -0.1326 -0.0824  0.0220
 7340W        W24187  14.185  11.027  14.063 -0.1337  0.1283 -0.1463
 7341W        W24188  16.968  13.378   3.351  0.3821 -0.0469  0.1782
 7342W        W24189  14.829   6.328   4.688  0.2608  0.0780  0.0364
 7343W        W24190   1.168  11.481  11.481  0.1253  0.2085 -0.1011
 7344W        W24191   9.881   7.659   3.911 -0.0264 -0.0592  0.3839
 7345W        W24192   1.720   1.202  12.365  0.1253  0.0895  0.2985
 7346W        W24193  10.263  10.954   0.428 -0.3061 -0.3430 -0.0375
 7347W        W24194  18.196   7.939  13.664  0.1282  0.1397  0.0589
 7348W        W24195   1.395  11.125   2.919 -0.3789  0.7484 -0.3424
 7349W        W24196   0.575  13.350   3.446 -0.2266  0.0685  0.0465
 7350W        W24197   0.392   0.827  12.591 -0.0906  0.0366 -0.0564
 7351W        W24198  11.601   3.672  13.793 -0.0515  0.1426  0.2738
 7352W        W24199  18.816   0.666   2.349  0.0772 -0.2850  0.0692
 7353W        W24200  15.917   8.842   4.434  0.0980 -0.1988  0.2392
 7354W        W24201   8.342   2.356   3.890  0.3161 -0.0676  0.3741
 7355W        W24202   6.523   9.924   1.806 -0.0223  0.1077 -0.1650
 7356W        W24203   9.328   8.273   2.164  0.1159  0.1592  0.0707
 7357W        W24204   3.386   0.878   5.336  0.2630  0.0855 -0.0252
 7358W        W24205  14.407   0.315   4.681 -0.2769  0.4600  0.3941
 7359W        W24206   7.664   5.821  14.352 -0.0567  0.1247 -0.0232
 7360W        W24207  12.647   5.809   0.496 -0.2258  0.6067 -0.0867
 7361W        W24208  13.093   1.470   1.786 -0.0884  0.2559  0.2122
 7362W        W24209   2.464   6.232  10.547 -0.1176  0.1097  0.0582
 7363W        W24210   5.066   5.384  11.961 -0.2392 -0.0842  0.0931
 7364W        W24211   2.439   7.242  11.243  0.0624  0.1080  0.0125
 7365W        W24212  16.494  11.225   2.979  0.2424  0.2538 -0.1887
 7366W        W24213  16.293   7.922  10.062 -0.1358 -0.2124 -0.1464
 7367W        W24214   5.889  18.713   4.644  0.3464  0.0736 -0.0917
 7368W        W24215   7.581  11.626  12.053 -0.0470 -0.1973 -0.0804
 7369W        W24216  18.613   8.213   2.209  0.3142  0.0804 -0.1232
 7370W        W24217  11.266   9.415  11.426  0.2157  0.1791 -0.2582
 7371W        W24218   8.386  13.931   0.244 -0.0871  0.2177 -0.0755
 7372W        W24219  13.723   5.131  11.937  0.3905 -0.0518 -0.1275
 7373W        W24220   3.319   7.238  12.315 -0.0467 -0.0090  0.0334
 7374W        W24221   4.390  14.495  14.716 -0.2815  0.1401  0.1757
 7375W        W24222   4.470   9.232   2.402  0.0425  0.3520  0.0057
 7376W        W24223   5.896  16.584   0.243 -0.2425 -0.0517 -0.0827
 7377W        W24224   3.161   3.480   0.925  0.2804  0.4771 -0.0373
 7378W        W24225   2.681   6.663   0.838 -0.2930  0.1485  0.0295
 7379W        W24226   3.775   3.770  11.291  0.2556  0.1618  0.3511
 7380W        W24227  17.109  14.712  12.260  0.1915 -0.0277  0.2242
 7381W        W24228   9.492   3.199  11.883 -0.3388  0.1228 -0.1354
 7382W        W24229  17.701   3.683  10.694  0.1148 -0.3721  0.3653
 7383W        W24230   4.170  17.346   5.056  0.3085  0.1294 -0.0035
 7384W        W24231   7.601  10.627   0.353 -0.4628  0.1497 -0.0168
 7385W        W24232   5.955  16.483  14.730 -0.3367 -0.0876 -0.0433
 7386W        W24233   3.803  15.328  11.186  0.1354 -0.1745 -0.0436
 7387W        W24234   7.174   9.482   2.312 -0.0179 -0.3505  0.3506
 7388W        W24235   3.726  13.425  11.274  0.1225 -0.1087  0.2539
 7389W        W24236   8.674   5.679   5.215  0.1846 -0.0333  0.1823
 7390W        W24237   6.619   1.146   3.535  0.0562  0.1465 -0.1896
 7391W        W24238   5.081  16.634   2.928 -0.0212  0.0330  0.1422
 7392W        W24239   1.565  13.667  10.630  0.2596 -0.1481  0.1008
 7393W        W24240  15.007   7.631   0.092 -0.1343  0.0961  0.0335
 7394W        W24241  12.511   6.982   5.266  0.2215 -0.2653 -0.1664
 7395W        W24242  13.261  14.345  14.823 -0.1484  0.1506  0.0067
 7396W        W24243   9.308  15.062   1.338 -0.0336 -0.2296  0.0679
 7397W        W24244   7.223   5.522  11.767 -0.1320  0.0974 -0.0353
 7398W        W24245   6.791   9.148  12.558 -0.2301  0.1889 -0.3810
 7399W        W24246  10.724   5.272   1.975 -0.1845 -0.2163  0.3039
 7400W        W24247  18.870  15.229  12.733  0.0165 -0.0357 -0.2441
 7401W        W24248   9.456  15.936   0.147 -0.1581 -0.0169 -0.3137
 7402W        W24249   4.907  17.959   3.989  0.0301 -0.0397  0.3341
 7403W        W24250   1.903  12.895   9.844  0.0575  0.3748 -0.1261
 7404W        W24251   5.740  17.376   4.078 -0.2289 -0.0232  0.0637
 7405W        W24252  18.117  19.089  14.647 -0.0392 -0.0890 -0.0488
 7406W        W24253   0.016   5.755   1.579  0.1619  0.2299 -0.2473
 7407W        W24254   3.662  12.416  12.564  0.0533 -0.0965 -0.1703
 7408W        W24255  19.254  12.282   4.067 -0.3355 -0.2997  0.1905
 7409W        W24256   1.071   4.821  12.237 -0.1456 -0.1452  0.0657
 7410W        W24257   6.396   9.059  14.677  0.1777  0.0279  0.2745
 7411W        W24258   2.370   0.274  13.487 -0.0891 -0.0934 -0.5607
 7412W        W24259  14.523   4.573   0.348  0.1030  0.3493  0.4438
 7413W        W24260  13.079  19.142  11.280 -0.1962 -0.0579 -0.1743
 7414W        W24261  18.448   9.364  11.329 -0.0383 -0.1629 -0.2103
 7415W        W24262   9.790   9.914  13.586  0.3213  0.1094 -0.2542
 7416W        W24263   1.917  14.653  11.623  0.0511 -0.4292 -0.2240
 7417W        W24264   8.781  13.732   0.528  0.1267  0.0407 -0.0309
 7418W        W24265   8.532   1.603  11.458  0.0131 -0.2339 -0.2732
 7419W        W24266   9.788   7.015  11.670  0.0222 -0.1952 -0.0423
 7420W        W24267   5.213  11.825   1.399  0.1240 -0.1176 -0.0284
 7421W        W24268  17.763  14.098   5.006 -0.2193 -0.2262 -0.2114
 7422W        W24269  16.284  19.256  12.529 -0.1649 -0.0322 -0.1152
 7423W        W24270   4.821  15.086  12.718 -0.1653 -0.0151  0.2351
 7424W        W24271  16.427   0.488   1.601  0.0255 -0.0941 -0.1436
 7425W        W24272   7.525  17.895   1.216 -0.1901 -0.0744  0.0953
 7426W        W24273   0.677   6.581  12.420  0.1887  0.4044 -0.1751
 7427W        W24274  16.038   1.383  14.747 -0.2429 -0.2284 -0.0476
 7428W        W24275   7.733  16.411   4.028 -0.1418  0.4334  0.0265
 7429W        W24276  17.318   8.544  12.677 -0.2634 -0.0920  0.1901
 7430W        W24277  10.067  14.493  13.785  0.0442  0.1285 -0.3521
 7431W        W24278   1.195   7.618  11.632 -0.0872 -0.2656  0.0432
 7432W        W24279   7.180  11.929  13.439 -0.0642 -0.1729  0.2435
 7433W        W24280   5.978  10.867   2.677  0.2038  0.0767 -0.1075
 7434W        W24281  18.258   9.067   4.489 -0.1323  0.1993  0.0448
 7435W        W24282   5.451  15.148   4.089 -0.4204  0.2984  0.0652
 7436W        W24283   1.127  10.161   2.123 -0.1398  0.0484  0.0877
 7437W        W24284   0.798  15.433   4.996 -0.1074 -0.1435 -0.2537
 7438W        W24285   5.332   4.966  13.623  0.2032 -0.0410  0.2962
 7439W        W24286  18.064   0.108   1.071 -0.3168 -0.1741  0.0363
 7440W        W24287   5.320   2.673  12.222  0.4412 -0.2320  0.1340
 7441W        W24288   7.012  17.170  12.407 -0.2056  0.2489  0.1336
 7442W        W24289   7.227  12.516  10.720  0.0356 -0.4052 -0.0973
 7443W        W24290  16.570   2.581  14.738  0.0014  0.0161 -0.1064
 7444W        W24291   8.640  12.591  12.315  0.3308  0.1673  0.1417
 7445W        W24292   0.000   2.562   4.086 -0.0416  0.2751 -0.1317
 7446W        W24293  15.445   4.464   4.954 -0.2031 -0.1256  0.1717
 7447W        W24294   2.754   4.163   1.317 -0.0493  0.0550  0.0584
 7448W        W24295  16.454   3.925   0.587 -0.0521 -0.1087  0.0162
 7449W        W24296  17.114  10.361  14.037  0.3516  0.0872  0.2087
 7450W        W24297   5.691  13.604   3.090 -0.1438 -0.1301 -0.1041
 7451W        W24298   3.853  18.522   2.294 -0.0136 -0.0020 -0.1631
 7452W        W24299   1.839   4.190  10.212  0.1655 -0.0928  0.1405
 7453W        W24300   8.856   9.072   2.809 -0.1582 -0.0764  0.0683
 7454W        W24301  14.748   3.147   0.854  0.0686  0.0239  0.0609
 7455W        W24302   0.739   4.438  11.615  0.0153  0.1080  0.4229
 7456W        W24303  10.683   6.178   4.149 -0.2296  0.1864 -0.2072
 7457W        W24304  19.259  18.729   2.329 -0.3000 -0.1960  0.1179
 7458W        W24305  13.540  12.158  14.108  0.0933  0.0353  0.1873
 7459W        W24306   6.075  17.105  11.861 -0.1863  0.1297  0.0863
 7460W        W24307   4.916   0.239   3.524 -0.1357 -0.0457  0.0975
 7461W        W24308  17.943   9.288  11.287  0.1112  0.2597  0.0829
 7462W        W24309   7.845  13.032   0.365 -0.0103  0.1379 -0.1284
 7463W        W24310  12.808   8.047   4.079 -0.1430 -0.2525  0.2159
 7464W        W24311   9.365  15.768   1.889 -0.0483 -0.1938 -0.0425
 7465W        W24312   6.810  11.677  14.419  0.2251  0.1591  0.0621
 7466W        W24313   6.455  18.392  13.576  0.0095  0.1172 -0.2849
 7467W        W24314   6.300  12.472   1.754 -0.1336 -0.1391 -0.2914
 7468W        W24315   1.273  10.246   3.009 -0.0038 -0.2103  0.0520
 7469W        W24316   2.749  15.829   4.328 -0.0230 -0.0256 -0.0811
 7470W        W24317   4.671   9.650   9.380 -0.0679 -0.1155 -0.6036
 7471W        W24318   1.005   3.357   3.018 -0.3022  0.0817 -0.0084
 7472W        W24319  13.138  14.541   1.334  0.0273 -0.1665  0.0522
 7473W        W24320   9.817   1.046   3.004  0.1797 -0.0874 -0.0406
 7474W        W24321   2.635  10.466   0.162 -0.1307 -0.0390 -0.0297
 7475W        W24322   3.393   0.409  12.128  0.1121 -0.1820 -0.0427
 7476W        W24323  12.439  18.712   1.064 -0.1102 -0.2300  0.2540
 7477W        W24324   4.554   8.569   3.585 -0.2366 -0.0070 -0.2560
 7478W        W24325  14.096   5.452  14.801 -0.0571  0.0053  0.1892
 7479W        W24326   9.395  13.199   4.010  0.0297 -0.0434 -0.2906
 7480W        W24327   5.996  12.766  12.883 -0.2134  0.1278  0.0313
 7481W        W24328   7.491  18.687  12.464 -0.0221  0.2031  0.2058
 7482W        W24329  15.258   4.158   4.419 -0.2398 -0.1664 -0.1844
 7483W        W24330   4.870  10.452  12.278  0.0331  0.2845 -0.1323
 7484W        W24331   1.196   9.909   9.277 -0.1828  0.3045 -0.0611
 7485W        W24332  14.093  18.975  14.542 -0.0041  0.1088 -0.0219
 7486W        W24333   1.734  14.142  14.077  0.0587  0.4846  0.0978
 7487W        W24334  18.879   2.838  12.849 -0.0127  0.0380 -0.1776
 7488W        W24335   2.582   7.604   1.976  0.2232 -0.0331  0.1356
 7489W        W24336  13.143   3.864  14.014  0.1875  0.1359  0.0563
 7490W        W24337  15.785  18.541   1.341 -0.0520  0.0735 -0.1021
 7491W        W24338   2.109   8.285  12.804  0.1129  0.1182 -0.0587
 7492W        W24339  11.521   2.499  14.185 -0.0329  0.2153 -0.0528
 7493W        W24340   0.861   7.183   5.521  0.1907  0.0063  0.4157
 7494W        W24341  15.499   7.986   1.876 -0.1267  0.0216  0.1246
 7495W        W24342   4.830   3.464   0.263 -0.0516  0.3815  0.1707
 7496W        W24343  17.946   9.869  13.854 -0.2218  0.0443 -0.0219
 7497W        W24344  10.997   3.369   5.661 -0.3436  0.2309 -0.1348
 7498W        W24345  16.366  15.188   3.703 -0.1117 -0.1510  0.1139
 7499W        W24346  18.553  14.953   5.623 -0.1016  0.1723  0.2058
 7500W        W24347  11.281   2.607  12.914 -0.1946 -0.1634 -0.2839
 7501W        W24348   8.871  12.691  11.339 -0.0684  0.1448  0.0797
 7502W        W24349   1.374   4.461  12.052 -0.3552  0.0127  0.0445
 7503W        W24350  10.616   1.983   3.819 -0.1114  0.5398 -0.0529
 7504W        W24351  11.548   7.265   1.838 -0.0708 -0.1523  0.1632
 7505W        W24352  13.985  13.119   0.136  0.2170 -0.1266  0.3450
 7506W        W24353  11.221  17.843  12.478 -0.0024  0.1366  0.0573
 7507W        W24354  10.608   9.368   2.586  0.0562  0.0039  0.0563
 7508W        W24355  18.757   6.166   3.887  0.0650  0.0908  0.2471
 7509W        W24356  12.637  12.891  11.973  0.4413  0.1982  0.0298
 7510W        W24357   0.725  16.321   0.416  0.0384 -0.0940  0.4828
 7511W        W24358   6.460   4.917   3.093 -0.1782  0.2384  0.0053
 7512W        W24359   9.393   8.591  13.327  0.3355 -0.1503  0.0590
 7513W        W24360   5.460  17.943   9.122  0.1824 -0.1696  0.2523
 7514W        W24361   3.822  14.678   2.183  0.2571 -0.2636 -0.2161
 7515W        W24362  11.484   8.096   1.244  0.0577 -0.1361 -0.1086
 7516W        W24363  11.238  14.830   0.268 -0.1812  0.0578  0.3330
 7517W        W24364   1.004   1.111   1.350 -0.2147 -0.5187 -0.0346
 7518W        W24365  18.338   6.423   5.533  0.3407 -0.1143 -0.1084
 7519W        W24366   7.651   9.757   1.603  0.1971  0.0878  0.2008
 7520W        W24367  11.237  14.125  10.466  0.0866  0.2136 -0.0398
 7521W        W24368  16.265  14.912  11.489 -0.0995  0.1309  0.0550
 7522W        W24369  14.170  13.391   4.059 -0.0925  0.0293  0.1812
 7523W        W24370   0.547  17.525  11.525  0.3959  0.0967  0.0776
 7524W        W24371   0.730  11.036   0.023  0.0460 -0.1677  0.1651
 7525W        W24372  14.598  12.402   1.163  0.0633 -0.1833 -0.0334
 7526W        W24373  16.416   6.757   1.146  0.2696  0.2581 -0.2316
 7527W        W24374   7.128   7.262  14.672  0.1311  0.0497 -0.2231
 7528W        W24375  12.056  13.587   4.355 -0.1160 -0.2296 -0.1086
 7529W        W24376  16.272   4.492   3.545  0.3330 -0.2172  0.1418
 7530W        W24377   9.083   8.348   5.393  0.2574  0.1718 -0.0568
 7531W        W24378  11.703  12.554  11.993 -0.1697  0.1806 -0.2769
 7532W        W24379   8.366  10.486  12.638  0.0264 -0.1364 -0.1063
 7533W        W24380  16.261   4.264   1.814  0.1332 -0.0619  0.0699
 7534W        W24381   2.908  16.916  12.682  0.5632 -0.0426  0.5154
 7535W        W24382  11.132  18.144   5.770 -0.1872  0.1102  0.0688
 7536W        W24383  15.868  17.235  13.965 -0.1336  0.0922  0.1366
 7537W        W24384  14.633   7.579  12.215  0.1391 -0.1786 -0.1358
 7538W        W24385  18.029   3.386   1.425 -0.1335  0.1698  0.2019
 7539W        W24386   2.359   6.879   1.620 -0.2160  0.3766  0.1174
 7540W        W24387   3.613   2.078   3.561  0.1133  0.0734  0.0394
 7541W        W24388  10.861  11.594   4.712 -0.0857 -0.1623 -0.2344
 7542W        W24389  16.475   9.024  15.002 -0.0792  0.1995  0.3408
 7543W        W24390   6.276   8.989  13.663 -0.1112 -0.3418  0.0915
 7544W        W24391   3.180   7.264  11.775  0.1693 -0.2109 -0.2931
 7545W        W24392   7.528  15.498   0.397 -0.2022  0.3297  0.0862
 7546W        W24393  10.931  12.320   4.198 -0.3482 -0.1185 -0.0387
 7547W        W24394  11.448   5.121   1.291 -0.1795  0.3991 -0.4222
 7548W        W24395   6.607   2.649   2.175  0.3067  0.2497  0.0375
 7549W        W24396  18.490  15.658  14.147 -0.2775 -0.2489  0.1182
 7550W        W24397   0.530   9.457   0.685 -0.1521 -0.2218  0.2096
 7551W        W24398   0.136  12.454  14.731 -0.2174 -0.0054 -0.1441
 7552W        W24399   2.292  15.402   1.681 -0.1099  0.4702  0.0276
 7553W        W24400  11.648   1.765  10.756  0.0748 -0.0710  0.0130
 7554W        W24401  11.344   4.852  13.545 -0.0057 -0.1599 -0.0305
 7555W        W24402  13.075  16.871  13.254 -0.0740 -0.0358 -0.0761
 7556W        W24403  14.139   5.447   4.992 -0.1035  0.0979 -0.1598
 7557W        W24404  11.475  16.576  11.326 -0.0312  0.0666  0.0457
 7558W        W24405  13.624  13.722  12.846  0.1877  0.1819 -0.0963
 7559W        W24406   4.125  17.271  11.449 -0.1472  0.2129 -0.0912
 7560W        W24407  10.409   3.798  12.721  0.3008  0.2793 -0.4690
 7561W        W24408   6.343   3.930   1.734  0.0125  0.3736  0.0446
 7562W        W24409  11.327  16.528  12.819 -0.4482  0.2071  0.0133
 7563W        W24410  15.329  18.035   2.467 -0.1008  0.4246  0.0911
 7564W        W24411   3.971  10.398   9.983 -0.1194  0.1069 -0.2575
 7565W        W24412   4.688   7.862   1.346  0.3598 -0.0234 -0.0891
 7566W        W24413  17.993   5.253  10.962  0.2430 -0.0307 -0.0222
 7567W        W24414   4.417  16.005  12.640  0.0904 -0.0324 -0.1263
 7568W        W24415   9.138   7.795   3.329 -0.0562  0.1354  0.3515
 7569W        W24416   5.594   0.202   5.222 -0.1887 -0.2761  0.1548
 7570W        W24417   0.922  18.082   5.575  0.0648  0.1704 -0.1525
 7571W        W24418  13.257   0.958   1.594  0.1972 -0.2846  0.1998
 7572W        W24419   3.439   7.412  10.797  0.0627  0.0065 -0.0914
 7573W        W24420   8.847  15.985   9.422  0.0055  0.3883  0.1637
 7574W        W24421   2.326  12.574  14.764  0.0425  0.3031 -0.0595
 7575W        W24422  14.538  15.501  13.860 -0.0235 -0.3214  0.0433
 7576W        W24423   1.603  10.026   4.109  0.4762 -0.1310 -0.0007
 7577W        W24424  17.434   9.643   5.213 -0.2186 -0.2204 -0.1119
 7578W        W24425   6.471   9.453  14.365  0.1553  0.2470  0.1547
 7579W        W24426  13.167  15.465  12.070  0.1644 -0.1355 -0.0255
 7580W        W24427   1.472  10.990   1.980  0.1270 -0.4649  0.0303
 7581W        W24428   1.006   6.091   1.567  0.1678  0.1429  0.1809
 7582W        W24429   5.989  15.943   4.452 -0.3435  0.3486  0.1949
 7583W        W24430  18.456  12.560   2.254  0.7345  0.1924 -0.0452
 7584W        W24431   5.179  12.297  13.455  0.0114 -0.6047 -0.0499
 7585W        W24432   1.121  14.527   0.575  0.0234  0.3261 -0.0855
 7586W        W24433   4.147   3.330   2.295  0.1831 -0.2266  0.3073
 7587W        W24434  13.194  14.969  12.258  0.1975  0.1643 -0.3759
 7588W        W24435  16.661  17.247  13.410  0.1670 -0.1477  0.0067
 7589W        W24436  13.871  13.934  11.890 -0.4431 -0.2771  0.1761
 7590W        W24437   0.705   5.909   4.786  0.0339  0.2106 -0.0530
 7591W        W24438  11.134   9.823  11.205 -0.0630 -0.0868  0.3199
 7592W        W24439   5.189   8.449   4.096  0.0256 -0.2962 -0.1137
 7593W        W24440   1.766  12.336   3.703 -0.1324  0.1513  0.0146
 7594W        W24441   0.015   3.247   1.951 -0.1729  0.1133 -0.1066
 7595W        W24442   5.328   0.960   1.797  0.2071 -0.0142  0.2345
 7596W        W24443  16.253  12.794  10.477  0.0369  0.0082 -0.2722
 7597W        W24444   2.050  14.482  14.975 -0.0368  0.0282 -0.0933
 7598W        W24445  17.932   9.723  12.976 -0.2282 -0.2224 -0.2182
 7599W        W24446   2.560   3.783   1.577 -0.1003  0.1142  0.2317
 7600W        W24447   2.110  12.029  11.435 -0.1216 -0.4006  0.2800
 7601W        W24448   6.065  13.778   3.319 -0.0589 -0.1896 -0.0526
 7602W        W24449  13.610   9.453   1.304  0.1109 -0.0741  0.1376
 7603W        W24450  10.631   0.704   2.058  0.1139  0.0272 -0.1568
 7604W        W24451  16.807  18.825   5.327  0.1066  0.0720  0.0388
 7605W        W24452  17.922   6.812   2.771 -0.2890  0.0734  0.1518
 7606W        W24453  17.287  13.533   4.243 -0.0099 -0.0236 -0.1743
 7607W        W24454  17.488  16.657   0.143 -0.0154  0.2595 -0.1477
 7608W        W24455  16.493   0.564   4.681 -0.0890 -0.0486 -0.3498
 7609W        W24456  16.710  14.294   3.712 -0.0307 -0.0531 -0.0580
 7610W        W24457  14.777   4.949   1.692  0.2393 -0.0638 -0.0292
 7611W        W24458  17.212   2.329  13.057 -0.1638  0.3832 -0.2009
 7612W        W24459  13.156  10.253  14.443 -0.0296  0.1962 -0.1834
 7613W        W24460  10.775   9.783   0.055 -0.0622 -0.1823 -0.0913
 7614W        W24461  16.286  19.219  10.338 -0.1474  0.0923 -0.4964
 7615W        W24462  12.185  11.077   3.862 -0.0675  0.1729 -0.1134
 7616W        W24463   5.653   6.936   1.823  0.1354 -0.0279  0.1277
 7617W        W24464  12.626  14.344  13.313 -0.0830  0.4849  0.2069
 7618W        W24465  14.445   7.285   2.531 -0.1313  0.0781 -0.4209
 7619W        W24466   9.315   8.774  14.971 -0.2457 -0.1885  0.2659
 7620W        W24467  12.642   5.808  14.318  0.0167  0.0559 -0.1052
 7621W        W24468  14.489   7.587  14.764  0.3510 -0.4315  0.2258
 7622W        W24469  17.591  13.098  12.244 -0.2491 -0.4311  0.2292
 7623W        W24470  15.071   7.634  14.035  0.1798  0.0996 -0.0326
 7624W        W24471  19.099   3.309   0.703 -0.2980 -0.4588  0.0131
 7625W        W24472   7.927  11.512  14.051  0.1117  0.3532 -0.0660
 7626W        W24473  12.296   7.599   4.364 -0.1693 -0.0500 -0.2738
 7627W        W24474  10.967  18.765   1.276  0.0205 -0.1093 -0.4324
 7628W        W24475   4.708  16.358  12.370 -0.1688 -0.2019  0.0633
 7629W        W24476   5.249  16.803   1.490  0.0482 -0.2563 -0.2512
 7630W        W24477  15.572  11.009   4.821 -0.2595 -0.4461  0.1013
 7631W        W24478   0.645   7.018  11.831 -0.0566  0.0755 -0.2214
 7632W        W24479   6.426  11.297  11.570 -0.0790  0.0967 -0.2697
 7633W        W24480   8.640  13.805   4.295  0.2329 -0.0655 -0.0702
 7634W        W24481   6.872  16.462  11.729 -0.0260 -0.0571  0.0074
 7635W        W24482   2.635   4.002  10.587 -0.1121  0.1422 -0.1542
 7636W        W24483  16.249   8.919  11.646  0.0062 -0.1570 -0.0265
 7637W        W24484   6.213  18.335   4.667 -0.0265  0.0313  0.0181
 7638W        W24485  11.811  10.471  13.574  0.0675 -0.0645 -0.0799
 7639W        W24486   0.451   7.385   1.704 -0.2213  0.0009  0.2204
 7640W        W24487  10.236  18.892   2.945  0.0276  0.0028  0.1253
 7641W        W24488  15.249  17.662   4.283 -0.0810 -0.0169  0.1693
 7642W        W24489   7.025   7.771  10.349  0.1176 -0.0147 -0.0802
 7643W        W24490  17.458  10.108   4.522  0.0452  0.1450 -0.0108
 7644W        W24491  13.122  14.454  12.309  0.0086  0.3101  0.1585
 7645W        W24492  15.257   6.096   1.248  0.0094 -0.0038 -0.0881
 7646W        W24493   2.793  16.240   4.027  0.5574  0.2226 -0.1254
 7647W        W24494   4.875   1.158  11.143 -0.3255  0.0008 -0.1501
 7648W        W24495  12.921  14.297   3.613  0.0564  0.1332  0.0817
 7649W        W24496   9.739   9.659  14.844  0.1552 -0.0173  0.0544
 7650W        W24497   7.241   0.334  10.532  0.2617  0.1989  0.0150
 7651W        W24498  15.000  15.637   3.219 -0.0581 -0.1020 -0.1424
 7652W        W24499  16.568  19.240   5.358 -0.0142 -0.0196 -0.2619
 7653W        W24500   7.406  18.154  14.610  0.2094  0.0942 -0.2650
 7654W        W24501   3.602   4.875   3.016  0.1952 -0.0834  0.3237
 7655W        W24502   5.307  16.911   4.710  0.0036 -0.0885  0.0251
 7656W        W24503   6.119  10.285  13.970 -0.1604  0.1618 -0.4365
 7657W        W24504   8.442  16.157   1.971  0.1862 -0.1729  0.0016
 7658W        W24505   2.150   4.420   0.175 -0.2506  0.0242 -0.0245
 7659W        W24506  11.235   0.431   3.442 -0.0077  0.1051  0.0087
 7660W        W24507   9.223   7.700   1.952 -0.1054  0.0827 -0.0013
 7661W        W24508  13.431   5.004   3.439 -0.1709 -0.0254 -0.0629
 7662W        W24509   6.296  19.075   3.876  0.0079  0.2640  0.0814
 7663W        W24510  14.271   9.561   5.101  0.1153 -0.0732 -0.2283
 7664W        W24511  10.891  18.675   3.719 -0.0149  0.1596  0.1308
 7665W        W24512   0.127  18.924  14.292  0.0776 -0.3500 -0.0614
 7666W        W24513  11.900  12.768   4.101  0.0254 -0.1478  0.2156
 7667W        W24514  18.658  17.895   4.788 -0.1463 -0.0979  0.1219
 7668W        W24515   8.709  18.864  11.249  0.0882 -0.1999  0.1646
 7669W        W24516   7.850   9.663  13.849  0.1797 -0.1594  0.0503
 7670W        W24517  13.814  15.863   6.176  0.0935 -0.0674  0.2009
 7671W        W24518  12.786  13.490   4.698  0.3394  0.2167 -0.1814
 7672W        W24519   2.662   5.314   2.542 -0.0618  0.2748 -0.1739
 7673W        W24520   0.441  13.644  14.081  0.0509  0.0479  0.2158
 7674W        W24521   7.581   6.133  10.342  0.2410  0.1144 -0.0146
 7675W        W24522  15.354   5.021  14.693 -0.0913 -0.0317 -0.2950
 7676W        W24523  11.431   8.539   4.046  0.2348 -0.2692  0.0155
 7677W        W24524   6.676   0.606   3.440 -0.1050  0.0076  0.1404
 7678W        W24525  11.849   3.124  11.915  0.1475 -0.1990 -0.5465
 7679W        W24526   5.180  16.357  12.257  0.3402  0.2577 -0.1378
 7680W        W24527   1.582   7.443  10.819  0.1598 -0.0006 -0.0889
 7681W        W24528   0.005   8.857  13.891  0.1569  0.0218 -0.0027
 7682W        W24529  13.691   1.219  10.706 -0.2885 -0.0178 -0.2717
 7683W        W24530  15.788   3.777   5.024 -0.2982  0.0239  0.0208
 7684W        W24531   8.193  15.676  13.238 -0.1725 -0.0238 -0.1544
 7685W        W24532   5.968  14.755  11.863  0.0198 -0.3106  0.1545
 7686W        W24533  13.309  14.554  10.873 -0.3976 -0.1503  0.1018
 7687W        W24534   0.096  16.201  10.904  0.0612 -0.3911  0.0095
 7688W        W24535  10.032   7.550  13.016 -0.0660 -0.3367  0.1006
 7689W        W24536   4.122   6.240   1.764 -0.0566 -0.0363 -0.0965
 7690W        W24537   2.265  17.066   0.975 -0.2458  0.2688  0.2211
 7691W        W24538   7.405   9.795   3.758  0.0374 -0.0876 -0.2744
 7692W        W24539   4.185  16.807  11.292 -0.1740  0.3468 -0.0411
 7693W        W24540   8.187   7.580  13.526 -0.1848 -0.0473 -0.2344
 7694W        W24541  16.910   7.013  14.759 -0.2252  0.1425  0.2228
 7695W        W24542  10.609   6.634  14.861 -0.1862 -0.1469 -0.0449
 7696W        W24543   6.445  17.235  12.628 -0.0870  0.1107 -0.2488
 7697W        W24544  12.558  13.838  11.056  0.0971 -0.2426 -0.1202
 7698W        W24545  18.590  12.235  12.745  0.2378 -0.1290 -0.2846
 7699W        W24546   5.771   5.809   0.410 -0.0497 -0.0526  0.3452
 7700W        W24547  18.616   2.569  13.173  0.0915  0.2461  0.1466
 7701W        W24548  11.096   1.864   3.611  0.1029 -0.1475  0.0533
 7702W        W24549  13.569  12.795  14.153 -0.1876  0.2278 -0.1475
 7703W        W24550   1.116   3.239  11.230 -0.0612 -0.0424 -0.1629
 7704W        W24551  10.509   1.414  12.128  0.0513 -0.2699 -0.2660
 7705W        W24552   0.433  11.436  14.961 -0.0350  0.0041 -0.2889
 7706W        W24553  13.543   5.901   0.436 -0.0220 -0.1885 -0.0316
 7707W        W24554  12.685   9.470   1.545  0.2857  0.5495 -0.2806
 7708W        W24555  13.262   8.949   5.184  0.2467  0.0772  0.2024
 7709W        W24556   1.793   2.461   4.032 -0.1221 -0.1860 -0.1247
 7710W        W24557   7.285   5.988  11.760 -0.0270 -0.0951 -0.0785
 7711W        W24558   0.639  10.331  14.243  0.1189  0.0032 -0.1624
 7712W        W24559   7.389   1.037  12.041  0.0584 -0.1362  0.1038
 7713W        W24560  17.380   0.094  11.941  0.3836 -0.1998  0.0679
 7714W        W24561   0.444  16.373   3.115  0.0347  0.2216 -0.1875
 7715W        W24562  16.656   3.571  14.277 -0.0200 -0.2460 -0.0702
 7716W        W24563   0.837  18.523   3.270  0.2466  0.0238 -0.2095
 7717W        W24564  17.393   0.827   0.226  0.0152  0.0193  0.0252
 7718W        W24565  18.243   4.118  13.146  0.1410  0.3941  0.1203
 7719W        W24566   7.622   7.459   2.053 -0.4058  0.4377  0.0363
 7720W        W24567  13.405  15.711  12.432  0.0679  0.1824 -0.1487
 7721W        W24568   2.356  11.938  13.551 -0.1504  0.1062  0.1339
 7722W        W24569   0.088   8.625   5.668  0.0680 -0.0999  0.2523
 7723W        W24570  13.761   5.631   5.228  0.0136 -0.0140 -0.0391
 7724W        W24571  12.883   3.986  14.492 -0.3320  0.3096 -0.0809
 7725W        W24572  19.131  12.283  10.821  0.2520  0.1414 -0.0602
 7726W        W24573  12.357  14.338  10.940  0.1923  0.0220 -0.1481
 7727W        W24574  18.286  18.301   2.049  0.0543 -0.3220 -0.3962
 7728W        W24575  10.259   2.850   1.623 -0.0630 -0.1323 -0.1941
 7729W        W24576   4.287   1.055  13.474  0.1940  0.0697 -0.1887
 7730W        W24577   0.126  13.707  13.239 -0.1102  0.0974  0.0157
 7731W        W24578   4.098   3.159  12.984 -0.0321 -0.1564  0.0562
 7732W        W24579   6.136   7.986  12.258  0.0870 -0.2178 -0.1319
 7733W        W24580   6.214  19.142  10.917 -0.0969 -0.2837 -0.0818
 7734W        W24581   3.391  13.387   0.639  0.3920 -0.0782  0.3117
 7735W        W24582   4.623   4.522   1.595  0.2863 -0.0521  0.0512
 7736W        W24583   6.126  11.877   2.995 -0.0824 -0.3543 -0.0086
 7737W        W24584  13.105  13.918   3.296  0.3409 -0.0721 -0.1049
 7738W        W24585  18.282  10.625   1.328  0.1092  0.2282 -0.3754
 7739W        W24586  14.210  12.664  12.996 -0.0483  0.2112  0.2026
 7740W        W24587  15.039   4.686   0.353 -0.0332  0.0839  0.0161
 7741W        W24588  11.212   4.666  10.841  0.1868 -0.0531 -0.1430
 7742W        W24589  13.627   3.027  13.293 -0.1916  0.1157 -0.1558
 7743W        W24590   1.430   5.902   9.915 -0.2469  0.0121 -0.2711
 7744W        W24591   9.466   4.419  10.232  0.2027  0.1613 -0.0297
 7745W        W24592   4.162  13.193   2.758  0.1535  0.2002  0.0709
 7746W        W24593  11.916  17.932  12.807  0.0262 -0.0185 -0.0545
 7747W        W24594  13.827   6.526  13.238  0.0024  0.1064  0.2062
 7748W        W24595   9.288   7.419   0.254 -0.3202 -0.0439  0.0747
 7749W        W24596  10.393  17.052   4.595 -0.3525  0.1143 -0.1229
 7750W        W24597   4.750   8.819   2.318  0.0773  0.1720  0.1270
 7751W        W24598  10.718   3.794   1.535 -0.0767  0.1184  0.1221
 7752W        W24599   9.773  11.149   1.179  0.1238  0.0195 -0.2430
 7753W        W24600   6.453  16.336   0.373  0.0672  0.1912 -0.1735
 7754W        W24601  16.333   4.958   0.588 -0.0915 -0.2297  0.2651
 7755W        W24602   1.976   7.201  13.441  0.1387 -0.0384 -0.2555
 7756W        W24603  16.913  13.760  10.194 -0.1276  0.1791 -0.2033
 7757W        W24604   6.781  16.884   4.069  0.3451  0.2100  0.3402
 7758W        W24605  12.809  17.347   3.116 -0.0381  0.3741 -0.0695
 7759W        W24606  13.706   6.986  13.381  0.3317  0.1162  0.0220
 7760W        W24607   4.828  13.072   2.602 -0.2433 -0.1593  0.0724
 7761W        W24608  19.113   0.024   1.369 -0.0245 -0.0221  0.0675
 7762W        W24609   3.455  15.306  14.540 -0.2783 -0.0083 -0.1354
 7763W        W24610  11.346  14.162   2.820  0.1953 -0.1488  0.0218
 7764W        W24611   4.153   9.889  14.925  0.2567 -0.1411  0.0613
 7765W        W24612   9.972   6.892   1.358 -0.0810 -0.1415  0.1610
 7766W        W24613   7.743  15.293   2.983 -0.1376 -0.0627  0.1170
 7767W        W24614  17.284   3.365   9.470 -0.0144 -0.2573 -0.2617
 7768W        W24615  16.030  16.502  14.624 -0.0937 -0.0068 -0.0350
 7769W        W24616   4.475  14.489   1.492  0.3495  0.0324 -0.0582
 7770W        W24617   7.890  19.229  14.495  0.1394  0.1467  0.0961
 7771W        W24618   1.328  13.142   4.414 -0.0774  0.1358 -0.2289
 7772W        W24619  17.329  14.715   4.491  0.3443 -0.0952  0.0402
 7773W        W24620  11.966   6.368  14.501 -0.1864  0.0631  0.0519
 7774W        W24621  17.459  15.606  12.619  0.2771  0.2829 -0.1228
 7775W        W24622  15.183   2.707   4.287  0.1345 -0.1026  0.2904
 7776W        W24623  11.299  13.596   1.484 -0.0954  0.1317 -0.0241
 7777W        W24624  18.990   4.499   9.546 -0.1616  0.1898 -0.1482
 7778W        W24625   1.314   9.964  11.480 -0.1245 -0.0840  0.0767
 7779W        W24626   1.651  12.530  10.745 -0.1923 -0.1755  0.4903
 7780W        W24627   8.016   3.726  11.075 -0.0398  0.2777 -0.0944
 7781W        W24628  15.890  14.182  14.007  0.1394  0.1163  0.0879
 7782W        W24629   6.698  14.468  10.724 -0.0731 -0.0741  0.1149
 7783W        W24630  16.072   9.863  14.009 -0.0206 -0.0874  0.0228
 7784W        W24631  15.448   7.475   0.924  0.4272  0.0947  0.2567
 7785W        W24632  10.502  15.401   2.747  0.0565 -0.0875 -0.3260
 7786W        W24633   1.848  12.478  12.604 -0.1187  0.3184  0.1624
 7787W        W24634   9.843   4.891   3.461 -0.0555  0.1889 -0.1115
 7788W        W24635   0.618  11.290  12.664 -0.2041  0.0165 -0.2270
 7789W        W24636   4.103  16.316  14.492  0.4157 -0.1668 -0.1260
 7790W        W24637  16.561   6.106  12.859  0.3549  0.2916 -0.0175
 7791W        W24638  16.604  17.551   0.805  0.1397 -0.0852  0.0276
 7792W        W24639   7.934  12.915  11.692  0.0294  0.1248  0.1917
 7793W        W24640  15.117  10.316  11.283 -0.0534  0.1614  0.1712
 7794W        W24641   8.899   2.378   2.564  0.0631 -0.0355  0.0980
 7795W        W24642   7.358   4.805  11.033 -0.1428  0.0588  0.2141
 7796W        W24643   1.783  13.615   2.325 -0.0705  0.0361 -0.1833
 7797W        W24644   4.751  11.354  11.104  0.0685 -0.2508  0.0861
 7798W        W24645  10.853  12.985   4.246 -0.0723 -0.0691 -0.0083
 7799W        W24646   4.135  16.601   3.346  0.0840 -0.0741  0.2283
 7800W        W24647  17.245   7.349   0.924  0.2503  0.0086 -0.3784
 7801W        W24648   0.550   9.979   0.934 -0.0282  0.2927 -0.1979
 7802W        W24649  14.845  19.188   4.535  0.1934 -0.0641 -0.2158
 7803W        W24650  10.059  13.095  13.576 -0.1845  0.3048  0.1735
 7804W        W24651  10.110  17.518   4.961  0.1467 -0.1921  0.1067
 7805W        W24652   6.436  15.746  11.223  0.0842 -0.2599  0.3742
 7806W        W24653   7.495   7.642  13.435  0.1248 -0.1581  0.0161
 7807W        W24654   4.217   6.757   0.233  0.0454 -0.1500 -0.0518
 7808W        W24655  15.068  14.263   0.018 -0.2679 -0.1099  0.3808
 7809W        W24656  14.159  16.226  11.894  0.1004 -0.0660 -0.1719
 7810W        W24657  13.835   2.334   3.349  0.2722 -0.2818 -0.2310
 7811W        W24658  16.349  13.649  14.036 -0.0696 -0.2103 -0.1922
 7812W        W24659  14.161   8.003  11.322 -0.1686 -0.1431  0.1604
 7813W        W24660  14.394   0.926   2.348  0.1565  0.0320 -0.2052
 7814W        W24661   7.126  17.866  14.901 -0.1374  0.4252 -0.3974
 7815W        W24662  11.897  13.498  12.041  0.0324 -0.0413  0.3664
 7816W        W24663  14.129   6.667  11.863  0.0092  0.2830  0.3091
 7817W        W24664  19.188  16.870   1.314 -0.0954 -0.0695  0.0014
 7818W        W24665   4.462  17.763  10.110 -0.2206 -0.2944  0.1057
 7819W        W24666   5.827   1.797   1.818  0.1450 -0.2443 -0.1663
 7820W        W24667   1.182  12.720   4.120 -0.2414  0.0655  0.1877
 7821W        W24668   2.359  17.075   2.535 -0.3622  0.1338  0.3074
 7822W        W24669  17.892   6.358  10.891 -0.1801 -0.3376 -0.0696
 7823W        W24670   7.729  10.951  11.111 -0.1031 -0.1301 -0.0235
 7824W        W24671  11.596   8.774   5.256  0.0171 -0.1016  0.1054
 7825W        W24672  10.900   0.503  11.327  0.0975 -0.0372  0.1119
 7826W        W24673   3.510  10.390   1.168  0.3041  0.0220  0.0270
 7827W        W24674  16.299   3.347   4.226 -0.2508  0.0138  0.1700
 7828W        W24675   1.232   5.838   4.463  0.1872 -0.0146  0.1411
 7829W        W24676   2.866   7.339   2.899  0.1040  0.0286  0.0458
 7830W        W24677   2.595   4.664   1.358  0.0579  0.1520  0.0705
 7831W        W24678   8.577   0.982   0.632  0.0678  0.1816  0.1481
 7832W        W24679   6.962   1.090   4.400  0.0509  0.1349  0.1980
 7833W        W24680  16.024  11.630   2.758  0.3715 -0.0125 -0.2502
 7834W        W24681  18.214  12.263   1.064  0.0272  0.2784 -0.0421
 7835W        W24682   1.051   6.398   1.160 -0.1044 -0.1996 -0.1676
 7836W        W24683   5.322  13.593  13.191 -0.2291  0.1173 -0.1049
 7837W        W24684  12.219  19.136   4.862  0.0064  0.3426  0.2017
 7838W        W24685   8.446  13.000   2.491  0.1155  0.0354  0.0879
 7839W        W24686   1.354  14.873   2.294 -0.1203  0.1874 -0.3015
 7840W        W24687   6.923   5.331  13.493 -0.0567  0.0437  0.1498
 7841W        W24688   6.377   3.299  11.600  0.1341 -0.2289  0.0721
 7842W        W24689  14.823  10.433  10.542  0.0416  0.3046  0.1592
 7843W        W24690  16.375  14.300  14.991 -0.0189 -0.1091 -0.0173
 7844W        W24691   4.170  17.095  14.022  0.5308  0.1110  0.0412
 7845W        W24692   8.379  12.786   2.935 -0.1202  0.1504 -0.0654
 7846W        W24693   8.193  13.402  13.394 -0.1722 -0.0230  0.2943
 7847W        W24694  10.191  19.249  11.613  0.1100  0.0118 -0.3316
 7848W        W24695  10.007  18.401  13.040 -0.0940  0.1130  0.2575
 7849W        W24696  12.027   5.236   2.773  0.0761  0.0379 -0.2114
 7850W        W24697   6.616   0.861   0.843  0.1288  0.0400 -0.4248
 7851W        W24698   4.190  15.431  14.013 -0.1452  0.0098 -0.1115
 7852W        W24699   7.714   1.043   0.478 -0.0977 -0.2708 -0.0982
 7853W        W24700   2.183   7.330   1.312  0.1000  0.1775 -0.2112
 7854W        W24701  14.714  19.151  10.972 -0.3705  0.0797 -0.0994
 7855W        W24702   6.158  17.645   3.863  0.0944 -0.2178  0.0997
 7856W        W24703  11.418   0.709   3.816 -0.1054  0.3023 -0.2367
 7857W        W24704  11.437   9.412   1.768  0.1415 -0.0217  0.1523
 7858W        W24705   0.220   4.586  11.775 -0.1012 -0.4105  0.0222
 7859W        W24706   1.006  16.615   4.029  0.1373 -0.0760 -0.1340
 7860W        W24707   3.738   1.757  12.126 -0.2214 -0.1552 -0.0917
 7861W        W24708   2.913   3.676  13.782 -0.1499  0.3374 -0.0441
 7862W        W24709  11.127   1.858   0.789  0.1802 -0.1814 -0.0377
 7863W        W24710  15.375   9.439   4.226  0.0847  0.0848 -0.0394
 7864W        W24711  11.728   1.527   2.221 -0.1649 -0.2541 -0.1788
 7865W        W24712   2.091  16.130  13.334 -0.1405  0.2352  0.3753
 7866W        W24713  14.964   8.855   1.649 -0.1088  0.1125  0.1203
 7867W        W24714   4.915   2.716   0.024  0.1697 -0.1192 -0.1368
 7868W        W24715   7.749  17.460   2.565  0.1031  0.1859  0.1199
 7869W        W24716   5.821  10.885  12.332  0.0074 -0.2060  0.0130
 7870W        W24717   4.900  17.147   3.080  0.2773  0.1014 -0.0981
 7871W        W24718  11.812   8.481  14.449 -0.2797 -0.1576  0.2007
 7872W        W24719  13.532   2.487   0.425 -0.2257 -0.0475  0.1492
 7873W        W24720   4.976   1.923   5.100  0.4069  0.3825 -0.0499
 7874W        W24721   7.067  13.289   1.072  0.1382  0.1865  0.0485
 7875W        W24722   7.133   8.492   9.163  0.1352  0.2589  0.0409
 7876W        W24723  13.681  13.849  12.352 -0.0820 -0.1174 -0.1711
 7877W        W24724  15.518  11.243   3.905 -0.2489 -0.0053 -0.0603
 7878W        W24725  18.167   0.209   2.493 -0.4270 -0.1996 -0.0554
 7879W        W24726  12.765  15.439   4.174 -0.2821  0.1720 -0.0807
 7880W        W24727  16.213   5.436   3.730 -0.0001 -0.3524 -0.2239
 7881W        W24728   2.058  13.097  13.977  0.1547  0.2689 -0.1329
 7882W        W24729  16.224   0.753   0.687  0.0337  0.1440  0.1800
 7883W        W24730  16.963   1.278   3.617  0.1118 -0.3476  0.0464
 7884W        W24731  11.388   5.870  12.957 -0.2381  0.0790  0.0302
 7885W        W24732   8.596  16.224   5.003 -0.1953 -0.0103  0.1810
 7886W        W24733  17.718  12.487  14.549 -0.1611 -0.1237  0.0456
 7887W        W24734   0.924   4.507  13.419 -0.1216  0.1155  0.0167
 7888W        W24735  10.236   6.701   0.103 -0.1011  0.0896 -0.2356
 7889W        W24736   8.406   1.880  13.618  0.2316 -0.0171 -0.0220
 7890W        W24737  10.969   7.838  11.441  0.1308 -0.0395 -0.1223
 7891W        W24738  17.068  14.814  10.526  0.1240 -0.4023  0.0069
 7892W        W24739  15.086   6.500   4.261 -0.1681 -0.2164  0.0715
 7893W        W24740   8.182   0.729  12.317  0.2515 -0.1908  0.1528
 7894W        W24741   4.425   3.137   3.996 -0.1605  0.1141 -0.0486
 7895W        W24742  10.004   6.277   0.838  0.0929 -0.0360 -0.1885
 7896W        W24743   7.058  16.084  11.430  0.0991  0.0407  0.0426
 7897W        W24744  14.297   2.358   2.580  0.0154 -0.1552 -0.1364
 7898W        W24745  16.699  13.137   1.647 -0.2066  0.2548  0.1602
 7899W        W24746  11.548  15.937  10.988 -0.3012 -0.1193  0.1175
 7900W        W24747   4.801   0.620  13.171  0.0186  0.0790  0.2507
 7901W        W24748  15.952   9.329   3.560 -0.0276  0.4172 -0.0849
 7902W        W24749  15.313   7.422   4.751 -0.0232 -0.3571 -0.1151
 7903W        W24750   0.677  13.654  14.958  0.1685  0.0525 -0.0314
 7904W        W24751   9.323   8.323  11.801  0.0298  0.0819  0.0676
 7905W        W24752   2.308   2.904   3.665  0.0985  0.0040  0.0698
 7906W        W24753  15.606   6.732  13.899 -0.4248 -0.0121  0.1210
 7907W        W24754   0.895   1.923   4.249 -0.1244 -0.1607 -0.1252
 7908W        W24755  12.990  17.080   2.703 -0.2000 -0.1149  0.0048
 7909W        W24756  14.110  13.132  13.287  0.2831 -0.0677  0.0043
 7910W        W24757   5.131   2.486  11.771  0.0783  0.3569 -0.0292
 7911W        W24758  17.067  14.120   1.392  0.1420  0.1418  0.4504
 7912W        W24759  10.095   1.463   1.591 -0.1290  0.0876 -0.1034
 7913W        W24760   7.899   1.432   0.743 -0.1790  0.0642  0.0760
 7914W        W24761  15.379  18.852   5.333  0.3652  0.1302 -0.0246
 7915W        W24762  12.679  15.048   2.988  0.0227 -0.2297 -0.1162
 7916W        W24763  16.132  16.364   3.050 -0.0871  0.5318  0.0212
 7917W        W24764   4.795   8.915  14.563  0.0551  0.0456 -0.2111
 7918W        W24765  13.460   7.283  11.455 -0.0584  0.0426  0.2777
 7919W        W24766  15.226  18.201  14.619  0.1701 -0.1394  0.2799
 7920W        W24767  13.607  12.082   3.387  0.2097  0.0100 -0.3703
 7921W        W24768   9.429   8.877  10.613 -0.1442 -0.1764  0.1482
 7922W        W24769   7.952  17.534   4.393  0.2402  0.0445  0.1393
 7923W        W24770   4.573   5.695  13.614 -0.2528 -0.0169  0.0813
 7924W        W24771   3.159   2.790   3.940  0.2860  0.0416 -0.1782
 7925W        W24772  17.169  15.506   3.519  0.2052  0.2189  0.0244
 7926W        W24773   7.533  17.548  10.383 -0.2063  0.3198 -0.1914
 7927W        W24774  16.517  14.772  13.282  0.3170  0.0278  0.0123
 7928W        W24775   3.536   9.555   2.241 -0.0294 -0.3167  0.0765
 7929W        W24776   7.428   9.003   0.590  0.0023  0.1704  0.2438
 7930W        W24777   0.690  15.941   0.848  0.0423 -0.1881  0.0969
 7931W        W24778  15.723   9.857   1.349  0.1064  0.2820  0.0001
 7932W        W24779  16.337   4.087  10.886 -0.1587 -0.0635 -0.0102
 7933W        W24780   4.625   0.189  12.970 -0.2678 -0.0153 -0.1064
 7934W        W24781   1.219  15.552  10.990 -0.2042 -0.1615  0.1599
 7935W        W24782   2.373  16.640   3.329  0.1062 -0.1202  0.0922
 7936W        W24783   5.448   1.580  14.232  0.1514 -0.0836  0.2800
 7937W        W24784  18.702   1.173  11.200  0.1860  0.2198  0.3590
 7938W        W24785  12.439  13.553  14.524  0.0068  0.1413 -0.0061
 7939W        W24786   9.420   9.345  11.772  0.3190 -0.0045  0.4244
 7940W        W24787  11.915   8.492  13.961 -0.0131  0.2417 -0.0252
 7941W        W24788  12.888  14.982   1.457 -0.0253 -0.4920  0.0777
 7942W        W24789   3.286  18.009  10.226  0.0669 -0.1960 -0.0247
 7943W        W24790  14.875   0.004   1.563 -0.1099  0.0156  0.0463
 7944W        W24791  18.217  14.806  13.353  0.1170 -0.0596 -0.1420
 7945W        W24792  12.244   1.649   2.246 -0.0574  0.0702 -0.4397
 7946W        W24793  15.009   5.251   3.470  0.0638  0.4003 -0.1868
 7947W        W24794  10.450  14.733   4.483  0.2774 -0.0853  0.1159
 7948W        W24795  18.372   1.772   4.338  0.0322  0.1352  0.0651
 7949W        W24796  11.675   0.616   2.703  0.4731  0.0845 -0.0865
 7950W        W24797   4.885   0.099  11.260  0.1716  0.2505  0.0818
 7951W        W24798  18.823  16.475  13.921  0.1911  0.0615 -0.2074
 7952W        W24799  14.320   0.940   1.796  0.1242 -0.2459  0.3559
 7953W        W24800   6.533   4.531  14.068 -0.0427  0.1555  0.0607
 7954W        W24801   7.502   8.114   4.509 -0.1501  0.0081 -0.1694
 7955W        W24802  17.255  11.177  14.522 -0.3961 -0.2962 -0.0124
 7956W        W24803  15.728  15.822  12.649 -0.0284  0.1583  0.1507
 7957W        W24804   7.875   1.164   2.824  0.0029 -0.2770  0.1033
 7958W        W24805  18.913  13.372   4.789  0.1891  0.1447 -0.3509
 7959W        W24806   5.902   8.983   1.756  0.2101 -0.0940 -0.3381
 7960W        W24807   5.565   8.284   0.779  0.0040  0.2382  0.0775
 7961W        W24808   1.701  16.708  12.011  0.0750 -0.2553  0.1518
 7962W        W24809   1.140  14.689  14.449  0.2164 -0.3636 -0.2579
 7963W        W24810   1.394   3.171   0.315 -0.0382 -0.0043 -0.2299
 7964W        W24811  15.419  11.180  14.583 -0.0355  0.1463  0.0768
 7965W        W24812  17.290  11.944   1.984 -0.3538 -0.2299 -0.3397
 7966W        W24813  18.835  12.741  13.611  0.0358  0.2665 -0.1404
 7967W        W24814  18.159  17.418  13.405  0.0140  0.2143 -0.1615
 7968W        W24815   1.819  17.288   3.388  0.0059  0.1334 -0.0324
 7969W        W24816  18.111  12.278  11.719 -0.0864 -0.1871 -0.1642
 7970W        W24817  18.164  11.359  12.642  0.2531 -0.1758  0.1459
 7971W        W24818   0.766   2.431  12.020 -0.0828  0.0986  0.0315
 7972W        W24819   0.405  16.348  12.276  0.1922 -0.0418 -0.2050
 7973W        W24820  13.946  10.075   3.410 -0.2254  0.2475  0.0569
 7974W        W24821   3.905   9.971  10.475 -0.3733  0.0763  0.0419
 7975W        W24822   7.939  11.545   0.010  0.4547 -0.1184 -0.1498
 7976W        W24823   5.935  14.331   3.772 -0.1535  0.0637  0.0912
 7977W        W24824  17.957  17.195   5.230  0.1465  0.1839 -0.1237
 7978W        W24825  13.660   8.670   5.004  0.1455 -0.0488  0.0457
 7979W        W24826   1.739  14.084   0.057 -0.1582 -0.0530 -0.0243
 7980W        W24827  11.957  15.105   2.621  0.0015  0.0613 -0.0068
 7981W        W24828   9.134  15.891   2.396  0.0332  0.0825 -0.3491
 7982W        W24829  16.485  13.386   3.308  0.1798 -0.2509  0.0562
 7983W        W24830  18.171   9.639  13.472  0.0712  0.2868 -0.0065
 7984W        W24831   2.406   7.817  12.791 -0.1412 -0.1212 -0.1614
 7985W        W24832   1.826  15.814   2.542 -0.2381 -0.0082 -0.1671
 7986W        W24833  17.306   9.784  13.036  0.1548 -0.0844  0.1854
 7987W        W24834   2.124  10.824   1.420  0.1420  0.1642  0.4245
 7988W        W24835   8.739  10.540  13.566  0.1607  0.0693 -0.0355
 7989W        W24836   0.286   4.454  12.314  0.2224 -0.1999  0.1258
 7990W        W24837   2.038   3.191  13.459 -0.0844 -0.2714 -0.7255
 7991W        W24838   3.652   9.454  14.111  0.0558 -0.2611 -0.0346
 7992W        W24839   1.033   0.581   5.868 -0.0438 -0.2384  0.0165
 7993W        W24840   6.698  11.104   3.990  0.4056 -0.1782  0.3566
 7994W        W24841   0.037  11.766  14.349  0.0457  0.0621  0.0417
 7995W        W24842   2.631  12.880  14.551 -0.0618  0.0732 -0.0601
 7996W        W24843  12.839  11.605  13.985 -0.0033 -0.0719  0.2828
 7997W        W24844   0.640   7.732  13.472 -0.0185 -0.3212  0.1907
 7998W        W24845   1.464   6.338   4.578  0.0084  0.0958  0.0661
 7999W        W24846  15.640  11.706  14.779  0.0450 -0.2975  0.0911
 8000W        W24847   4.472   1.051  14.245  0.1752  0.3711 -0.1109
 8001W        W24848  11.403  18.375   2.913 -0.2343  0.3608  0.2922
 8002W        W24849  13.681   3.362  12.273 -0.3410  0.1194 -0.0133
 8003W        W24850   9.963  14.637  13.009  0.1624 -0.2153  0.1357
 8004W        W24851   8.805   9.779   3.450  0.2134  0.2249 -0.1071
 8005W        W24852   0.694   7.441   4.451  0.3274  0.0796  0.0870
 8006W        W24853   6.417   8.408   5.284  0.1302  0.0336 -0.1533
 8007W        W24854  10.113   2.405  14.595  0.0910 -0.2162  0.3311
 8008W        W24855   3.141  12.381  10.878 -0.5346 -0.2572  0.1934
 8009W        W24856   9.245  16.492   4.375  0.2373 -0.0290 -0.4106
 8010W        W24857  11.064  12.505   4.774  0.2565 -0.0416  0.1214
 8011W        W24858  13.419   9.783  12.612  0.0330  0.2434 -0.1904
 8012W        W24859   8.638   4.393   0.702 -0.3461  0.2959 -0.0448
 8013W        W24860  16.569  10.893   2.499 -0.1038 -0.0225  0.0102
 8014W        W24861   9.897   6.282   3.829 -0.1542  0.3002  0.0083
 8015W        W24862  18.914  13.683  13.389 -0.1005 -0.1109  0.1323
 8016W        W24863   9.578   5.797  10.818  0.0992  0.0398  0.1554
 8017W        W24864  14.640   5.746   0.501 -0.3508  0.1067  0.2808
 8018W        W24865   6.450  11.318   1.265 -0.1609  0.1042  0.2763
 8019W        W24866  10.868  12.550   0.917 -0.3133  0.1797 -0.0465
 8020W        W24867   1.438  15.903  10.492 -0.1708  0.1985  0.1750
 8021W        W24868   6.990   9.421  14.186 -0.0894  0.4485 -0.0358
 8022W        W24869   2.926  13.818   1.431 -0.1815 -0.2408  0.2447
 8023W        W24870  17.166  15.547  14.000 -0.1460  0.0084 -0.0583
 8024W        W24871   2.800  10.922   2.537  0.0112  0.2184  0.1009
 8025W        W24872  16.908  14.170  11.631  0.3015  0.0908 -0.4357
 8026W        W24873  12.891  11.195  14.321 -0.0604 -0.1921  0.2314
 8027W        W24874   0.828   0.253   0.022  0.0671 -0.0210 -0.0712
 8028W        W24875  16.448  15.124   4.167  0.1858  0.0032  0.3433
 8029W        W24876   0.811   2.936   1.475 -0.1904  0.2168  0.2640
 8030W        W24877   6.001  10.439  13.525  0.0489  0.2040  0.2154
 8031W        W24878  13.340  12.601   1.467 -0.1863 -0.0909 -0.2383
 8032W        W24879   1.481  11.384   0.209  0.1032  0.0979 -0.0183
 8033W        W24880  13.541   4.652  11.592 -0.0007 -0.1466  0.0321
 8034W        W24881  18.617  18.234  14.474  0.0349  0.0881  0.1215
 8035W        W24882   9.694   5.186  10.561  0.2617 -0.2996 -0.0964
 8036W        W24883   6.053   1.098   1.320  0.0083  0.1191 -0.0971
 8037W        W24884   7.765   9.341   4.504 -0.0687 -0.3331 -0.0282
 8038W        W24885  13.104  10.593   5.001  0.1277 -0.0773  0.1990
 8039W        W24886  16.625  16.136   5.329 -0.2719  0.3157 -0.0780
 8040W        W24887  10.826   2.705   0.283 -0.0123 -0.0246 -0.0767
 8041W        W24888  14.525  15.547  13.285  0.1355 -0.0782 -0.1730
 8042W        W24889   3.426  16.393   2.193  0.3609 -0.3538  0.1076
 8043W        W24890   6.296  14.466   5.857 -0.0359  0.0278 -0.2497
 8044W        W24891  15.811  14.286   1.664 -0.2149  0.1008 -0.0722
 8045W        W24892  14.559  10.849   4.682  0.0231  0.0762 -0.1943
 8046W        W24893   8.728   1.774   0.850 -0.2526  0.2809  0.2092
 8047W        W24894  19.176   0.974  11.377 -0.0662  0.0565  0.0903
 8048W        W24895   4.866   4.007   2.899 -0.2925  0.0589 -0.1849
 8049W        W24896   1.628  14.039   1.034  0.0591 -0.2389  0.1049
 8050W        W24897   0.206   4.163   4.005  0.0664  0.0184 -0.0464
 8051W        W24898   8.718   9.143  13.789  0.0728 -0.4040  0.1545
 8052W        W24899   5.826  13.457  14.571  0.0131  0.0034  0.0713
 8053W        W24900   1.285   0.366   0.240  0.1668 -0.1395 -0.1567
 8054W        W24901   0.123  11.560  13.822  0.1242  0.2023  0.1032
 8055W        W24902   3.879   7.400   4.877  0.0668  0.3826 -0.1727
 8056W        W24903  11.901   2.686   2.282  0.3648 -0.0886  0.1736
 8057W        W24904  13.947   8.274   5.436 -0.0716 -0.2392  0.1696
 8058W        W24905  10.883   0.942   5.133 -0.1911 -0.1855  0.1174
 8059W        W24906  17.456  11.544   2.810  0.0034 -0.1362  0.1675
 8060W        W24907  15.039  11.163  14.264  0.0917  0.3655 -0.1658
 8061W        W24908   3.377  14.197   9.739 -0.1410  0.1744  0.2994
 8062W        W24909   5.415   0.187   9.596  0.0485 -0.0676  0.2791
 8063W        W24910  13.254  14.806   4.275  0.0763 -0.1596 -0.1743
 8064W        W24911  11.092   3.881   1.871 -0.1511  0.0549  0.0203
 8065W        W24912   5.400  19.189   1.221  0.0883 -0.0269  0.2908
 8066W        W24913  16.496  16.787   1.406 -0.2281  0.4658 -0.3140
 8067W        W24914   5.407  13.960  12.377  0.0408 -0.1980  0.2063
 8068W        W24915   6.831  12.165   0.705  0.1562 -0.1366  0.1372
 8069W        W24916  16.262   1.025  11.118  0.1163 -0.0618 -0.4156
 8070W        W24917  19.132  11.421  10.966  0.1985 -0.1279  0.0796
 8071W        W24918   5.973  11.304   2.144  0.0362  0.0549  0.2969
 8072W        W24919  13.494   0.903   2.342 -0.1203  0.0596 -0.2090
 8073W        W24920   8.779  17.157  14.778 -0.0487  0.4737  0.2156
 8074W        W24921  11.164   2.610   5.122 -0.2562  0.2843 -0.0299
 8075W        W24922   0.007   7.757   5.492  0.1790 -0.1006 -0.1455
 8076W        W24923   5.447   2.517   1.865  0.0318  0.5134 -0.0345
 8077W        W24924  10.146  11.247   2.381 -0.0119  0.3835  0.1234
 8078W        W24925  12.861  15.941   5.618 -0.3939 -0.2546 -0.0836
 8079W        W24926  18.419  16.231   3.034 -0.0017 -0.0022 -0.0260
 8080W        W24927   9.535  14.840   5.343  0.2929  0.3421  0.2328
 8081W        W24928  15.905  10.562  12.754 -0.1912  0.3471  0.0957
 8082W        W24929   6.768   0.316   0.924 -0.3387  0.1400 -0.1393
 8083W        W24930   1.860   3.633   1.319 -0.2174  0.0813 -0.0440
 8084W        W24931   6.700  12.706  12.051 -0.2366 -0.0199  0.1934
 8085W        W24932   0.048   9.831   2.282  0.1292 -0.0784 -0.1079
 8086W        W24933   1.745   8.229   9.384 -0.0400 -0.0118  0.0896
 8087W        W24934  15.224  12.645   3.125  0.0046  0.2288 -0.1375
 8088W        W24935  11.922  16.422  11.552 -0.0574  0.1919 -0.2981
 8089W        W24936  16.205  16.941   0.284  0.2363 -0.0391 -0.1677
 8090W        W24937  15.948   8.755  12.841  0.2895  0.3319  0.0870
 8091W        W24938  14.351  16.994  12.157  0.0494 -0.1352 -0.0399
 8092W        W24939   5.187   1.583  13.094  0.0077  0.1874 -0.0715
 8093W        W24940  14.906  15.201   2.112 -0.1375 -0.0639  0.3044
 8094W        W24941  15.623   1.163   0.025  0.0182 -0.2642 -0.0527
 8095W        W24942   3.932  16.374   2.082 -0.1191 -0.1395 -0.2730
 8096W        W24943   1.021   6.275   4.751  0.1180  0.2430 -0.0729
 8097W        W24944  14.710   4.058  14.192  0.3971  0.1246  0.3807
 8098W        W24945  17.884  11.681  10.939  0.3966 -0.0403 -0.3527
 8099W        W24946   3.745   5.486   4.772  0.1022 -0.2026  0.0601
 8100W        W24947   2.016   7.349  11.993 -0.1250  0.1656  0.0820
 8101W        W24948  13.963  17.348   4.258  0.0364  0.0997 -0.3875
 8102W        W24949   6.340  10.482   3.117  0.0156 -0.4976  0.1897
 8103W        W24950  11.844   2.355   3.552  0.0085 -0.0941 -0.1920
 8104W        W24951   4.401   0.944   1.931 -0.3045  0.0658  0.2519
 8105W        W24952  18.454  13.289   4.761  0.2600 -0.2377  0.0096
 8106W        W24953   3.992  18.188   1.920 -0.1494  0.1805 -0.1666
 8107W        W24954   4.977   5.782   4.617 -0.3267 -0.1936  0.1078
 8108W        W24955   0.546   2.431  12.505  0.2226  0.1944  0.0159
 8109W        W24956   3.015  12.490  10.364  0.0084 -0.1133 -0.0896
 8110W        W24957  11.637  11.447  11.836 -0.2395  0.3733  0.1957
 8111W        W24958   1.407   7.768  12.119  0.0202  0.1587 -0.4052
 8112W        W24959   5.757   5.488   2.330  0.2918 -0.0343  0.0950
 8113W        W24960  13.283  11.581   4.402 -0.2689 -0.1390 -0.1669
 8114W        W24961   7.890  11.449  11.770  0.0292 -0.0793  0.2743
 8115W        W24962  12.016  12.044  13.926 -0.0366 -0.1126  0.1347
 8116W        W24963  14.515  17.794  12.421  0.0830 -0.0229 -0.0573
 8117W        W24964   1.854   7.258  15.005  0.3585 -0.0738 -0.2750
 8118W        W24965   7.559  15.918  12.078 -0.2148 -0.1429 -0.1205
 8119W        W24966   1.842   4.688   3.657  0.0728  0.0012 -0.1050
 8120W        W24967  16.541  12.350  11.722 -0.0044  0.0337 -0.2750
 8121W        W24968  10.313  11.261  13.559  0.2659 -0.1621 -0.4492
 8122W        W24969  13.515  17.232   4.651  0.0359 -0.5081  0.0868
 8123W        W24970  18.819   5.301  11.957 -0.1533 -0.2235 -0.0163
 8124W        W24971   9.912   9.353  11.756  0.0102  0.0752 -0.2723
 8125W        W24972   4.312  11.877   1.152 -0.0538 -0.1995  0.1847
 8126W        W24973   8.117  15.860  14.290 -0.0875  0.1104  0.0208
 8127W        W24974  17.955   4.431  13.989  0.0111 -0.0541 -0.0656
 8128W        W24975   4.119   7.304   0.096 -0.1637  0.2579 -0.0891
 8129W        W24976   1.374   8.101  11.688  0.1708 -0.0482  0.5773
 8130W        W24977  14.416   6.155   0.518 -0.3430 -0.0772 -0.1468
 8131W        W24978   0.617  13.638  13.124 -0.2626  0.0096 -0.2299
 8132W        W24979  12.381  18.685  11.296 -0.1138 -0.1142  0.2145
 8133W        W24980  10.566  12.255  12.541 -0.0356 -0.0102  0.0798
 8134W        W24981   2.657  15.853   0.191 -0.2618 -0.0124  0.0396
 8135W        W24982  16.164  13.511   4.424 -0.0293  0.2220 -0.0674
 8136W        W24983  16.319   8.617   4.844  0.0268 -0.0544 -0.2552
 8137W        W24984   0.725  12.451  11.050  0.2535 -0.2813  0.0803
 8138W        W24985  18.092   2.503  14.499 -0.0864  0.2230  0.2257
 8139W        W24986   6.440  15.456   2.935  0.0156  0.1425 -0.1484
 8140W        W24987  14.335  14.063   1.640 -0.0495 -0.1281 -0.0650
 8141W        W24988   6.646  14.117  13.805 -0.0909 -0.0755  0.1253
 8142W        W24989   3.718   6.067  10.557 -0.1595  0.1288 -0.0024
 8143W        W24990   9.672   8.260  13.994 -0.0508 -0.3426 -0.1242
 8144W        W24991   1.800   9.566   1.267  0.1804  0.1459 -0.0067
 8145W        W24992   8.867  11.922   2.967  0.1007 -0.1254  0.2301
 8146W        W24993  18.463  11.447  13.157 -0.1746  0.1537 -0.2959
 8147W        W24994  10.593  13.782   0.348  0.3049 -0.1443 -0.1200
 8148W        W24995  10.335   5.622   3.083  0.1049 -0.3442 -0.6073
 8149W        W24996   9.174   0.462  12.532 -0.3394  0.3621 -0.0728
 8150W        W24997  11.904   5.787  14.731  0.3468 -0.0976 -0.1271
 8151W        W24998  15.748   5.753  11.840  0.0817  0.1588 -0.0217
 8152W        W24999  13.626   6.006   2.501  0.0377 -0.1591  0.0464
 8153W        W25000   0.372   3.834  10.957  0.3721  0.0604  0.1417
 8154W        W25001  12.930  14.478  13.771 -0.3482  0.2367  0.0376
 8155W        W25002   2.478  11.707   3.595 -0.0107 -0.1553 -0.1316
 8156W        W25003  11.514  17.822   1.463 -0.0572 -0.0069  0.1443
 8157W        W25004  16.507   6.424  14.782 -0.0376 -0.3351  0.4513
 8158W        W25005   8.700   9.020   1.127  0.1839  0.3018 -0.1177
 8159W        W25006   1.450  15.993  13.959 -0.0530 -0.1689 -0.0141
 8160W        W25007   5.981   5.350   0.274 -0.0995 -0.1172 -0.0812
 8161W        W25008  12.663  19.059   6.085  0.1144  0.0439 -0.1201
 8162W        W25009  14.500   5.866   1.355 -0.1140 -0.4723  0.1666
 8163W        W25010  15.932   6.703  10.461 -0.2662  0.1568 -0.0327
 8164W        W25011  11.372  16.987  14.258 -0.1207  0.2203 -0.1586
 8165W        W25012  12.183   3.983   2.624  0.1756 -0.2390 -0.1852
 8166W        W25013   6.629   5.338   3.920  0.2007 -0.1941 -0.0254
 8167W        W25014   7.746   4.576  10.811 -0.2065  0.1345  0.0296
 8168W        W25015  15.080   7.104   3.568  0.3609  0.0202 -0.2277
 8169W        W25016   6.309   9.953  11.111  0.3509 -0.1093  0.2196
 8170W        W25017   2.272   5.658  12.445 -0.1083  0.2147  0.1879
 8171W        W25018  12.909   4.223   0.362  0.2088  0.0696  0.1702
 8172W        W25019  11.061  12.742   3.804  0.0793 -0.0728 -0.0042
 8173W        W25020  12.397   6.765  13.382 -0.4451  0.0683  0.2543
 8174W        W25021   1.061   9.732   4.795  0.0867 -0.1492  0.2571
 8175W        W25022  10.592   6.645  10.734 -0.1570 -0.0427 -0.2313
 8176W        W25023  16.840   3.620  14.980  0.1077 -0.2119  0.0050
 8177W        W25024   7.254  11.380  13.490  0.2886 -0.2198 -0.1367
 8178W        W25025   4.781   7.195   0.963  0.1590 -0.1619 -0.0121
 8179W        W25026   6.426   0.691  13.822 -0.0468  0.4314  0.0095
 8180W        W25027   9.951  18.724  14.878  0.0357 -0.1958  0.1993
 8181W        W25028   7.490  17.149  10.123 -0.1628  0.1400 -0.2301
 8182W        W25029  18.652   7.051   4.857 -0.1152 -0.1081  0.1940
 8183W        W25030  11.888  15.545  11.213 -0.3693  0.2173 -0.0081
 8184W        W25031   6.525   4.725  10.606 -0.0242 -0.0980 -0.3128
 8185W        W25032   8.312   1.318   5.376 -0.3220  0.1808 -0.1377
 8186W        W25033   2.719  18.054   4.372 -0.3554  0.0126  0.1898
 8187W        W25034  15.933   4.507  12.862 -0.0069  0.1564  0.2488
 8188W        W25035  12.398   4.842   4.717  0.1588 -0.0836 -0.0349
 8189W        W25036   8.630  14.876   0.590  0.1694 -0.3548 -0.1750
 8190W        W25037  15.324   0.937  13.335 -0.0128 -0.2281  0.3387
 8191W        W25038   6.882  18.534   1.614  0.1105  0.1840  0.1403
 8192W        W25039   1.495   2.938   2.795  0.3504  0.1482 -0.4527
 8193W        W25040  12.707   9.325  12.790 -0.2128 -0.6763 -0.0934
 8194W        W25041   5.350  15.415   1.111 -0.1084  0.2487 -0.2813
 8195W        W25042  13.625  12.515   2.211 -0.1767  0.3248 -0.2768
 8196W        W25043  18.750   7.060  10.777  0.2548  0.0331  0.0154
 8197W        W25044  15.461   9.986  11.432 -0.0581  0.0242 -0.2680
 8198W        W25045  19.217  18.935   4.933  0.1099 -0.0404 -0.0176
 8199W        W25046   0.248   8.562   4.381  0.2526 -0.2616  0.1235
 8200W        W25047   4.682   2.192  11.234 -0.0256 -0.4607  0.0436
 8201W        W25048   5.478   8.356  10.311 -0.1118 -0.2198 -0.0597
 8202W        W25049   7.088   6.861   0.625  0.3359  0.0778  0.0624
 8203W        W25050   1.377   1.703  13.382 -0.1385 -0.3176 -0.2407
 8204W        W25051   8.951   5.788   0.220  0.0476 -0.0700  0.3132
 8205W        W25052   2.945  16.635  11.655 -0.2663  0.0336  0.0196
 8206W        W25053   9.722  19.236  14.145 -0.3106  0.1820 -0.2022
 8207W        W25054  15.945   5.343  13.552 -0.2392 -0.0839  0.0281
 8208W        W25055  12.848  17.982   4.999 -0.2672  0.1749 -0.2513
 8209W        W25056  11.288  19.050   1.767  0.0611  0.0117  0.0268
 8210W        W25057   4.572  14.484  14.218  0.0852 -0.0698  0.3131
 8211W        W25058  18.926  16.222   1.082 -0.1386 -0.1145 -0.0748
 8212W        W25059   5.689   6.603   3.023  0.0934  0.0300  0.0503
 8213W        W25060   1.053  18.440   4.202 -0.0082 -0.0875  0.1637
 8214W        W25061  11.735   9.770  10.256  0.3063 -0.1186 -0.2526
 8215W        W25062  11.703  18.865   5.506  0.3822  0.0650  0.1096
 8216W        W25063   3.014   2.535  15.010  0.2767  0.0437 -0.0180
 8217W        W25064   1.432   0.440   9.932  0.0402 -0.0723  0.1094
 8218W        W25065  17.098  14.075   0.864 -0.0639  0.1100  0.1200
 8219W        W25066   6.751  16.476  11.240 -0.0631 -0.3476 -0.1577
 8220W        W25067  17.276  17.100  14.980 -0.0350  0.2742  0.1400
 8221W        W25068  17.950   8.908  11.961 -0.0422 -0.1116  0.1266
 8222W        W25069   5.934  15.890  13.208  0.0820  0.0641 -0.3457
 8223W        W25070  18.554  15.979   2.205 -0.1308  0.0899  0.2870
 8224W        W25071  18.255  13.597   2.714  0.1829  0.0924 -0.1438
 8225W        W25072  14.890  18.995  12.527 -0.0378 -0.2942 -0.0050
 8226W        W25073  14.650  14.293   5.579  0.1012  0.0405  0.0484
 8227W        W25074  14.257  10.318  13.085 -0.1687 -0.2173  0.0291
 8228W        W25075  15.725   2.148  10.784  0.2606  0.2289  0.5095
 8229W        W25076   4.036  10.183   2.442 -0.1305 -0.1417 -0.0831
 8230W        W25077   4.998  11.655   4.518  0.1521  0.0101  0.1920
 8231W        W25078   3.667   4.355  11.050 -0.0931 -0.1479  0.0470
 8232W        W25079   0.199  14.992  12.654 -0.3352  0.2592  0.4680
 8233W        W25080  16.670   8.745  12.371 -0.0049  0.0545 -0.2975
 8234W        W25081  12.965  14.406   4.158 -0.0762  0.0422  0.3909
 8235W        W25082   8.619   8.669   4.542  0.2313  0.1683  0.0028
 8236W        W25083  10.468   6.990   4.019  0.0754  0.0681  0.2855
 8237W        W25084   3.305  17.432  12.554 -0.0301  0.1371 -0.0488
 8238W        W25085   9.803   8.264  11.883  0.0328  0.0888 -0.1810
 8239W        W25086   8.437  14.272  13.763  0.4504 -0.1254 -0.2923
 8240W        W25087   6.804  18.329   2.935 -0.0333  0.1688  0.2221
 8241W        W25088  17.459  16.712  11.670 -0.2267  0.1455  0.0640
 8242W        W25089   1.666   6.940  14.640 -0.1792 -0.2743  0.0874
 8243W        W25090   1.121  14.245   3.483 -0.1535  0.2458 -0.2844
 8244W        W25091   4.071  14.375   1.770  0.0433  0.0819  0.1565
 8245W        W25092   2.091  16.583   4.786  0.1125  0.0514 -0.3873
 8246W        W25093   6.647   8.558   2.335  0.0097  0.3303 -0.0996
 8247W        W25094   4.670   0.396   0.373 -0.0227  0.1051 -0.0048
 8248W        W25095  10.577  17.596   2.546 -0.0907 -0.0201  0.4411
 8249W        W25096   2.755  13.276   2.484 -0.1877  0.2899  0.0091
 8250W        W25097  11.758  13.233  13.433  0.0825 -0.0686  0.0977
 8251W        W25098   7.829  10.633   3.673 -0.3686  0.2381 -0.1221
 8252W        W25099   1.920   9.330  10.311 -0.0816  0.0743 -0.2256
 8253W        W25100  12.840  18.061   2.693  0.2885 -0.0154 -0.0394
 8254W        W25101  18.496  12.825  10.911 -0.1802 -0.3670  0.1897
 8255W        W25102  14.530  14.785   4.693  0.0007 -0.0733  0.0534
 8256W        W25103  14.137  13.622   3.171  0.0360  0.0906  0.0049
 8257W        W25104   7.184  10.169   2.068 -0.1271  0.1111 -0.0148
 8258W        W25105   6.663  10.960   3.510 -0.0478 -0.1957 -0.0903
 8259W        W25106  11.208  11.710  12.360 -0.1829 -0.0135  0.2906
 8260W        W25107   5.330  14.747   4.386 -0.0677  0.1036 -0.4202
 8261W        W25108   1.488  14.184   4.357 -0.1487  0.2434 -0.1162
 8262W        W25109  12.143   2.924   0.503  0.0914  0.1146  0.2261
 8263W        W25110  16.545   3.767   4.285 -0.0157 -0.1980  0.1111
 8264W        W25111   0.790   6.532  13.395 -0.1633  0.5142 -0.0150
 8265W        W25112   9.369   6.957  13.203 -0.1488  0.0499 -0.2696
 8266W        W25113   3.617  10.748  13.790  0.0847  0.2199  0.0347
 8267W        W25114   5.021   9.318   4.091  0.0945  0.1378  0.1915
 8268W        W25115  16.470   1.207   3.933 -0.1843 -0.1278 -0.1359
 8269W        W25116  13.947   4.055  12.783  0.0658 -0.0167 -0.2103
 8270W        W25117  13.966   5.876  14.410  0.2226 -0.0779  0.2075
 8271W        W25118  11.105   3.727  14.807  0.4616  0.2091 -0.2425
 8272W        W25119  16.179  11.190   2.536 -0.1047 -0.2725  0.2364
 8273W        W25120   1.069  11.847   1.426  0.0107  0.2137 -0.1353
 8274W        W25121   0.659   5.372  11.550  0.2349 -0.1018 -0.0172
 8275W        W25122   3.673  11.838  11.937  0.2675  0.0365  0.1092
 8276W        W25123  18.666  12.397   9.602  0.1069 -0.2911 -0.2968
 8277W        W25124   9.752   9.917  12.685  0.4025  0.1349  0.1965
 8278W        W25125  13.440  11.822   0.502  0.1230  0.1271 -0.1315
 8279W        W25126   5.988  13.417   0.873  0.1234 -0.1306 -0.1155
 8280W        W25127  15.244   2.863  11.211 -0.3632  0.0672  0.0214
 8281W        W25128  16.228  11.650  11.058  0.2103 -0.1733  0.0732
 8282W        W25129   2.891   3.298  11.735  0.1085 -0.4478  0.0856
 8283W        W25130   9.592  18.245  12.262 -0.1718 -0.1962 -0.1410
 8284W        W25131   2.065   7.315  12.918  0.5342  0.0008 -0.0944
 8285W        W25132  16.797  17.280  11.629  0.2213  0.1560  0.1570
 8286W        W25133   0.432  17.220  14.274  0.0586 -0.1095 -0.0586
 8287W        W25134  12.154   6.109   1.664 -0.1569 -0.0850 -0.0183
 8288W        W25135  11.007   7.083   4.111 -0.0543 -0.1996 -0.0330
 8289W        W25136   8.755   8.462   2.332 -0.0174  0.4536 -0.0954
 8290W        W25137   4.208   9.234   1.460  0.1266 -0.3727  0.1430
 8291W        W25138   6.760   9.634  14.778  0.2649 -0.1940  0.1954
 8292W        W25139   5.831   9.077   3.930  0.1519 -0.0532 -0.3370
 8293W        W25140   8.645   2.588  14.737  0.0038  0.1069 -0.0838
 8294W        W25141  10.029   3.674  13.916  0.1570 -0.2239 -0.2742
 8295W        W25142   2.937   4.707  12.389  0.0142  0.2478  0.0037
 8296W        W25143   8.190   8.331   4.769 -0.2556  0.0871  0.4535
 8297W        W25144  14.165  16.409   9.705 -0.1248 -0.5820 -0.0808
 8298W        W25145  14.855  11.004  13.049  0.0034 -0.0931  0.0067
 8299W        W25146   4.591   3.379   2.502 -0.0104  0.0526  0.1817
 8300W        W25147  14.131  13.704   3.703  0.1754  0.2252  0.0320
 8301W        W25148  12.890   1.557   4.805  0.0526 -0.2586  0.0497
 8302W        W25149  15.551   6.869  14.581  0.0376  0.0669  0.0540
 8303W        W25150  13.461   0.519   0.401  0.1911  0.1003 -0.0718
 8304W        W25151  14.076   4.691  11.698  0.3946  0.1840 -0.2551
 8305W        W25152  19.263  13.609   0.474  0.1476 -0.0481  0.1812
 8306W        W25153  10.424   0.228  14.882 -0.3267  0.4489 -0.1020
 8307W        W25154  15.319   4.190   3.662 -0.2246 -0.0539 -0.2300
 8308W        W25155  10.460   1.827  11.293 -0.1041  0.2523  0.0776
 8309W        W25156   0.385  12.582   3.030  0.1662  0.0192  0.2308
 8310W        W25157  15.820   9.088  10.487  0.0938 -0.4000 -0.2702
 8311W        W25158   4.166  18.931  10.709 -0.0099 -0.1710 -0.0195
 8312W        W25159   3.193   6.100   2.344  0.1098 -0.0011  0.0688
 8313W        W25160  13.403  18.002  14.256  0.3280  0.0015 -0.3030
 8314W        W25161  14.354  18.994   0.961  0.0572 -0.2002 -0.0098
 8315W        W25162   8.763   4.300   2.384 -0.1868  0.0138  0.1047
 8316W        W25163  17.630   4.158  10.987 -0.1149  0.2467 -0.0594
 8317W        W25164  16.170  16.548   0.565  0.2175  0.0375 -0.1554
 8318W        W25165   6.687   9.680  13.406 -0.0110 -0.1255  0.0833
 8319W        W25166  12.078   0.641   0.209  0.2625  0.1461 -0.0320
 8320W        W25167  17.332  16.823  10.721 -0.0398 -0.1017  0.1994
 8321W        W25168  16.846  11.399   1.291  0.0828  0.1183  0.0047
 8322W        W25169  12.659  18.352  13.950 -0.0647 -0.1095 -0.0240
 8323W        W25170   3.141  15.663  13.409 -0.3773 -0.2945  0.0955
 8324W        W25171  14.428   9.582  10.709 -0.1399  0.1787  0.1616
 8325W        W25172   6.117   9.581   3.719 -0.0898 -0.1179  0.0020
 8326W        W25173  11.973  10.716  14.472  0.2633  0.2914  0.0909
 8327W        W25174  12.170  18.986  12.683  0.0880  0.0944 -0.1004
 8328W        W25175  16.398  10.306  11.388  0.0816 -0.2455  0.3223
 8329W        W25176   6.477  12.171   9.710 -0.1502 -0.0539 -0.0529
 8330W        W25177  12.442  12.336  14.875 -0.0175 -0.1316 -0.1575
 8331W        W25178  14.869   0.794  13.085  0.2455  0.3529 -0.3182
 8332W        W25179   4.095  15.433   4.046  0.0808 -0.0854 -0.0806
 8333W        W25180  18.469   8.791   6.035 -0.0735 -0.0379  0.0250
 8334W        W25181   2.299  16.622   1.187 -0.1668 -0.1770 -0.0452
 8335W        W25182   0.245   0.521   3.165  0.1708  0.1522  0.1349
 8336W        W25183  18.672  10.487   1.670  0.2008  0.2350  0.0517
 8337W        W25184   0.558   7.798  11.597 -0.0687 -0.0678  0.0624
 8338W        W25185   1.583  19.085   1.241  0.0295  0.0585 -0.0166
 8339W        W25186   9.381   3.651  10.674 -0.0754  0.1894  0.0596
 8340W        W25187  17.576  14.730  11.158 -0.0850 -0.0281 -0.2902
 8341W        W25188   9.836  15.251   5.421 -0.0597 -0.0328 -0.1029
 8342W        W25189  18.466   0.009   1.342 -0.0379  0.0978 -0.1369
 8343W        W25190   0.653   8.046  12.490 -0.0894 -0.0397 -0.1724
 8344W        W25191   0.067   3.098  13.716  0.2083  0.0072 -0.1005
 8345W        W25192  15.237   6.419  11.283  0.0244 -0.2869  0.0496
 8346W        W25193   0.879   9.778  12.776 -0.3311 -0.1567 -0.0064
 8347W        W25194   1.260  10.345   1.485  0.2672  0.3728  0.1469
 8348W        W25195  11.045  10.601   0.636 -0.4342 -0.3631 -0.0606
 8349W        W25196  11.376  10.482  13.780  0.2416 -0.0131  0.0105
 8350W        W25197  17.901   9.678   0.164 -0.0121 -0.0584 -0.0882
 8351W        W25198   8.816  12.387  13.963 -0.1520 -0.0917 -0.1597
 8352W        W25199   0.270   9.843  12.506 -0.1845 -0.0173  0.1980
 8353W        W25200   8.891   4.163   3.496 -0.0479 -0.0392 -0.0889
 8354W        W25201  10.284   9.707   2.320 -0.0919  0.0194 -0.0046
 8355W        W25202   3.995  14.359  13.746  0.0854  0.1489  0.2118
 8356W        W25203  14.192  12.614  11.577  0.1868  0.0949 -0.0332
 8357W        W25204  12.807  14.097   2.687  0.0878 -0.4836  0.2807
 8358W        W25205  14.923   9.150   5.380  0.0237  0.1974 -0.1382
 8359W        W25206   6.983   7.589   0.031 -0.0348 -0.1057  0.2302
 8360W        W25207   3.091  15.491  14.282 -0.0694 -0.0834 -0.0586
 8361W        W25208  18.309  17.474   2.861  0.2086  0.2913  0.0363
 8362W        W25209   3.668   6.393  11.924 -0.1734 -0.2101 -0.1152
 8363W        W25210   4.280  10.296  10.407 -0.2540  0.1909  0.1424
 8364W        W25211  15.854  13.434  13.708 -0.2517  0.0417 -0.1076
 8365W        W25212   3.795  17.390  12.778 -0.1860  0.1917 -0.0889
 8366W        W25213   0.523  18.976  13.606  0.1439  0.1603 -0.0854
 8367W        W25214   2.613  15.829  10.983 -0.1403 -0.1695  0.3192
 8368W        W25215  18.124  12.018   3.793  0.0764 -0.0991  0.1574
 8369W        W25216   0.347  18.382   3.089  0.2274 -0.1501 -0.1076
 8370W        W25217   1.880  10.457  14.607 -0.0877  0.0295  0.3673
 8371W        W25218   8.476  18.504  12.124  0.1382 -0.2935  0.1955
 8372W        W25219  14.885   6.969  13.535 -0.3708  0.0069 -0.0469
 8373W        W25220  13.097  18.959   1.953 -0.1193 -0.2861  0.0260
 8374W        W25221  16.919   3.858   3.201 -0.0971  0.1042  0.2569
 8375W        W25222  18.510   0.708  10.911  0.1899 -0.1845  0.0163
 8376W        W25223  16.983  10.029   3.807 -0.0825 -0.0724 -0.0955
 8377W        W25224   8.229   5.242  13.898  0.3555  0.0141  0.2686
 8378W        W25225   5.788  11.805   0.091 -0.1547 -0.1057 -0.0011
 8379W        W25226   6.673  16.577  14.640  0.0180  0.1096 -0.0959
 8380W        W25227   1.679   3.279   4.413  0.0830  0.2257  0.1784
 8381W        W25228   4.329   0.034  11.909  0.4129 -0.2118  0.4292
 8382W        W25229  17.614  12.634  12.421  0.0021  0.0738  0.0492
 8383W        W25230   9.230  18.358   3.036  0.0760  0.0450  0.2822
 8384W        W25231   8.323  13.030   4.974 -0.1805  0.2713 -0.0564
 8385W        W25232  10.281   3.289  12.098 -0.2522 -0.0511  0.0082
 8386W        W25233   3.461   7.110  11.349 -0.4173 -0.3696  0.0799
 8387W        W25234  17.178   0.642   2.156  0.1308 -0.0022 -0.0079
 8388W        W25235  11.551   2.375   2.106  0.2885  0.2671  0.0708
 8389W        W25236   8.871   6.438  13.034 -0.2734 -0.0005 -0.1239
 8390W        W25237  18.286  14.804  14.229 -0.1136 -0.3231  0.0081
 8391W        W25238   3.221  16.029  14.656 -0.1805 -0.0507 -0.1146
 8392W        W25239  12.138  18.791  13.606  0.1891 -0.1948  0.0839
 8393W        W25240   3.474  15.277   0.263 -0.0712 -0.1466 -0.3642
 8394W        W25241  13.018   5.161  12.669 -0.0691  0.3016 -0.0599
 8395W        W25242   8.598   4.001  10.434 -0.1701 -0.0779 -0.0768
 8396W        W25243   5.303  10.880  14.738  0.0872 -0.0784 -0.0229
 8397W        W25244   5.803  13.635   1.770  0.0226 -0.0051 -0.2854
 8398W        W25245   8.596  11.726  13.521 -0.0026  0.1788  0.0195
 8399W        W25246   1.427   7.150   3.174  0.0972 -0.1041 -0.0755
 8400W        W25247  19.021   7.528  10.457 -0.3376 -0.4009  0.0084
 8401W        W25248  18.181  17.156  11.907 -0.2520 -0.1276  0.2008
 8402W        W25249   5.235  12.540   5.396  0.2447  0.2610  0.1234
 8403W        W25250   7.705  10.142   4.552 -0.3233 -0.1950 -0.0398
 8404W        W25251   8.172  10.937   1.953  0.0236  0.0079  0.2084
 8405W        W25252  12.076  12.678   1.656 -0.1465  0.1156  0.2893
 8406W        W25253   1.382  16.844  11.110 -0.0732 -0.0555  0.0771
 8407W        W25254   8.171   8.336  11.480 -0.0850  0.2285  0.1745
 8408W        W25255  16.219  17.457   5.051 -0.1312  0.1048 -0.2022
 8409W        W25256  13.050   4.891   1.240  0.1237  0.0997  0.2064
 8410W        W25257   5.303   8.935  11.938  0.0537  0.1398 -0.0668
 8411W        W25258   3.748  14.782  11.961 -0.1399 -0.5375 -0.0947
 8412W        W25259  11.259  13.184  14.820  0.1442  0.0185  0.1486
 8413W        W25260   9.647  19.103   5.162  0.0683 -0.2056 -0.1246
 8414W        W25261  10.793  13.739   2.270 -0.2910 -0.1274 -0.0888
 8415W        W25262   5.697  18.162   3.800 -0.1115  0.3020  0.1414
 8416W        W25263   8.281  16.234  10.864 -0.0142 -0.0451 -0.1024
 8417W        W25264  11.245  15.553   9.739 -0.1049 -0.0086  0.2204
 8418W        W25265   9.290  15.186   0.638  0.0239 -0.1519  0.0565
 8419W        W25266  12.100   2.621   3.216 -0.0686  0.0785 -0.4078
 8420W        W25267   0.645   4.478   3.192  0.0376  0.2808 -0.2005
 8421W        W25268  10.551   8.512   0.526 -0.4204 -0.1725 -0.1136
 8422W        W25269   8.436   4.953  14.945 -0.1920 -0.0990  0.0648
 8423W        W25270  14.758   6.219   1.009 -0.3053  0.1412 -0.2433
 8424W        W25271   0.431   8.882   0.685 -0.0041  0.1058 -0.1139
 8425W        W25272   9.149  13.179   1.005  0.3923  0.0921 -0.4473
 8426W        W25273   0.827   6.452  13.921 -0.3803  0.1982  0.0918
 8427W        W25274   9.863  12.526   5.631  0.1036  0.0708  0.0792
 8428W        W25275   2.691   2.767   0.315  0.3104 -0.0658 -0.0920
 8429W        W25276  16.995   1.672  11.413 -0.0590  0.2273  0.0158
 8430W        W25277  14.375   2.876   4.047  0.2259  0.1839 -0.2208
 8431W        W25278   1.460   3.915   1.422 -0.1728  0.0350 -0.1919
 8432W        W25279  16.428  13.409   4.900  0.2161  0.0965 -0.0134
 8433W        W25280  15.853   8.371   4.670  0.0699  0.2299  0.0839
 8434W        W25281  15.394  13.449   0.180  0.1109  0.0110 -0.3015
 8435W        W25282  14.084   5.406  14.174  0.1117  0.4589  0.2033
 8436W        W25283   8.246   9.276  14.061  0.0789 -0.0371 -0.0379
 8437W        W25284   5.520   7.319  13.200  0.1888 -0.2877  0.1896
 8438W        W25285  14.177  14.722  14.422 -0.2027 -0.2030 -0.2315
 8439W        W25286  13.060   1.899  11.770  0.1168  0.0534 -0.0573
 8440W        W25287  10.676  12.242   2.944 -0.2249  0.1383 -0.0023
 8441W        W25288  18.653   5.345   9.948  0.0080 -0.0490 -0.2604
 8442W        W25289  15.362  16.914  10.620  0.0272 -0.1157 -0.1380
 8443W        W25290   1.397  18.133   0.613 -0.2788  0.3974  0.0339
 8444W        W25291   0.449   6.075   1.617  0.1267  0.1688  0.0816
 8445W        W25292  13.993  16.314   1.210  0.3901  0.1691  0.1953
 8446W        W25293  12.471  17.744   5.394  0.0306  0.0535  0.2386
 8447W        W25294  17.410   7.168   4.072  0.0032  0.0736 -0.1669
 8448W        W25295   9.354   2.242  12.901 -0.0715  0.0909 -0.3550
 8449W        W25296  16.217   8.547  13.537  0.0040 -0.1048 -0.1467
 8450W        W25297  12.590   4.217   2.321  0.0015 -0.2099  0.0857
 8451W        W25298   0.282  17.883   2.841 -0.3089  0.1123  0.4621
 8452W        W25299   9.548  11.797   4.737  0.1836 -0.1487 -0.0732
 8453W        W25300  15.572  10.733  11.817  0.0231 -0.1383  0.0717
 8454W        W25301  10.311   0.444   4.682 -0.0926  0.2283 -0.0166
 8455W        W25302   9.820  14.532  12.554  0.0295 -0.1690 -0.0051
 8456W        W25303   0.327  15.605  10.631  0.1276 -0.2027 -0.0611
 8457W        W25304  13.803  17.605  14.295 -0.3262 -0.0815  0.0752
 8458W        W25305  19.273  17.526   2.630 -0.1416 -0.0653  0.1541
 8459W        W25306   9.310   4.659   1.730 -0.0138  0.1517 -0.3552
 8460W        W25307   9.976  11.123  11.379  0.1244 -0.0302  0.1749
 8461W        W25308  17.351   7.294  12.914 -0.0703 -0.4424  0.1187
 8462W        W25309   3.351  16.512   0.586  0.0886 -0.1030 -0.0846
 8463W        W25310  11.883  10.924  12.984 -0.0143 -0.0365 -0.1486
 8464W        W25311   1.280   7.381   1.745  0.2118 -0.0571 -0.0670
 8465W        W25312   9.569  17.802   0.127  0.0026  0.0193  0.0108
 8466W        W25313   0.256  17.958  13.252  0.1842  0.1477  0.2367
 8467W        W25314   2.264   9.100  13.516 -0.1444 -0.2480  0.0452
 8468W        W25315  16.829  19.185   1.709  0.1413  0.0607  0.1827
 8469W        W25316   5.491   0.616   4.275  0.0679  0.0389 -0.1313
 8470W        W25317   1.185   7.955   0.638  0.1193 -0.3043  0.1743
 8471W        W25318   2.266   4.472   2.189 -0.0803 -0.0234 -0.0616
 8472W        W25319  16.840   4.570   1.988  0.0588  0.0609  0.0049
 8473W        W25320   2.153   2.609  13.296 -0.0351 -0.2557 -0.1333
 8474W        W25321  18.026  10.877  10.541  0.1614 -0.0074  0.1640
 8475W        W25322  13.529   3.241   0.978 -0.2883 -0.0723 -0.0390
 8476W        W25323   6.828  10.857   2.917 -0.3626 -0.0734 -0.0459
 8477W        W25324  18.666   8.781   1.904  0.0013  0.0590 -0.2070
 8478W        W25325  12.977   2.461   2.846 -0.2836 -0.0099  0.1446
 8479W        W25326  11.596   3.811   4.641 -0.1393 -0.0691 -0.3678
 8480W        W25327   9.752  16.395  14.470  0.1339 -0.2738 -0.0207
 8481W        W25328  18.552  16.898  14.752 -0.2398 -0.0305  0.1896
 8482W        W25329   3.342   7.395   2.971  0.2543 -0.1903 -0.0706
 8483W        W25330  12.653   1.182  12.326 -0.0131  0.2114  0.1129
 8484W        W25331   4.604  18.797  14.234  0.1067  0.1713  0.1403
 8485W        W25332  16.287   9.835  11.423  0.0039  0.2617  0.0779
 8486W        W25333  13.080   3.643  11.548 -0.2365 -0.2624  0.0778
 8487W        W25334   9.350  14.460  13.988  0.0634  0.0733 -0.1240
 8488W        W25335  18.219   4.766  13.744 -0.0756  0.0373 -0.2098
 8489W        W25336   5.541  15.432  14.678  0.3340 -0.0807  0.1865
 8490W        W25337  10.627   3.226   2.449  0.2035  0.1624 -0.0383
 8491W        W25338  14.884   9.428   4.047  0.1315  0.0960  0.0632
 8492W        W25339  14.747  11.854  15.005  0.1638 -0.1371  0.3079
 8493W        W25340  17.751   0.771  12.417  0.3196 -0.1115 -0.2940
 8494W        W25341   9.295   7.218  14.803 -0.0630 -0.0014 -0.3315
 8495W        W25342   6.738  14.962   3.708  0.2858 -0.0777  0.3159
 8496W        W25343  18.703   7.463  11.179  0.0261 -0.0019 -0.1498
 8497W        W25344   7.408  17.955  13.679 -0.0395  0.0994 -0.0566
 8498W        W25345   0.572  10.970   3.218  0.2903  0.2690 -0.5165
 8499W        W25346   7.006   0.293   2.210 -0.1116 -0.1239 -0.4124
 8500W        W25347   5.427  13.731  11.333 -0.4340 -0.2811 -0.0187
 8501W        W25348   3.119  12.513   1.321 -0.1402 -0.3372  0.0598
 8502W        W25349   2.799   1.938  13.620 -0.0579  0.1306  0.0853
 8503W        W25350   7.075  17.378  10.191  0.4768 -0.2933 -0.1729
 8504W        W25351   8.071  16.483   3.656  0.2291  0.1132  0.1606
 8505W        W25352  17.585  12.752   3.594  0.0341  0.0593  0.2990
 8506W        W25353   6.119   0.209   1.923 -0.0318  0.0588  0.0851
 8507W        W25354  18.938  18.252   4.355  0.0786 -0.0217  0.2907
 8508W        W25355   6.062   9.289   2.560 -0.0631  0.0437  0.1925
 8509W        W25356   8.186  17.693   2.614  0.1259 -0.1483  0.1829
 8510W        W25357  11.346   3.483  13.384 -0.0711 -0.1429 -0.3844
 8511W        W25358  15.215  13.313  10.672  0.1462 -0.2053 -0.4768
 8512W        W25359  10.781   4.284   3.582 -0.0951 -0.0561  0.1188
 8513W        W25360   6.314  14.376   2.894  0.1091  0.0020 -0.1948
 8514W        W25361   6.699  17.714   0.964  0.1065 -0.0504 -0.1107
 8515W        W25362  19.240   6.937  10.831  0.1007 -0.1011  0.1958
 8516W        W25363  14.725   0.686  11.365 -0.2519 -0.0895 -0.2879
 8517W        W25364  13.538   6.351   4.710 -0.1894  0.4174  0.1693
 8518W        W25365  15.693   3.073   2.957 -0.2445 -0.0884 -0.0036
 8519W        W25366  18.404   7.063  12.438 -0.2216 -0.0575  0.2146
 8520W        W25367   1.818   0.104   3.186  0.0146 -0.2465  0.0165
 8521W        W25368   6.801   2.015  12.879 -0.0649  0.0865  0.2722
 8522W        W25369  10.866  19.078  11.816  0.0698  0.4120  0.0116
 8523W        W25370   2.532   2.089   4.191  0.0218 -0.1583 -0.0518
 8524W        W25371  11.847  11.264   2.911 -0.0776 -0.2047  0.1433
 8525W        W25372  17.979  18.849  11.851  0.1042  0.0725  0.0184
 8526W        W25373   8.613   7.118  13.784 -0.1553  0.0570  0.3469
 8527W        W25374  14.527   1.777  13.027 -0.2327 -0.1420  0.1997
 8528W        W25375   2.171  17.795  11.884 -0.1417 -0.1546 -0.1796
 8529W        W25376  18.090   6.499  11.820 -0.4889  0.2638 -0.0990
 8530W        W25377  16.491  18.074   3.529  0.2418 -0.1051  0.0755
 8531W        W25378   3.829  13.791  12.933  0.0234  0.1383 -0.1617
 8532W        W25379  10.151  18.197   0.151 -0.1082 -0.1005  0.0095
 8533W        W25380  14.695  15.102   0.479  0.2009 -0.2410  0.1467
 8534W        W25381   2.904   4.169  13.262 -0.1409 -0.3585 -0.2075
 8535W        W25382   8.479   0.642  14.504  0.1844 -0.0993 -0.0413
 8536W        W25383   5.673   0.730  11.029 -0.0006 -0.0501  0.0683
 8537W        W25384  14.975  11.171  12.516  0.0419 -0.1127 -0.1474
 8538W        W25385   4.488  18.796  12.346 -0.2703  0.0555  0.1073
 8539W        W25386   0.091   9.370   0.441 -0.0391  0.1975  0.2297
 8540W        W25387  17.217   2.764   4.773  0.0800  0.1733  0.1003
 8541W        W25388   7.888   9.837  10.132 -0.0577  0.0932 -0.0882
 8542W        W25389  13.246  11.316   2.756  0.2490  0.2157  0.1120
 8543W        W25390   2.044   1.015   4.141 -0.4001  0.2205 -0.0235
 8544W        W25391   2.147  10.437   2.814  0.0127 -0.0272 -0.0399
 8545W        W25392  18.218   7.411  14.715  0.1956 -0.1670  0.0740
 8546W        W25393  11.824   8.251  13.186  0.0858  0.1176  0.0143
 8547W        W25394   0.229   2.435   3.412  0.0896 -0.0372  0.1188
 8548W        W25395   4.293   9.428  12.642 -0.1992  0.0956  0.1597
 8549W        W25396   8.970   4.486  12.061 -0.2110 -0.0972  0.1494
 8550W        W25397   5.997   5.923  10.980  0.1600  0.0042 -0.1280
 8551W        W25398   0.363  15.404   2.574  0.1369 -0.0088  0.3180
 8552W        W25399   7.317   7.226   1.099  0.2950 -0.0303 -0.1884
 8553W        W25400   7.737   7.502  10.813 -0.0820 -0.0243 -0.2566
 8554W        W25401  16.205   8.575   0.241  0.1262 -0.1468  0.0018
 8555W        W25402   0.760  11.745   0.306 -0.0078  0.0140 -0.0744
 8556W        W25403   1.748   9.172  13.706  0.1948  0.3427  0.2670
 8557W        W25404   5.665   7.329   3.101  0.1117 -0.1970  0.0383
 8558W        W25405   9.181   2.823  12.135 -0.1631 -0.1535  0.2166
 8559W        W25406  12.961  11.039   5.079 -0.0137 -0.0227  0.3011
 8560W        W25407   5.422  12.034  11.745  0.2918 -0.0598 -0.0839
 8561W        W25408  17.651  18.606  14.231  0.2600 -0.0154  0.0554
 8562W        W25409   7.132   5.734   3.248 -0.2087  0.1219 -0.1895
 8563W        W25410   3.163  16.982   0.403 -0.0933  0.1312  0.0928
 8564W        W25411  14.409  18.059  11.387  0.0732  0.0608 -0.1131
 8565W        W25412   9.416   3.956   3.568  0.2813 -0.2040  0.0511
 8566W        W25413  17.276   3.291   0.726 -0.0540 -0.0116 -0.0421
 8567W        W25414  16.794   9.662  13.218 -0.1080 -0.1945  0.0159
 8568W        W25415  16.088   9.905  12.112  0.0645  0.1856 -0.1542
 8569W        W25416  14.404   6.211  12.734 -0.1070  0.0450  0.2724
 8570W        W25417  12.469   8.435  11.287 -0.1725  0.3392 -0.2620
 8571W        W25418   3.556   4.609   3.591 -0.1060 -0.2462  0.1951
 8572W        W25419   3.791  11.593  11.487  0.0723  0.2972 -0.2717
 8573W        W25420   2.553  18.372   1.071  0.2497 -0.0845 -0.1978
 8574W        W25421  16.662   5.735  14.529  0.3482 -0.3715  0.1832
 8575W        W25422  18.681   2.028   1.504 -0.0624  0.0928 -0.2000
 8576W        W25423   5.965   9.911  11.523 -0.1305 -0.0954  0.1767
 8577W        W25424   1.443   8.318   1.904 -0.2267 -0.0494  0.2425
 8578W        W25425  18.885   0.405  10.927 -0.0508 -0.0939  0.1583
 8579W        W25426  12.352   6.076  14.743 -0.0822 -0.1411  0.1426
 8580W        W25427  12.369   0.127  12.959  0.2284  0.3495  0.3923
 8581W        W25428   5.189  12.072  12.620 -0.3727 -0.0453 -0.0147
 8582W        W25429   7.930  11.740  12.481 -0.2258  0.0473  0.0619
 8583W        W25430   9.712  12.292  13.725 -0.1967 -0.2541  0.1759
 8584W        W25431   0.734   1.513  11.022 -0.0262 -0.0064 -0.1334
 8585W        W25432  10.643   2.824  13.827  0.2122  0.0160  0.0101
 8586W        W25433   5.366   9.996   2.857 -0.3599 -0.1476  0.0218
 8587W        W25434  14.516   9.391   9.422  0.0758 -0.2707 -0.0218
 8588W        W25435   8.484  15.051  11.450  0.0845 -0.4126  0.2048
 8589W        W25436   2.787  16.776   2.678  0.1012  0.0553  0.2879
 8590W        W25437  14.041  17.248  11.837 -0.1342 -0.1743 -0.2447
 8591W        W25438  15.207  13.791  10.463  0.1883 -0.0226  0.4090
 8592W        W25439  14.121  12.115  11.710  0.2402  0.1979 -0.0589
 8593W        W25440   5.684  14.642   0.224  0.0457  0.0239 -0.0367
 8594W        W25441   6.606   1.846   5.152  0.3871 -0.1522 -0.3137
 8595W        W25442  13.100   4.076   0.975  0.2655 -0.3485 -0.1928
 8596W        W25443   2.432  15.916   1.664 -0.1666 -0.1450  0.2770
 8597W        W25444  10.543  15.276   3.759  0.2270 -0.1518  0.2589
 8598W        W25445  11.805  11.524   4.728 -0.0463  0.2912 -0.1554
 8599W        W25446  17.297   5.724   0.635 -0.2392  0.0209 -0.0909
 8600W        W25447  17.186  12.041   1.051 -0.1164  0.3445  0.4001
 8601W        W25448   1.333  12.755  12.481  0.0012 -0.2164 -0.2850
 8602W        W25449  14.196  12.952   4.632  0.1498  0.2080 -0.0762
 8603W        W25450   1.378  18.351  13.400 -0.1168  0.1961 -0.3249
 8604W        W25451   5.771   4.745  14.512 -0.1374  0.1197  0.0448
 8605W        W25452   2.385  15.873   0.603 -0.0787  0.2913  0.1962
 8606W        W25453  17.843   1.785  14.577  0.1648  0.0235  0.0817
 8607W        W25454  13.007   1.499  14.832 -0.1235  0.0648  0.1624
 8608W        W25455   0.745   3.681   4.776  0.0253 -0.1086 -0.0384
 8609W        W25456   8.914   2.267  12.293 -0.0614 -0.0923 -0.0063
 8610W        W25457   9.860  14.594   1.859  0.1973  0.0964 -0.2661
 8611W        W25458   6.154  13.355   3.129 -0.1479 -0.0911 -0.0656
 8612W        W25459  13.200   0.702  10.799  0.0858 -0.0683  0.1862
 8613W        W25460   6.044  14.698  12.773 -0.3497 -0.2774  0.0510
 8614W        W25461  10.467  14.125  14.426 -0.1026  0.4522  0.0841
 8615W        W25462  12.306  16.552  13.792 -0.0631  0.1754  0.3850
 8616W        W25463   7.300  14.909  11.958  0.1161  0.0877 -0.5148
 8617W        W25464  12.578   7.971   4.554  0.1563 -0.0083 -0.2338
 8618W        W25465   3.413   3.763  10.925 -0.0103  0.3676  0.3168
 8619W        W25466   1.130   1.865   3.807  0.0663 -0.1883  0.0527
 8620W        W25467   9.224   1.324   4.102  0.1523  0.2421  0.3489
 8621W        W25468  13.030   6.164  13.456  0.1410  0.0541 -0.2241
 8622W        W25469  14.150  15.674  13.030  0.0987 -0.0396 -0.0151
 8623W        W25470  16.270  18.345  12.349 -0.1301 -0.0118 -0.0955
 8624W        W25471  16.800  12.020   1.806 -0.1197  0.2315  0.0374
 8625W        W25472   2.924  12.015   3.754  0.0523 -0.2196 -0.0619
 8626W        W25473  12.506   4.873   1.056 -0.0341 -0.4154 -0.0313
 8627W        W25474  11.497   1.413   0.588  0.1722 -0.0643  0.0525
 8628W        W25475  17.342  12.511   3.925  0.1894  0.0250  0.0600
 8629W        W25476   4.200  12.450   3.026  0.0461 -0.2655  0.1225
 8630W        W25477   5.184  18.041  14.378  0.2146  0.3828  0.0259
 8631W        W25478   0.224   7.991  13.973 -0.0337 -0.2926  0.2590
 8632W        W25479  17.985   3.853  11.212  0.2277 -0.0794  0.2328
 8633W        W25480  19.089   4.460   1.750 -0.1139 -0.0720 -0.0428
 8634W        W25481   6.738  12.968  10.019  0.0816 -0.1996 -0.0628
 8635W        W25482   2.940  11.095  12.494  0.3260  0.0138  0.0871
 8636W        W25483  13.833  18.508   0.469  0.2397 -0.2005  0.1124
 8637W        W25484  13.960  15.384   0.909 -0.2671 -0.1309 -0.1236
 8638W        W25485  15.814   6.480   5.270 -0.2033  0.3300  0.1960
 8639W        W25486  14.981   6.286  14.313 -0.1301 -0.4309 -0.1484
 8640W        W25487  16.631   7.179   2.416 -0.2316 -0.0528  0.1403
 8641W        W25488   4.856   1.422  13.545  0.0284  0.2699 -0.2151
 8642W        W25489  12.429  15.319   2.700 -0.1240  0.1112  0.2557
 8643W        W25490  16.904  15.607  12.468  0.0809  0.0612  0.1595
 8644W        W25491   6.559   0.391  11.228 -0.2536  0.2585 -0.0163
 8645W        W25492  10.670   8.965  14.651  0.0897  0.4579  0.1163
 8646W        W25493   2.949   6.331  12.524 -0.2339 -0.0391 -0.0155
 8647W        W25494  18.883  15.111  13.858  0.2001 -0.0962  0.1074
 8648W        W25495  11.900  12.800  13.103 -0.0508  0.0200 -0.1201
 8649W        W25496   0.673  13.079  14.125  0.0180  0.0065 -0.0608
 8650W        W25497  17.251   8.006  10.511 -0.3298  0.1235 -0.0453
 8651W        W25498   4.485   6.025  14.905 -0.0526 -0.0481 -0.0376
 8652W        W25499  19.206  15.330   2.312  0.1387  0.1378 -0.2853
 8653W        W25500  13.222  17.506   0.928 -0.0941 -0.0156 -0.0374
 8654W        W25501   0.375  17.220  13.275 -0.0972  0.2392  0.1819
 8655W        W25502   2.569  10.666   4.058  0.3793  0.0331  0.0003
 8656W        W25503   6.419   1.257  13.628  0.1058  0.1304 -0.1098
 8657W        W25504  14.302  13.631  12.129 -0.2467  0.5292 -0.2066
 8658W        W25505  18.650  18.650  14.194  0.0761  0.5110  0.1059
 8659W        W25506   9.735  14.962   4.055  0.3951  0.3090  0.1403
 8660W        W25507  17.248  11.271  10.730  0.3696  0.0164 -0.1804
 8661W        W25508   1.038  15.470   4.572 -0.0932 -0.3202 -0.1782
 8662W        W25509   2.177   6.859  12.116  0.0838  0.2757 -0.1640
 8663W        W25510   0.353  16.066   4.438 -0.0845 -0.3476 -0.1616
 8664W        W25511   4.256   6.816   1.680 -0.0300  0.0771 -0.2245
 8665W        W25512  18.352   0.525   3.454  0.1051  0.0624  0.2521
 8666W        W25513   4.696   4.276  14.592 -0.0483 -0.1785  0.0434
 8667W        W25514  14.213  16.329   4.334 -0.0017 -0.0727  0.2906
 8668W        W25515   8.993   8.844   3.277 -0.0061  0.5107  0.1421
 8669W        W25516   9.441  16.036  14.280 -0.3384  0.0035  0.1454
 8670W        W25517  12.337  14.949   3.890  0.2552  0.0681 -0.1854
 8671W        W25518   9.076   1.700  13.942  0.0341 -0.1531  0.1860
 8672W        W25519   5.494   7.123   1.318  0.2295 -0.3154 -0.0246
 8673W        W25520   8.481   8.243  14.637  0.0188  0.1843  0.1321
 8674W        W25521   6.321   3.805  12.997 -0.2021  0.0956  0.2904
 8675W        W25522  14.536   1.689   1.767 -0.1673  0.1408 -0.2892
 8676W        W25523  13.395   5.656  12.737 -0.0086 -0.1281 -0.0046
 8677W        W25524  14.692   4.169   0.546 -0.3608  0.0584 -0.2988
 8678W        W25525  16.062   3.836   4.517  0.2613 -0.0625 -0.3379
 8679W        W25526   9.147  15.226  13.255 -0.1890  0.4165 -0.3080
 8680W        W25527  17.229   9.064  12.513  0.5114 -0.0581  0.4586
 8681W        W25528  16.961  11.984  11.878 -0.1776 -0.0164  0.3629
 8682W        W25529  15.548   5.116  10.425  0.0643 -0.3935  0.2533
 8683W        W25530   0.368  10.127   3.824  0.0755 -0.2024 -0.2432
 8684W        W25531  13.774  17.948   0.573 -0.0502 -0.0338 -0.1085
 8685W        W25532  16.708   2.299   2.612  0.0613 -0.2019 -0.1111
 8686W        W25533   5.622   0.121  13.115 -0.2351 -0.1402 -0.3294
 8687W        W25534   2.822  17.174   5.227 -0.1569 -0.0276 -0.1118
 8688W        W25535  19.249   6.247   1.573  0.0932 -0.0106  0.2205
 8689W        W25536   3.036   7.440  14.999  0.0765  0.0578 -0.2705
 8690W        W25537  15.237  15.069   0.396  0.0344  0.1672  0.2674
 8691W        W25538  10.912  14.192  11.770  0.0913  0.1108  0.1196
 8692W        W25539   5.692  17.322   4.634 -0.1720  0.3464 -0.0095
 8693W        W25540   6.490  10.304  11.657  0.0649 -0.0046  0.3123
 8694W        W25541   4.623   3.413  10.516  0.2143  0.3703  0.0201
 8695W        W25542  13.294  16.038   1.935 -0.2140  0.1563 -0.1063
 8696W        W25543   5.963  12.022  11.023  0.0481 -0.0019 -0.1775
 8697W        W25544   3.564  11.723   2.794  0.2020  0.1098 -0.3444
 8698W        W25545  19.200  12.195  10.321  0.0358  0.0128  0.1612
 8699W        W25546  10.933  17.831   3.494  0.1851  0.3263  0.1976
 8700W        W25547  12.595   5.062   1.817  0.2360  0.1199 -0.2976
 8701W        W25548  11.498  18.314   4.658 -0.0514 -0.1444  0.1152
 8702W        W25549   8.035   0.218  11.240 -0.2895  0.1128 -0.1953
 8703W        W25550   6.235   2.922   1.365 -0.1345  0.0887  0.2199
 8704W        W25551  18.693  10.907   0.931  0.2467  0.1038 -0.0493
 8705W        W25552   0.536  12.053   1.393 -0.0853 -0.2572 -0.0610
 8706W        W25553   0.098  15.913   0.907 -0.2103 -0.2684  0.1372
 8707W        W25554   1.919  16.869   5.308  0.1290 -0.0702  0.0715
 8708W        W25555  18.774  17.972   2.003 -0.0801  0.2700 -0.0023
 8709W        W25556  15.313   5.527  14.812 -0.0286  0.0535 -0.0688
 8710W        W25557   1.091   9.842   3.307  0.0690  0.0887 -0.3847
 8711W        W25558  14.127  13.854   4.340  0.2450 -0.0097  0.0866
 8712W        W25559   4.882  16.955  10.977 -0.4499  0.0521 -0.2029
 8713W        W25560   6.123  12.542  11.711  0.1740  0.2366  0.0906
 8714W        W25561   3.869  12.795   2.261  0.3094  0.1812  0.0615
 8715W        W25562  17.951  10.313   4.535 -0.0461  0.1827  0.0710
 8716W        W25563  10.252  13.820  13.266  0.2904  0.0565 -0.1142
 8717W        W25564   8.900   1.543   3.698  0.1534  0.2742  0.4151
 8718W        W25565   8.498  17.767  10.917 -0.1040 -0.1679 -0.0986
 8719W        W25566  10.960  16.193   0.545  0.0441  0.1107  0.0579
 8720W        W25567   8.908   3.203  11.942 -0.3668 -0.1475  0.2865
 8721W        W25568  15.268  12.427   4.756  0.1711  0.2528 -0.0839
 8722W        W25569   4.230  12.541  12.525 -0.2539  0.1237 -0.1979
 8723W        W25570   9.922   3.262   0.817  0.0730 -0.0580 -0.0980
 8724W        W25571  10.074   3.501   9.972  0.1297  0.2375  0.2171
 8725W        W25572   1.836   8.655   1.899 -0.5243  0.1858  0.0791
 8726W        W25573  12.207  11.316  14.584 -0.0056 -0.2777 -0.2921
 8727W        W25574  17.926  19.149   3.899  0.0695 -0.2621 -0.1857
 8728W        W25575   9.049  14.283  11.413  0.4741 -0.2098 -0.1439
 8729W        W25576   0.672   2.381  13.329 -0.0911 -0.2861  0.2592
 8730W        W25577   3.444   6.966  13.164  0.1097  0.0792 -0.0089
 8731W        W25578   4.676   5.869  12.004  0.1518  0.1570  0.1382
 8732W        W25579  11.217   1.947  14.870 -0.1692 -0.1967  0.3515
 8733W        W25580  17.303  13.952  10.729  0.1621  0.0167 -0.1154
 8734W        W25581  17.617  10.174  12.862 -0.0151  0.0126 -0.0481
 8735W        W25582   9.852   8.316   3.490 -0.2699 -0.2747 -0.0695
 8736W        W25583  18.568   2.846  11.928 -0.3419  0.0496  0.0891
 8737W        W25584   3.540  10.138   2.131  0.0279  0.1072 -0.3394
 8738W        W25585   8.816   5.949  11.190 -0.0978  0.1173  0.0007
 8739W        W25586  11.224   4.934  11.334 -0.0203  0.1982 -0.0316
 8740W        W25587   4.363   4.101   1.828 -0.0888  0.1081  0.0616
 8741W        W25588  11.046   5.908   0.950 -0.1832  0.1810  0.2378
 8742W        W25589   3.167   8.074   4.324  0.0266 -0.1875 -0.0400
 8743W        W25590   0.946   9.609   1.018 -0.0307 -0.1059  0.0219
 8744W        W25591  16.201   6.217   3.586 -0.2854 -0.0719 -0.2521
 8745W        W25592   7.130   6.555  12.704  0.0121  0.2433 -0.1968
 8746W        W25593  11.739  10.847   1.047 -0.1853  0.1965 -0.3950
 8747W        W25594   3.652  10.631  12.958 -0.2053 -0.0450 -0.0067
 8748W        W25595  11.249   5.870   4.875  0.1390 -0.1496  0.1299
 8749W        W25596  17.548   6.230   0.011 -0.2710  0.0241 -0.0534
 8750W        W25597  16.009   1.354   1.844  0.1689 -0.1880  0.2662
 8751W        W25598   3.717   6.538   3.607  0.2350 -0.1685  0.0309
 8752W        W25599  15.974  14.788   1.852  0.2511 -0.1957 -0.1820
 8753W        W25600   5.400   4.201  12.653 -0.1814 -0.2313  0.1393
 8754W        W25601   7.983   4.667  11.298 -0.0603 -0.0077 -0.0887
 8755W        W25602  16.115   2.717   0.172 -0.1907  0.3862 -0.2210
 8756W        W25603  16.795   3.731   0.972 -0.2033  0.0368 -0.0941
 8757W        W25604   5.764  16.228  12.816  0.1564  0.1768 -0.1860
 8758W        W25605   2.417  12.398  13.310 -0.0642 -0.2164  0.0427
 8759W        W25606   2.955   5.470  10.960  0.0855  0.1364  0.0083
 8760W        W25607   5.489   4.691   4.951  0.0037 -0.0034 -0.0231
 8761W        W25608  13.968   6.629   3.032 -0.0485 -0.1877  0.2585
 8762W        W25609  12.315   1.593   5.630  0.1461  0.0123  0.0181
 8763W        W25610   0.875   0.496  11.383  0.2064  0.0817  0.1742
 8764W        W25611   1.609  15.359   0.489  0.2590 -0.2121  0.0448
 8765W        W25612  16.714   1.542   2.711 -0.0997 -0.0322  0.1395
 8766W        W25613  13.565   5.726  14.644  0.0576  0.1212  0.0164
 8767W        W25614  11.323  13.373   0.535  0.1022 -0.0232  0.2596
 8768W        W25615  11.166  12.044   5.496 -0.1011  0.0021  0.1337
 8769W        W25616   5.350   6.965  12.478 -0.2191 -0.0415  0.0141
 8770W        W25617  17.498  19.123   2.501 -0.3655  0.1608 -0.2440
 8771W        W25618  18.653  12.854   0.325  0.1983  0.0701  0.0683
 8772W        W25619  13.285  13.676   4.909  0.0092 -0.1097 -0.0101
 8773W        W25620   4.423   1.043   5.442  0.2026  0.3677 -0.1078
 8774W        W25621   7.898  17.701  13.603 -0.3529 -0.1008  0.3443
 8775W        W25622  14.944   5.225  12.068 -0.2015  0.0346  0.0506
 8776W        W25623   9.659   8.567  10.278 -0.4234 -0.2839  0.2348
 8777W        W25624   7.990  14.015  13.898 -0.1976  0.1099  0.0289
 8778W        W25625   9.148   3.253   2.942 -0.4232 -0.0095 -0.2254
 8779W        W25626  15.348   2.364  11.208  0.1518  0.0818 -0.1314
 8780W        W25627   3.654   3.189   1.755  0.0367  0.2670 -0.1941
 8781W        W25628  14.020  15.484   1.823 -0.3482 -0.1066  0.1050
 8782W        W25629  13.725   9.019   3.918 -0.0013 -0.0573  0.1779
 8783W        W25630   1.427   8.320   9.780  0.0609 -0.0964 -0.1652
 8784W        W25631   9.626  12.101  14.197 -0.0567  0.0116  0.1921
 8785W        W25632  19.266   5.333  12.145  0.3006 -0.1178 -0.0304
 8786W        W25633  16.679  17.629  10.839  0.0503  0.1933  0.1038
 8787W        W25634  14.955  14.718   2.267  0.0838 -0.1782 -0.1050
 8788W        W25635  16.505   8.551   3.702  0.1246  0.1083  0.1689
 8789W        W25636  12.362   1.147   3.687 -0.1735  0.0805 -0.0471
 8790W        W25637   4.148   7.350  12.065  0.1221  0.2525 -0.2850
 8791W        W25638  11.761   9.197   2.121  0.4186  0.2204 -0.0495
 8792W        W25639   9.754   5.194   1.777  0.3738  0.1660 -0.0912
 8793W        W25640  17.572   3.205   1.130 -0.0957 -0.2884  0.2913
 8794W        W25641   1.311  14.880  12.389  0.0534  0.1288  0.0095
 8795W        W25642  18.878   4.762   2.044 -0.0093  0.1708  0.0757
 8796W        W25643   8.150  17.049  11.101 -0.2787  0.2697 -0.1245
 8797W        W25644   3.620  10.492  10.635 -0.1066  0.0635  0.0507
 8798W        W25645   8.586  13.480   1.584  0.1970  0.1658  0.1503
 8799W        W25646  18.355   5.442   3.538  0.0344  0.2021  0.0597
 8800W        W25647   9.356  12.909   1.431  0.4555  0.0779  0.0323
 8801W        W25648   1.945   4.921   0.251  0.0202  0.2169  0.0309
 8802W        W25649  14.306  18.886  10.125  0.1347  0.1020 -0.0160
 8803W        W25650   1.748   5.806  11.817  0.2739  0.1180 -0.0255
 8804W        W25651  15.155   0.596   1.911  0.1863  0.1520  0.0445
 8805W        W25652  18.737  10.184  10.758 -0.0920  0.0991 -0.3052
 8806W        W25653   5.298   4.671   3.963  0.2672  0.0023  0.0161
 8807W        W25654  13.920   7.537   1.928  0.3208 -0.1422  0.0940
 8808W        W25655  18.169  15.683  12.535 -0.1382  0.2223 -0.0847
 8809W        W25656   7.412   7.892  10.666  0.0452 -0.0573 -0.0564
 8810W        W25657   0.483  14.197  10.691 -0.1033  0.0989 -0.0308
 8811W        W25658  14.214  13.896   0.964  0.1940 -0.2261  0.1262
 8812W        W25659  15.505   1.843   1.912  0.0057  0.0464  0.0374
 8813W        W25660  10.055  11.987   1.685 -0.1358 -0.0073  0.2634
 8814W        W25661   5.171   2.326  14.738  0.1849  0.2750  0.3237
 8815W        W25662   0.140   4.973  13.316  0.1658  0.1146 -0.1495
 8816W        W25663  18.274   6.900  10.714 -0.0698 -0.0057  0.0577
 8817W        W25664  17.871  14.387   0.608 -0.2201 -0.1398 -0.1621
 8818W        W25665  15.214   7.239  14.847  0.0505  0.0048  0.1859
 8819W        W25666  13.513  13.638   1.482  0.0915  0.3283 -0.0462
 8820W        W25667  12.498   6.242   4.800 -0.1178  0.1709 -0.0541
 8821W        W25668   0.803   3.414  10.824 -0.1608 -0.1679 -0.2854
 8822W        W25669  16.270   5.950  14.795 -0.2415 -0.0445 -0.1266
 8823W        W25670   2.464  11.426   0.822 -0.0359 -0.0071  0.1648
 8824W        W25671  18.655  18.634   0.771 -0.1670 -0.1641  0.0572
 8825W        W25672  18.461   3.929  10.479  0.0507  0.1018 -0.0512
 8826W        W25673  11.283  14.036  12.202 -0.2514  0.1547 -0.0604
 8827W        W25674  10.767   9.985   3.825  0.2511  0.0158 -0.1308
 8828W        W25675   6.253  10.348  14.498  0.1112 -0.2060  0.2930
 8829W        W25676  12.276  17.787   3.505  0.2438  0.0320  0.2317
 8830W        W25677   4.443  13.998  10.319 -0.0643  0.0886 -0.0817
 8831W        W25678   1.664   4.181   1.884  0.4098 -0.0810 -0.3526
 8832W        W25679   5.075   3.773  10.684  0.0855  0.1547  0.0050
 8833W        W25680   9.305   6.628  14.841  0.0978 -0.1501  0.1376
 8834W        W25681  17.855   7.892  14.770 -0.3453 -0.2866 -0.0185
 8835W        W25682  16.668  19.061  13.465  0.0559  0.0557  0.0429
 8836W        W25683  18.340  18.545   1.519  0.1700 -0.3255  0.1653
 8837W        W25684   4.752  11.408   0.898 -0.0647 -0.0805  0.2004
 8838W        W25685  10.732  12.226  12.007  0.0422  0.3680 -0.1977
 8839W        W25686  16.338   2.907   1.576  0.2152 -0.1264 -0.1043
 8840W        W25687   5.926  11.212  11.444 -0.2194 -0.0047  0.0770
 8841W        W25688  13.580  16.864   5.020 -0.0959 -0.4898 -0.1316
 8842W        W25689   7.227  17.488   1.821 -0.0727 -0.0983 -0.1926
 8843W        W25690  14.286   6.484   0.851 -0.1700  0.0530  0.2175
 8844W        W25691  12.839  18.385   1.197 -0.1220 -0.2358 -0.2448
 8845W        W25692  11.547  12.994  11.859 -0.2563  0.1297 -0.0945
 8846W        W25693   7.169  15.631  12.331  0.3618  0.4203 -0.2594
 8847W        W25694  18.768   1.743   4.046  0.3541 -0.0859 -0.1828
 8848W        W25695  13.424  10.479   4.037  0.1132 -0.2401 -0.1130
 8849W        W25696   7.440   9.556  11.875  0.1961  0.0691 -0.1746
 8850W        W25697   6.554   3.529  10.119 -0.1971 -0.3672  0.2549
 8851W        W25698   3.685  12.238   9.697 -0.3827  0.0733  0.3263
 8852W        W25699  16.522  14.545   5.891 -0.3510 -0.2055  0.0011
 8853W        W25700   7.850  10.675   2.238 -0.0960  0.2678 -0.0389
 8854W        W25701  17.439   9.276  12.999 -0.0937 -0.1676  0.0020
 8855W        W25702   6.270   4.247  11.841 -0.0207  0.0045  0.0512
 8856W        W25703  16.661   2.223   4.136 -0.0276 -0.3470 -0.2091
 8857W        W25704   3.945  16.792   0.708  0.1272  0.0415 -0.0282
 8858W        W25705   1.516   0.185  13.203  0.0426 -0.1781 -0.1867
 8859W        W25706   6.408  17.082  10.386  0.0425 -0.0083  0.0123
 8860W        W25707   0.482  17.500  12.390  0.1104 -0.2417 -0.2204
 8861W        W25708   7.137   2.938  12.435  0.3555  0.2076  0.3048
 8862W        W25709  16.012   5.916  12.706 -0.0557  0.0717 -0.1678
 8863W        W25710  19.016   6.165   3.451 -0.0780  0.0372  0.1140
 8864W        W25711  18.934   4.861  13.433 -0.0901 -0.1500  0.0206
 8865W        W25712  17.026  13.361   2.241 -0.0559  0.1439  0.0373
 8866W        W25713   7.889   2.965  13.098 -0.1325 -0.0083  0.1251
 8867W        W25714   0.217   9.505   4.503 -0.1355  0.2170  0.1630
 8868W        W25715   5.016  18.549  10.515 -0.1826  0.4644 -0.0222
 8869W        W25716   5.633   3.879  10.960  0.2416  0.4239 -0.3294
 8870W        W25717  14.472  16.622   1.233 -0.2829  0.0501 -0.0976
 8871W        W25718  15.833  12.747  13.630 -0.0466 -0.2535 -0.1952
 8872W        W25719   9.037  11.181  11.591  0.1513 -0.0181 -0.2748
 8873W        W25720   1.620   1.998  13.820  0.2555  0.1882 -0.2480
 8874W        W25721  16.560   7.204   1.909  0.0178 -0.2366  0.0556
 8875W        W25722  11.083  16.370   5.114  0.0944 -0.0768  0.2396
 8876W        W25723  16.876  10.858   2.869  0.0023  0.1624  0.2684
 8877W        W25724   1.167  13.208   0.862 -0.3352  0.2299 -0.1201
 8878W        W25725  16.552   6.298   1.006  0.1187  0.2203 -0.0765
 8879W        W25726  17.703  11.640  12.559  0.2151  0.1077 -0.0084
 8880W        W25727  15.592   5.839  10.494 -0.1634  0.0935 -0.0451
 8881W        W25728  11.553   7.065  12.960  0.3725  0.4202 -0.3147
 8882W        W25729  13.295   6.832   2.419 -0.0782  0.0769  0.2819
 8883W        W25730   3.618  11.680   3.700 -0.1717 -0.1506 -0.1734
 8884W        W25731   2.073   0.749   1.321  0.4902  0.0209  0.0641
 8885W        W25732   2.777  19.180  11.826 -0.0542  0.0317 -0.1177
 8886W        W25733   0.320   9.385  12.130  0.0780  0.0856 -0.1915
 8887W        W25734  10.443   2.004   2.033 -0.0607  0.0915  0.0312
 8888W        W25735   3.780   9.127  14.528  0.3529  0.0022 -0.1169
 8889W        W25736   2.283   0.319   3.631 -0.3750  0.1245 -0.0143
 8890W        W25737  15.165  17.293   1.254  0.2672  0.0879  0.0357
 8891W        W25738   4.703  13.154   0.971  0.0267  0.2054  0.2491
 8892W        W25739   6.470  17.317   0.510  0.3297 -0.1269  0.0010
 8893W        W25740  14.383   1.350   2.115  0.1191 -0.0309 -0.0011
 8894W        W25741   7.845   9.899   1.129 -0.2141 -0.1356  0.2106
 8895W        W25742  19.139   0.328   2.091 -0.0084 -0.2484 -0.0592
 8896W        W25743   7.553   0.532  11.988  0.0420  0.2475 -0.0059
 8897W        W25744   1.362  18.643   0.391 -0.2726 -0.1138 -0.4387
 8898W        W25745  15.017  17.703  14.961  0.0041  0.0049  0.2305
 8899W        W25746   0.466  19.184   4.035 -0.2553 -0.0177  0.0776
 8900W        W25747  12.326  16.503   2.650  0.0532 -0.1128 -0.1554
 8901W        W25748   5.379   1.697   0.822 -0.0040  0.1969  0.0867
 8902W        W25749  12.325   7.390  11.962  0.0509  0.1039  0.0599
 8903W        W25750   0.087  16.518   0.053  0.0607  0.0328  0.0580
 8904W        W25751  18.063  15.620  10.918 -0.0063 -0.0344  0.2026
 8905W        W25752   1.208  11.009  14.987 -0.2789 -0.2322 -0.0895
 8906W        W25753  11.054   7.407   1.742 -0.0352  0.0239 -0.0889
 8907W        W25754  16.423  17.209   3.461 -0.4022 -0.0406  0.1272
 8908W        W25755   9.791   9.729  12.093  0.0162 -0.2314 -0.2173
 8909W        W25756   8.894   8.545   3.701 -0.0277  0.1453  0.3008
 8910W        W25757   7.474   5.505  13.624 -0.1349  0.3122 -0.0902
 8911W        W25758   7.132   8.654   2.534  0.0084  0.0078 -0.1028
 8912W        W25759   2.355  12.960   2.255 -0.0064 -0.3197  0.0209
 8913W        W25760  13.161  13.372   3.100  0.0318 -0.3150  0.2303
 8914W        W25761   3.065  12.793  14.215  0.1932  0.0846 -0.1628
 8915W        W25762  10.668  17.102   0.362  0.1669 -0.0377 -0.2159
 8916W        W25763  10.693   2.804   4.962  0.0084  0.0920 -0.2518
 8917W        W25764  18.967  10.404  14.958  0.2955  0.0151 -0.0590
 8918W        W25765   9.745  14.160   3.472  0.1262 -0.4121 -0.3336
 8919W        W25766   7.283  17.460   0.986  0.1822 -0.1507 -0.2105
 8920W        W25767   0.864  15.187   2.271  0.0221  0.0067 -0.0328
 8921W        W25768  15.571   5.494  13.887 -0.0820  0.1832  0.4557
 8922W        W25769   4.643   5.408  13.187 -0.0502  0.3514 -0.0236
 8923W        W25770   7.028   1.551  11.873 -0.0084  0.2837  0.0310
 8924W        W25771   5.054   4.457  12.433 -0.0530 -0.1282 -0.2189
 8925W        W25772   5.676   2.807  14.072  0.1597 -0.0229 -0.0240
 8926W        W25773  18.393   1.938  13.773  0.1316  0.0512  0.0058
 8927W        W25774   2.601  17.235   3.038  0.0504  0.0663 -0.2369
 8928W        W25775  12.229  13.520   3.267  0.1227 -0.0557 -0.1631
 8929W        W25776  17.239   3.994   1.708  0.2258 -0.1621 -0.2706
 8930W        W25777   3.382   2.155   2.185 -0.2168  0.0996  0.0923
 8931W        W25778   9.879  11.629   1.372  0.1876 -0.0195  0.0173
 8932W        W25779  10.270   1.194   4.008 -0.0878  0.2031  0.1688
 8933W        W25780  15.209  15.466   5.068 -0.2027  0.0796 -0.1444
 8934W        W25781  14.118   7.401   4.971 -0.1057  0.1538 -0.3451
 8935W        W25782  10.649   8.382  12.107 -0.0796 -0.1541 -0.1456
 8936W        W25783   1.594  18.284   1.594 -0.2100 -0.0019 -0.0841
 8937W        W25784   0.625   3.821  10.367  0.3417 -0.1085 -0.1696
 8938W        W25785  11.031   9.728  11.778 -0.0008 -0.1767  0.0909
 8939W        W25786   7.581  10.299   1.330  0.1350  0.0047 -0.0944
 8940W        W25787   1.272   8.785   4.645  0.1333 -0.1531 -0.1875
 8941W        W25788   2.429   3.133  10.718 -0.0269  0.0724 -0.1127
 8942W        W25789   2.083  12.626   1.672  0.0566  0.1257 -0.2077
 8943W        W25790   9.001  15.434   1.845 -0.1774  0.1806 -0.1734
 8944W        W25791  11.618   2.556   3.141 -0.3176 -0.2103  0.2216
 8945W        W25792   7.999  13.386   4.711 -0.1889 -0.0280  0.0312
 8946W        W25793   6.567  16.530   1.664 -0.2276 -0.1496  0.0983
 8947W        W25794   0.614  12.820   5.342 -0.2028 -0.2709  0.0490
 8948W        W25795   0.836  12.188  10.347  0.2363 -0.3152  0.0961
 8949W        W25796   5.172  16.784   0.878  0.1787 -0.0468  0.1613
 8950W        W25797  19.037  14.740   5.466 -0.2031  0.2005  0.1514
 8951W        W25798   0.210   9.644  10.988 -0.0861 -0.0754  0.1382
 8952W        W25799   4.785   8.969  11.866 -0.0073 -0.0411  0.2314
 8953W        W25800  17.774   3.461   2.802  0.0906 -0.0953 -0.3838
 8954W        W25801   2.975  10.938  10.631 -0.0929 -0.1617  0.1384
 8955W        W25802  14.479   0.868  13.346  0.2209 -0.0800 -0.1159
 8956W        W25803  16.509   0.745  14.698 -0.0767 -0.3615  0.1558
 8957W        W25804   0.934  15.515   0.896 -0.1171  0.2036  0.1701
 8958W        W25805   6.167  12.312   3.148  0.2419 -0.0112  0.1852
 8959W        W25806   2.819  17.672   2.963  0.0177 -0.0323 -0.0168
 8960W        W25807  15.860   9.208   4.060  0.0757  0.1205  0.1042
 8961W        W25808  12.659  19.116   1.909  0.2135 -0.1517 -0.3120
 8962W        W25809   9.776  13.047   1.715 -0.0216 -0.0153 -0.0081
 8963W        W25810   5.027   8.110   4.516  0.1809 -0.4969  0.1548
 8964W        W25811  12.148   2.872  11.318  0.0796 -0.2620  0.0655
 8965W        W25812  15.682  10.879   2.063 -0.0215 -0.0376  0.1888
 8966W        W25813  11.037  12.448   2.670 -0.0533  0.0892 -0.1308
 8967W        W25814  13.131  15.888   4.557 -0.2880  0.1567 -0.0231
 8968W        W25815  12.496  10.605   3.851  0.0777  0.0711 -0.2493
 8969W        W25816   3.017  14.083   0.015  0.1933 -0.2476  0.1405
 8970W        W25817   9.851  14.126   4.789 -0.3509 -0.1594 -0.1854
 8971W        W25818   9.342   5.088   4.727  0.2086 -0.0583 -0.1345
 8972W        W25819  15.351   7.511   3.696  0.1380 -0.1188  0.1141
 8973W        W25820   6.183  16.287  13.906  0.2024 -0.0050 -0.0531
 8974W        W25821  18.599  12.731  12.893 -0.5090 -0.2136  0.1603
 8975W        W25822  18.745  10.444   0.409  0.2933  0.0040  0.1372
 8976W        W25823   8.573  15.851   3.968 -0.1472 -0.0895 -0.1920
 8977W        W25824  15.071  13.871  13.763  0.2694  0.1340 -0.0697
 8978W        W25825  12.124  13.953   0.374  0.2222 -0.1662 -0.0889
 8979W        W25826  12.481   3.181   0.170  0.2444 -0.1607 -0.0425
 8980W        W25827  11.337   6.720  13.770 -0.1934  0.1373  0.1539
 8981W        W25828   0.474  12.011  11.020 -0.1684  0.0571  0.1903
 8982W        W25829  13.146   3.811   4.841 -0.0319  0.1547  0.0613
 8983W        W25830  13.008   8.167   4.820  0.0968 -0.3794  0.1200
 8984W        W25831  13.816   2.315   2.738 -0.0143 -0.0417 -0.1641
 8985W        W25832   9.814  13.535  12.329  0.0506  0.3440 -0.4100
 8986W        W25833  18.791   7.130   1.875  0.1781 -0.0526 -0.3582
 8987W        W25834   0.975   6.630   3.861 -0.4818  0.1409 -0.0881
 8988W        W25835   6.818   4.995   3.603 -0.0599 -0.1455 -0.2812
 8989W        W25836  15.562  18.723   0.888 -0.0323  0.3741 -0.4516
 8990W        W25837  10.112  18.957   5.291 -0.3360 -0.2539  0.1606
 8991W        W25838   2.633   9.962   1.240 -0.0912 -0.1554  0.1095
 8992W        W25839  14.639   7.253   5.024  0.1063 -0.0910  0.1231
 8993W        W25840  18.737   7.227  13.233 -0.4055  0.0169  0.0032
 8994W        W25841   0.080   9.592  12.897  0.2125 -0.1047  0.1614
 8995W        W25842   3.721   2.590   3.351 -0.1657  0.0338  0.0129
 8996W        W25843  15.467   6.960   0.963  0.0280  0.1801  0.1185
 8997W        W25844  17.242   8.960   1.121  0.1966 -0.2211  0.0561
 8998W        W25845  16.045  11.756  13.289 -0.1226  0.0312 -0.0258
 8999W        W25846   2.235   8.804  11.589  0.2244  0.1018  0.2630
 9000W        W25847   4.029   4.391  12.411 -0.2226 -0.1106 -0.2615
 9001W        W25848   5.061   5.029  12.477 -0.2924  0.0582  0.3136
 9002W        W25849  16.343  18.046   2.062  0.1820 -0.1847 -0.2940
 9003W        W25850   2.754  11.860   4.255  0.1509  0.2051 -0.1628
 9004W        W25851   8.588   8.195  11.260 -0.0210  0.0037  0.2574
 9005W        W25852  12.109  15.562   0.754 -0.2195  0.1864 -0.3088
 9006W        W25853  17.477   2.712  10.849 -0.0602 -0.5056  0.2588
 9007W        W25854   4.043   4.983   4.770  0.1795  0.1508  0.1108
 9008W        W25855   5.422  17.768   4.506  0.1199  0.1335 -0.0261
 9009W        W25856   3.636  13.077   9.530 -0.0469 -0.0991 -0.1430
 9010W        W25857  16.789  16.447   4.625 -0.1484 -0.0137  0.0317
 9011W        W25858   1.196  12.338   3.310 -0.1198 -0.0710 -0.2629
 9012W        W25859  12.855   6.607   1.135 -0.1824  0.2369  0.0141
 9013W        W25860   8.840   7.007   3.869 -0.1722  0.2358  0.2740
 9014W        W25861  11.878   0.112   2.523 -0.2152 -0.4134 -0.2522
 9015W        W25862   4.098   5.564   3.472 -0.0867  0.0029  0.0590
 9016W        W25863  12.708   5.788   9.245  0.0238  0.3615  0.3931
 9017W        W25864   5.328  19.081  13.258  0.1774  0.1809  0.0617
 9018W        W25865   8.890   8.140  13.475  0.0260 -0.0810 -0.1352
 9019W        W25866  11.847   7.600   0.431 -0.1062  0.0461  0.2574
 9020W        W25867  18.107   2.142   3.520 -0.2334 -0.3328  0.1903
 9021W        W25868   9.081   5.203   0.474 -0.0099  0.1543  0.2724
 9022W        W25869  15.690   0.447   0.597 -0.0002  0.2473  0.1763
 9023W        W25870  18.557  10.901  11.686  0.0244 -0.0263 -0.0648
 9024W        W25871  15.153   3.107   1.181 -0.1631  0.3671 -0.0146
 9025W        W25872  18.978   9.631   3.298 -0.3139 -0.2184 -0.0195
 9026W        W25873  16.029  14.082  12.210 -0.1726  0.1927  0.0837
 9027W        W25874  10.235   6.513   4.204 -0.1374  0.2730 -0.1822
 9028W        W25875   8.887   9.344   5.322 -0.2400  0.1153  0.0779
 9029W        W25876   7.256   3.388  14.779 -0.0870 -0.2513 -0.0096
 9030W        W25877   0.967   4.042   3.617 -0.2087 -0.1866  0.1777
 9031W        W25878   7.983  12.215  11.239  0.1825  0.0200  0.0718
 9032W        W25879   7.094   3.807   0.392 -0.3921  0.0854 -0.1345
 9033W        W25880  19.279   9.227  14.267 -0.0207 -0.0850  0.1033
 9034W        W25881   3.876  14.159  10.588 -0.2286  0.0466  0.1766
 9035W        W25882   8.417   8.631   1.395  0.2987  0.3270  0.1825
 9036W        W25883   9.787  10.883   0.656 -0.1009  0.0551 -0.2837
 9037W        W25884   8.198  18.987  12.419  0.1887 -0.0853  0.1495
 9038W        W25885   2.239  13.380  13.508  0.5178 -0.1742  0.1204
 9039W        W25886   5.716   7.633  10.714 -0.0121  0.1296 -0.1371
 9040W        W25887   9.817   2.149  12.702  0.0714 -0.0543 -0.1174
 9041W        W25888  13.685   2.150  13.557 -0.0000  0.4331 -0.1115
 9042W        W25889   6.573   3.376  11.072  0.0080  0.0119  0.0053
 9043W        W25890   3.246  19.010  10.527 -0.2869 -0.3072 -0.0151
 9044W        W25891  11.070  15.623  12.044 -0.0690  0.2363 -0.2179
 9045W        W25892   3.601  10.226  13.938 -0.0254  0.1310  0.0466
 9046W        W25893  12.625   6.349   3.196  0.2578  0.5330 -0.1509
 9047W        W25894   6.958   0.450  13.638  0.2009 -0.0196  0.2686
 9048W        W25895   6.944   6.530   4.781 -0.1009 -0.1277 -0.2045
 9049W        W25896   4.759   9.331  13.622 -0.4156 -0.3536  0.0473
 9050W        W25897  12.002   6.075  12.804  0.0183 -0.3012 -0.2039
 9051W        W25898   0.726  15.363  10.225  0.1103  0.3329 -0.1121
 9052W        W25899   0.210  18.935  14.821 -0.1726 -0.2068  0.0414
 9053W        W25900   0.991  12.838  11.918  0.2066  0.0222  0.1575
 9054W        W25901  11.114   9.075   3.622  0.0172 -0.1236  0.0981
 9055W        W25902   5.987   9.140   4.985 -0.0192 -0.0514 -0.0799
 9056W        W25903  16.220  17.635   0.444  0.1433  0.1058  0.0130
 9057W        W25904  17.199   4.714  10.494  0.2335  0.2091  0.0104
 9058W        W25905  12.872  12.350   3.868 -0.0552  0.1568  0.1864
 9059W        W25906   9.885  13.697  10.579 -0.1036 -0.0894  0.0044
 9060W        W25907  17.025   4.140   9.686 -0.1594 -0.2041 -0.1235
 9061W        W25908  11.078   7.311  11.341 -0.2646  0.1428  0.2314
 9062W        W25909   2.744   6.586   1.486 -0.0887  0.0651  0.1639
 9063W        W25910  11.690  14.253   5.187 -0.0551 -0.1300  0.0446
 9064W        W25911  10.352   4.271   4.547  0.0512 -0.1380  0.0043
 9065W        W25912  15.172   1.216   1.320 -0.0796  0.2015 -0.2470
 9066W        W25913   9.400   7.904  11.473 -0.0501  0.0468  0.0628
 9067W        W25914  19.112   4.931  12.880  0.2197 -0.3023  0.0953
 9068W        W25915   4.562  14.799  13.792  0.0715  0.0981 -0.0994
 9069W        W25916  12.438  16.386   4.249  0.0869 -0.2530  0.0777
 9070W        W25917   2.070  16.063   3.941  0.0795  0.0517 -0.0749
 9071W        W25918   6.595   9.179  10.735 -0.0384 -0.0354  0.0823
 9072W        W25919   0.545   0.733   3.556 -0.1286 -0.0282  0.0007
 9073W        W25920   8.183   0.723   0.471  0.0643 -0.1933 -0.0139
 9074W        W25921   3.107  16.450   9.292 -0.0592 -0.3218 -0.0986
 9075W        W25922   8.318   7.225   2.199 -0.4243 -0.0318  0.0328
 9076W        W25923  17.694  11.010   0.028 -0.2310  0.1089 -0.1375
 9077W        W25924  12.928  14.022   4.981  0.0493 -0.3297 -0.0011
 9078W        W25925   6.206   3.030   3.453  0.1957  0.0953  0.2204
 9079W        W25926  15.615   6.836   2.021 -0.0552  0.1069 -0.3523
 9080W        W25927   7.309  15.920  13.791  0.0394 -0.1994 -0.0735
 9081W        W25928   8.004  17.008   0.254  0.1811  0.0583 -0.1646
 9082W        W25929   1.894  15.227   1.944 -0.0403 -0.0270  0.0777
 9083W        W25930   9.991   5.677  15.010  0.0891 -0.0494  0.4270
 9084W        W25931   5.022  12.321   4.954 -0.1691 -0.1174  0.1104
 9085W        W25932   5.017  18.329  13.565 -0.0473 -0.2360  0.0122
 9086W        W25933   7.337  16.763   4.044 -0.2713 -0.1197 -0.0267
 9087W        W25934  18.819   6.731   0.059 -0.3694  0.0201  0.0584
 9088W        W25935   1.009   3.277   4.696 -0.0711 -0.1255  0.1416
 9089W        W25936   4.206   9.554  13.811  0.0930  0.2436  0.3401
 9090W        W25937   1.674   7.759   0.466  0.1318 -0.3070  0.1052
 9091W        W25938   9.804   4.433  11.807  0.1382 -0.2382  0.0672
 9092W        W25939   3.066   6.009   3.452  0.1354 -0.0070 -0.2554
 9093W        W25940  13.247  18.618   3.319 -0.0737  0.2478 -0.0105
 9094W        W25941   7.027  11.857   4.375 -0.1578  0.1773 -0.4012
 9095W        W25942   8.878   6.748   2.649 -0.0133  0.0303 -0.0851
 9096W        W25943   1.654  12.186  13.075 -0.1042 -0.1743 -0.0303
 9097W        W25944   5.357   3.108   3.337 -0.2657 -0.0546  0.0966
 9098W        W25945  17.663  12.681   0.720  0.1689 -0.0021  0.0081
 9099W        W25946   8.354  15.778  10.360 -0.2222 -0.2552  0.0065
 9100W        W25947   1.080  13.341   3.103 -0.3602 -0.2736  0.2595
 9101W        W25948  15.504   3.623   4.458  0.4951 -0.0167 -0.2501
 9102W        W25949   5.752   7.122  11.968  0.1007  0.0188 -0.0273
 9103W        W25950   3.697   7.039  12.658  0.0195  0.3397 -0.0662
 9104W        W25951   5.324   6.334   0.918  0.4574  0.1439  0.3146
 9105W        W25952   3.768   3.406   2.676  0.2584  0.3830 -0.4166
 9106W        W25953  17.750  18.388   2.198  0.0269  0.1140 -0.1107
 9107W        W25954  16.809   6.425  12.247 -0.1765  0.1373  0.3933
 9108W        W25955   2.943   1.858   3.483 -0.3534 -0.1676  0.1668
 9109W        W25956   8.636  13.329   0.125  0.2621 -0.1616  0.1013
 9110W        W25957  15.584   7.890   4.028 -0.1565  0.2588  0.3165
 9111W        W25958   5.179  12.694   3.204 -0.0068 -0.2254  0.0497
 9112W        W25959  14.515  18.914  12.990  0.1492 -0.2824 -0.0184
 9113W        W25960  11.480  11.185   2.583 -0.2210  0.2735  0.1666
 9114W        W25961   6.367   9.208  11.667 -0.0494  0.2263  0.0322
 9115W        W25962  12.521   9.494  13.616 -0.5108 -0.2358 -0.2407
 9116W        W25963  14.196   0.244   2.379 -0.1691 -0.0226  0.1278
 9117W        W25964  13.113  12.527   0.312  0.3008 -0.1886 -0.1377
 9118W        W25965  16.831  10.950  14.690  0.2524  0.0859  0.1850
 9119W        W25966   7.352   7.067  10.076  0.1445  0.0499  0.0572
 9120W        W25967   7.801  17.686   0.831  0.0928 -0.1402 -0.3939
 9121W        W25968  19.245   0.441   1.614 -0.0967  0.1135  0.0034
 9122W        W25969   7.796   0.985   3.282  0.1533  0.0906 -0.2135
 9123W        W25970  10.705  18.297  13.851  0.0788  0.1252  0.2191
 9124W        W25971  18.119  13.415   1.644  0.0406 -0.0389 -0.0724
 9125W        W25972   2.066   0.472  11.973 -0.1554 -0.2805  0.0158
 9126W        W25973   5.596  11.417   2.573 -0.2088 -0.0370 -0.2140
 9127W        W25974  11.057   9.352  12.395 -0.0520  0.1215 -0.0766
 9128W        W25975   6.064   6.527   0.608 -0.0061 -0.0171 -0.3595
 9129W        W25976   1.529   4.270  13.102 -0.1535 -0.0470  0.2604
 9130W        W25977   4.504   3.770   4.724 -0.0289  0.0305  0.0475
 9131W        W25978  11.878  16.179  12.165 -0.0548  0.0129  0.0569
 9132W        W25979   2.910  11.026   3.813  0.2646 -0.0407  0.0667
 9133W        W25980  17.466   1.802   2.394  0.0266 -0.1505  0.2208
 9134W        W25981   3.182   3.725   2.129  0.0195 -0.0134  0.0284
 9135W        W25982  17.772   5.532   0.782 -0.0604 -0.2567  0.0259
 9136W        W25983  16.165  12.927   1.586  0.3026 -0.3930 -0.1910
 9137W        W25984  18.452   4.095   3.880 -0.2072 -0.0472  0.1664
 9138W        W25985  15.762   4.579   2.627  0.3371 -0.3969 -0.0575
 9139W        W25986   7.622   6.894   1.422  0.1327  0.0729  0.0481
 9140W        W25987   7.589   3.352  13.047 -0.0495  0.1422  0.2493
 9141W        W25988   4.001  11.643  12.828 -0.1350  0.5493 -0.1724
 9142W        W25989  19.259  13.574  14.351 -0.0766  0.1000 -0.1082
 9143W        W25990   9.790  10.805   0.083  0.0328 -0.1943  0.2062
 9144W        W25991   3.843  12.923   1.157 -0.1966  0.1712  0.0898
 9145W        W25992  16.642  10.377   3.123  0.0231  0.2866  0.1244
 9146W        W25993  17.984  14.690  14.712  0.1395  0.0418 -0.1026
 9147W        W25994   5.571  19.068   3.015 -0.4231 -0.1828 -0.7271
 9148W        W25995  12.380  11.820   1.497 -0.0171 -0.1103 -0.0466
 9149W        W25996   9.526   6.929  10.172 -0.1213  0.0116  0.2514
 9150W        W25997   9.971  11.613   5.781 -0.0490  0.0155 -0.2094
 9151W        W25998  13.776  10.939   3.443 -0.1863  0.0510 -0.1758
 9152W        W25999   4.924   4.523   4.988  0.0837 -0.1176 -0.4742
 9153W        W26000   1.716   9.084  13.078  0.3040  0.1762 -0.1133
 9154W        W26001  11.869   5.954  14.258  0.0457 -0.0340  0.1130
 9155W        W26002  11.668   8.030   0.744  0.0806 -0.0563  0.3305
 9156W        W26003   7.365   1.826   4.483 -0.2352  0.0818 -0.3082
 9157W        W26004   5.549  15.058  12.168  0.0176 -0.1521 -0.1749
 9158W        W26005   0.737   1.097   0.133  0.1543 -0.2683  0.4604
 9159W        W26006   4.261   3.342   1.078  0.0387  0.0987  0.1097
 9160W        W26007   5.009   5.646  14.409 -0.0824 -0.1851  0.1575
 9161W        W26008   2.890  10.420   1.122  0.1005  0.1296 -0.3492
 9162W        W26009  13.077   6.577   0.079  0.2498 -0.0993 -0.1127
 9163W        W26010  12.932   0.412  12.680 -0.2448 -0.1429  0.1318
 9164W        W26011  10.091   5.363   1.359 -0.2225 -0.0069 -0.0828
 9165W        W26012   4.684   5.353  14.640  0.2964  0.0095  0.2311
 9166W        W26013   0.846  18.111   2.796  0.1236  0.0714  0.0752
 9167W        W26014  17.027  16.858  11.857  0.3540  0.5008 -0.0561
 9168W        W26015  11.300   2.761   3.650 -0.2836  0.1933 -0.0390
 9169W        W26016  15.049  15.464  11.105  0.0356 -0.0202 -0.0682
 9170W        W26017  15.180   6.926  11.098 -0.2386  0.0083  0.2300
 9171W        W26018  18.432  19.213   0.720 -0.3612  0.1383 -0.0449
 9172W        W26019   3.897   4.252  14.653  0.2467  0.2938 -0.0038
 9173W        W26020  19.230  17.432  14.085  0.3032  0.0405 -0.1631
 9174W        W26021   7.446  15.784  12.779  0.0020 -0.1501  0.0464
 9175W        W26022   7.400   8.149  13.276  0.0572  0.1108 -0.0946
 9176W        W26023   1.168   8.762  14.316 -0.0441 -0.0590  0.0377
 9177W        W26024   6.257  16.910  12.972  0.4048 -0.0307 -0.1763
 9178W        W26025   6.482  13.540   3.416  0.1649 -0.0351  0.2552
 9179W        W26026  15.450  13.810   4.851  0.1636 -0.0869 -0.1324
 9180W        W26027   1.177  11.134   0.821  0.0154  0.0500  0.1869
 9181W        W26028   5.884   5.749   4.190 -0.3809  0.1052 -0.1433
 9182W        W26029   2.571  13.755  11.464  0.0133  0.3963  0.2651
 9183W        W26030   4.204   5.608   0.881  0.2257 -0.3626  0.0651
 9184W        W26031  19.264   1.838  13.647  0.1870  0.2534  0.2479
 9185W        W26032   2.037  18.916  14.766  0.2504 -0.1957  0.4932
 9186W        W26033   5.304  13.481  14.805  0.0833 -0.0315  0.1789
 9187W        W26034   1.618   6.591  13.837 -0.0172  0.1551  0.0955
 9188W        W26035  16.158  17.353  13.557 -0.6763  0.1246  0.1056
 9189W        W26036  15.202   3.985   3.202  0.0571  0.0958  0.1929
 9190W        W26037   6.314  17.549   2.899 -0.2004  0.0504 -0.2024
 9191W        W26038   3.423  18.306  14.466 -0.1692  0.0957  0.0455
 9192W        W26039   9.248   1.398  12.411 -0.1294 -0.2731  0.1011
 9193W        W26040  17.968   0.767  11.641 -0.2664  0.0871 -0.0978
 9194W        W26041  16.031  10.658  11.245  0.0357 -0.1186  0.0268
 9195W        W26042   5.489   7.628  14.035 -0.3683 -0.0152  0.1263
 9196W        W26043  14.520   8.471   1.608 -0.2273  0.1276  0.3287
 9197W        W26044   3.707   3.549   0.357  0.1160 -0.3449 -0.1159
 9198W        W26045  15.651   5.496   0.211  0.0107  0.0371 -0.2314
 9199W        W26046  17.776   3.811  14.568 -0.1644 -0.0041 -0.3940
 9200W        W26047   5.032   5.718   1.594  0.3981 -0.1236 -0.0439
 9201W        W26048  17.309   5.313   0.919  0.0505 -0.4642  0.0388
 9202W        W26049   2.172  14.824  14.178  0.1499 -0.0902 -0.1824
 9203W        W26050   6.790  13.934  12.796 -0.2458  0.2768 -0.2689
 9204W        W26051  15.332  11.493   1.394 -0.2971 -0.0568 -0.1175
 9205W        W26052   3.048  15.266   5.649 -0.3528 -0.0327  0.1843
 9206W        W26053  13.328   6.300  11.953  0.0696  0.1491  0.2587
 9207W        W26054  17.075  10.253   2.735 -0.1572  0.0373  0.2416
 9208W        W26055  12.859   9.643  10.661  0.2176  0.1543 -0.0483
 9209W        W26056  16.049  18.447   4.854 -0.0300 -0.1027 -0.3657
 9210W        W26057   1.901  11.748   0.552 -0.2249  0.0930 -0.0460
 9211W        W26058   3.649  17.029  10.372 -0.3190 -0.0176  0.2563
 9212W        W26059   8.641   0.103  12.719 -0.3628 -0.0524  0.0024
 9213W        W26060   6.719  16.044  14.627 -0.0196  0.0813  0.2900
 9214W        W26061  18.554   6.990   4.303  0.0972  0.0159 -0.1753
 9215W        W26062  10.201  19.186   1.780 -0.1629  0.1550  0.2276
 9216W        W26063   9.206   9.944  10.422  0.1296 -0.0084 -0.0908
 9217W        W26064   4.475  18.780   1.214 -0.0530 -0.0014 -0.0991
 9218W        W26065  11.157  19.270   5.988 -0.2604 -0.1748 -0.2054
 9219W        W26066   6.882   9.303  11.785 -0.1163 -0.1130 -0.1781
 9220W        W26067   1.179   3.702  11.411 -0.1888 -0.2460  0.2254
 9221W        W26068  17.316   1.908   1.151 -0.0147  0.0859  0.4388
 9222W        W26069   6.221   6.528   2.612  0.0119  0.1775 -0.0107
 9223W        W26070   3.480   9.920   3.139  0.0850 -0.1251 -0.0814
 9224W        W26071   0.411   1.266  14.068  0.1787  0.0668 -0.0517
 9225W        W26072  11.436  12.650  11.467 -0.0784 -0.4037  0.2081
 9226W        W26073  12.187  18.072  11.964  0.2692 -0.0717  0.0602
 9227W        W26074   2.608   7.756   0.076 -0.5037 -0.2058 -0.4620
 9228W        W26075  14.644   6.440   2.462  0.4878  0.0531  0.0390
 9229W        W26076  12.645  15.147   5.042  0.0576  0.2067  0.2029
 9230W        W26077   1.691  17.742   4.082 -0.1567  0.1050  0.1643
 9231W        W26078   8.448   6.710  13.391 -0.0901 -0.1412  0.0384
 9232W        W26079   3.660   0.428  14.480 -0.1295 -0.1960 -0.2699
 9233W        W26080   1.352   5.426   3.087 -0.3202 -0.0622  0.0881
 9234W        W26081   7.473   3.012  13.411 -0.1732 -0.1655  0.2482
 9235W        W26082  16.032   2.412  14.776 -0.2512 -0.0830 -0.0671
 9236W        W26083  12.392  12.215   4.741  0.2049 -0.0540 -0.0955
 9237W        W26084   3.952  13.221   2.031 -0.2623  0.1457 -0.2930
 9238W        W26085   2.350  15.657  12.743  0.0671  0.0545  0.0099
 9239W        W26086  16.778   4.439   3.312 -0.1552  0.0694  0.2552
 9240W        W26087   5.739   9.974  14.709 -0.1764 -0.1995 -0.1688
 9241W        W26088  16.648  12.587  14.927 -0.1607  0.3575 -0.1059
 9242W        W26089   7.819   7.610  12.688 -0.2154  0.1063 -0.1878
 9243W        W26090   2.386  19.216   5.664 -0.2613  0.2465  0.0621
 9244W        W26091  10.623   7.293   2.955  0.0249 -0.2694  0.1859
 9245W        W26092   1.911   7.372   2.304  0.1989 -0.1112  0.0037
 9246W        W26093  10.570  15.586   4.183  0.1388  0.0424  0.1798
 9247W        W26094  14.950   4.180   2.361  0.0647  0.2754 -0.1334
 9248W        W26095  15.366  17.015   2.131 -0.1774 -0.0842 -0.0022
 9249W        W26096   9.465  13.953   3.837  0.1218  0.0770 -0.3997
 9250W        W26097  15.135  13.619   2.972 -0.0564  0.0662  0.0698
 9251W        W26098   3.374   2.522  10.384 -0.0032 -0.1396 -0.2713
 9252W        W26099  12.094  10.534   2.677  0.1881 -0.0119  0.1020
 9253W        W26100  18.663  17.630  13.255  0.2362 -0.0165  0.1126
 9254W        W26101   5.656  15.727   9.672  0.1864 -0.3021 -0.1117
 9255W        W26102  12.480   1.798   4.766  0.1850 -0.0104 -0.0198
 9256W        W26103   9.034   8.641   1.982 -0.2361  0.1022 -0.0428
 9257W        W26104   4.208   7.695   3.217  0.0811 -0.3301  0.2512
 9258W        W26105  16.182  11.281  13.281 -0.0658 -0.2316  0.3877
 9259W        W26106  14.031   5.307  12.305 -0.0473  0.3232  0.2183
 9260W        W26107  12.217   6.397   3.892 -0.2889  0.2742 -0.0802
 9261W        W26108   1.650   9.120   2.020 -0.0391  0.4363  0.0498
 9262W        W26109   7.228   8.676  10.596 -0.0627 -0.0250 -0.0016
 9263W        W26110   5.640   6.241  11.310 -0.0022 -0.1576  0.1117
 9264W        W26111   6.633  14.278  12.285 -0.0205  0.1960 -0.2779
 9265W        W26112   3.940   8.108  14.074  0.0066  0.2416  0.0439
 9266W        W26113   2.161   7.734   2.602 -0.1034 -0.2224  0.3372
 9267W        W26114  14.057  11.313   0.752  0.2048  0.3390  0.2365
 9268W        W26115  12.609  11.138  10.724 -0.0207 -0.3016 -0.1358
 9269W        W26116  10.267   5.418   4.151  0.0926 -0.2040 -0.2502
 9270W        W26117  18.655  12.880   1.685 -0.2812 -0.0330 -0.3343
 9271W        W26118   8.527  16.413   3.505 -0.2893  0.0023 -0.0617
 9272W        W26119   6.489  11.551   2.978  0.0198  0.2950  0.2275
 9273W        W26120  17.206  15.811   0.389  0.0165 -0.2604  0.1716
 9274W        W26121  13.345  17.479  13.908 -0.0266  0.0371 -0.2275
 9275W        W26122  13.663   1.779   4.735  0.0171 -0.0049 -0.0150
 9276W        W26123   2.979  14.412   2.564 -0.0668 -0.3082 -0.5325
 9277W        W26124  14.989   7.857   1.174 -0.0426  0.1231  0.0031
 9278W        W26125   4.987  10.227  11.035  0.0520 -0.0750  0.0682
 9279W        W26126   6.849   9.782   1.125 -0.1862  0.0984 -0.2577
 9280W        W26127   9.101   2.229   1.842 -0.0676 -0.2503  0.2945
 9281W        W26128  18.341   8.151  11.538  0.0648 -0.4365  0.3572
 9282W        W26129   4.315   9.414   3.238  0.2480  0.1857  0.0544
 9283W        W26130   6.809  14.779  11.667 -0.0567 -0.1501  0.2982
 9284W        W26131  16.211   1.835   3.281 -0.2221  0.1626  0.0630
 9285W        W26132   2.577  12.836  13.924  0.1487  0.0607  0.0014
 9286W        W26133   1.514   5.326   3.617  0.2347 -0.1900 -0.2724
 9287W        W26134   6.691  16.704  13.903 -0.0349  0.1849  0.0321
 9288W        W26135  15.565  15.930  10.497  0.1721  0.0274  0.0643
 9289W        W26136   8.770   9.349   4.393 -0.1886  0.0757  0.2857
 9290W        W26137  16.835   5.080   0.944  0.0189 -0.0779  0.2106
 9291W        W26138  18.931  11.797   4.056 -0.2217 -0.0367 -0.0016
 9292W        W26139   0.276   1.721  12.852  0.1456  0.2387 -0.1642
 9293W        W26140   1.014  12.717   0.681 -0.1305 -0.1382 -0.3630
 9294W        W26141  16.505  14.725  14.751  0.0496  0.2207  0.2030
 9295W        W26142   6.244   2.618   3.118  0.2041 -0.0492 -0.1688
 9296W        W26143   3.021   5.352   1.286  0.5705 -0.1501 -0.1770
 9297W        W26144   6.246   6.131  11.437  0.3006  0.1222 -0.2158
 9298W        W26145  11.195   2.419   2.459 -0.3461  0.1940 -0.3318
 9299W        W26146  10.910  17.743   5.359 -0.1444 -0.2427 -0.0307
 9300W        W26147   8.538   7.730  14.869 -0.2525  0.0808 -0.0398
 9301W        W26148  16.365   8.361   0.765 -0.0867 -0.2370  0.0483
 9302W        W26149  15.206   5.696  10.859 -0.0166 -0.1541 -0.3186
 9303W        W26150  18.917   9.111   0.120  0.0744 -0.1763 -0.3195
 9304W        W26151   7.737  12.927  14.833 -0.0487 -0.2257 -0.2502
 9305W        W26152  19.156  18.016   4.715 -0.2014  0.0937 -0.0027
 9306W        W26153  11.858  17.578  13.153  0.2581  0.0396 -0.1345
 9307W        W26154   1.322  10.711   1.060 -0.1610  0.0868  0.0953
 9308W        W26155   8.377   8.938   2.988 -0.0963  0.1068 -0.1706
 9309W        W26156   6.148  16.865  12.436 -0.0119 -0.1583 -0.1017
 9310W        W26157   2.933   4.165   5.081 -0.2490  0.1202  0.1986
 9311W        W26158  12.680   2.560   4.212 -0.0420  0.0368  0.0966
 9312W        W26159   8.137  14.675   4.099 -0.0255  0.1559 -0.1869
 9313W        W26160   0.324   2.848   3.062  0.1930 -0.0427 -0.0829
 9314W        W26161   4.164   0.036  12.532 -0.0404  0.3236  0.1567
 9315W        W26162  10.178   6.190  11.318  0.1449 -0.1945  0.0061
 9316W        W26163   3.066   9.270  14.095  0.3003  0.0450  0.3719
 9317W        W26164   5.964  18.138  13.842  0.4475  0.2249  0.3918
 9318W        W26165  16.590   1.287   1.586  0.1877 -0.2615 -0.5458
 9319W        W26166   4.378   4.331  12.799  0.1619 -0.3998 -0.2003
 9320W        W26167  16.315   7.615  11.945  0.3799  0.0353 -0.1858
 9321W        W26168  17.190   7.327   1.416 -0.0145 -0.1374  0.0685
 9322W        W26169  14.797   9.939   1.307  0.0978 -0.2190  0.0590
 9323W        W26170   0.748   1.965   3.464 -0.0285  0.1176 -0.2828
 9324W        W26171   4.623  14.596  11.036 -0.0609  0.0251 -0.0542
 9325W        W26172   5.298  11.821  12.186  0.2409 -0.1417 -0.0384
 9326W        W26173  13.012  17.049   5.516 -0.0435  0.2386  0.4189
 9327W        W26174  17.073  14.128  12.162  0.0483  0.0454  0.2116
 9328W        W26175   3.733  13.192  11.697  0.1075 -0.0258  0.1038
 9329W        W26176  18.864   2.370   3.269  0.2030  0.0682  0.1063
 9330W        W26177  14.466  12.256  11.406 -0.0774  0.1473  0.0612
 9331W        W26178   2.861  18.201  10.425 -0.1431  0.2754 -0.4124
 9332W        W26179  10.483   5.362  11.789  0.3068  0.1836  0.2960
 9333W        W26180   7.944  14.575  10.916  0.1758  0.1142  0.1068
 9334W        W26181   6.675   8.277  11.094 -0.2889  0.0902 -0.3251
 9335W        W26182  15.733   2.763  14.183  0.0818  0.0599 -0.2551
 9336W        W26183   5.754   8.888   2.857 -0.0814 -0.2779 -0.1739
 9337W        W26184  18.729   9.137   2.338  0.1023  0.0610 -0.1930
 9338W        W26185  15.647  14.081  12.630  0.0471  0.1526  0.3689
 9339W        W26186  16.714   6.661   4.234 -0.0335  0.4131 -0.1151
 9340W        W26187   2.255   5.870  11.110 -0.0750 -0.0716  0.1241
 9341W        W26188   4.120  17.337   1.687  0.0560 -0.0432 -0.0041
 9342W        W26189   7.002  13.400   3.425 -0.1030 -0.1954  0.2065
 9343W        W26190  17.740  10.330  11.770  0.0716 -0.2551 -0.0891
 9344W        W26191   3.367   5.473  13.667  0.0792  0.0489 -0.0331
 9345W        W26192   7.962   3.112  13.625  0.0730 -0.1748 -0.0806
 9346W        W26193   9.074   5.372   1.153  0.4254 -0.1129 -0.2565
 9347W        W26194  14.116   7.774   0.085 -0.1965  0.1502  0.0252
 9348W        W26195   3.407   1.546   2.018  0.1464 -0.0107 -0.2230
 9349W        W26196   8.794   4.051  14.046  0.0134  0.4933  0.1245
 9350W        W26197  14.926  12.763   2.729  0.2851  0.0170 -0.3247
 9351W        W26198  13.509  12.732   4.083  0.0504  0.0507  0.4903
 9352W        W26199   2.419   2.296  12.876  0.1073 -0.2565  0.2920
 9353W        W26200   0.295  18.494   0.601  0.1493 -0.0646 -0.4114
 9354W        W26201  11.173  13.363   4.485  0.3317  0.0719  0.2704
 9355W        W26202   9.631  17.768  11.997  0.0669 -0.1120  0.1839
 9356W        W26203  16.718  10.832   3.342 -0.0096  0.0116  0.2520
 9357W        W26204  13.650   9.752  11.083  0.0004  0.1533  0.1187
 9358W        W26205   1.451   8.779  14.765  0.1930 -0.1047  0.4139
 9359W        W26206   6.556   8.975  11.245  0.0751  0.0850 -0.0454
 9360W        W26207   9.683  10.453   1.945  0.0005  0.1067 -0.1878
 9361W        W26208   6.391  18.194  12.756  0.2395 -0.1868 -0.1665
 9362W        W26209   1.813  12.351   3.103  0.3013 -0.0021 -0.4685
 9363W        W26210   1.757   0.064  14.079 -0.0745 -0.0352 -0.3398
 9364W        W26211  13.740   9.653  11.785  0.1436 -0.1694 -0.1983
 9365W        W26212  12.822   6.617  12.002  0.1253  0.0859  0.1146
 9366W        W26213   9.701   5.312  12.347 -0.1386 -0.0763  0.1373
 9367W        W26214   9.297  10.913  10.079 -0.0459 -0.2342 -0.1035
 9368W        W26215   3.565  17.208   2.348  0.4668 -0.4345 -0.4581
 9369W        W26216   3.985  10.526  11.377 -0.4186 -0.2955  0.1409
 9370W        W26217  16.752   5.704   2.471  0.0569  0.0946 -0.0099
 9371W        W26218  15.763   4.866  10.831  0.0214 -0.1530 -0.3529
 9372W        W26219  17.501   5.784   3.954 -0.2658  0.1997  0.0548
 9373W        W26220   3.716  10.881   9.855  0.2513  0.1209  0.0798
 9374W        W26221  15.867   5.008  13.949 -0.3317 -0.1961  0.0028
 9375W        W26222  10.156  13.977  13.817  0.0764  0.0991  0.0733
 9376W        W26223  17.002  18.289   0.329  0.2578 -0.1551  0.0312
 9377W        W26224   4.776   5.702   2.013 -0.0905 -0.0873 -0.1816
 9378W        W26225   1.530  11.344   4.051  0.5291  0.2698 -0.0431
 9379W        W26226   2.709  11.472   4.621  0.0627  0.0286 -0.2206
 9380W        W26227  10.169  17.904  13.107 -0.2169  0.0652  0.0531
 9381W        W26228  12.297   9.053   2.778  0.0920  0.0791 -0.1463
 9382W        W26229   1.410  16.368   3.949 -0.1242 -0.1715 -0.5961
 9383W        W26230   6.652  17.526  10.453 -0.1175  0.0044 -0.0412
 9384W        W26231   5.941   2.259   3.385 -0.2865 -0.1300 -0.1891
 9385W        W26232   1.324   6.214  11.148  0.3532 -0.1642  0.2174
 9386W        W26233   9.413  16.717   5.034  0.1492 -0.2541 -0.0048
 9387W        W26234  10.233   6.646   1.039 -0.2981  0.0065  0.0951
 9388W        W26235  15.948   9.045   1.520  0.1385  0.2985 -0.1525
 9389W        W26236   2.770   7.723   3.763 -0.1149  0.4557 -0.3144
 9390W        W26237   7.852   3.805   0.811  0.1628 -0.1176 -0.0691
 9391W        W26238   6.016   9.719  12.577 -0.3469  0.1403 -0.2981
 9392W        W26239  13.228  16.087  12.835 -0.1818 -0.0419 -0.0514
 9393W        W26240   9.187  18.145   3.487  0.0701  0.0042  0.0027
 9394W        W26241  17.242   5.749   0.092 -0.0759  0.0714 -0.1215
 9395W        W26242  14.811   6.821  10.709  0.0400 -0.3097  0.2802
 9396W        W26243  10.996   5.769  14.641 -0.0062  0.2112 -0.1890
 9397W        W26244  12.963   3.048   4.278  0.0602  0.1604  0.0547
 9398W        W26245  10.989   2.269  11.058  0.1614  0.0880 -0.2555
 9399W        W26246  14.226   2.588   3.175  0.0907 -0.0025  0.0006
 9400W        W26247  10.575   7.374   1.728  0.1978 -0.3494 -0.0847
 9401W        W26248  11.599  16.588  13.421 -0.0092 -0.0287 -0.0132
 9402W        W26249  14.898  19.242   3.543  0.2626 -0.3123 -0.2391
 9403W        W26250   5.905  12.083   2.106  0.3019 -0.1578  0.0155
 9404W        W26251   8.582  12.262  13.563  0.1419  0.2522  0.0073
 9405W        W26252  10.800  10.945  10.475  0.1516  0.2111  0.1102
 9406W        W26253  14.112   9.639   2.941  0.0715 -0.2874 -0.3213
 9407W        W26254   8.162  10.324   0.937 -0.0076  0.2360 -0.0348
 9408W        W26255   9.532   5.283   4.199 -0.0925 -0.1492 -0.2664
 9409W        W26256  18.515  17.712  13.767 -0.0818 -0.0394 -0.0182
 9410W        W26257  10.320  11.319  10.542  0.1212  0.1426 -0.0817
 9411W        W26258  14.545  13.059  14.172 -0.0168  0.0046  0.1214
 9412W        W26259  18.009  11.325  13.967 -0.1239 -0.0463 -0.1494
 9413W        W26260   0.947   1.954   1.953  0.1951 -0.0514  0.4622
 9414W        W26261  16.282   3.511  11.031 -0.1460 -0.2956 -0.3570
 9415W        W26262   6.313   3.325   0.939 -0.2729 -0.3347  0.1376
 9416W        W26263  17.419  12.345  10.499  0.2025 -0.1153 -0.3277
 9417W        W26264   0.772  11.051  11.562  0.2681  0.0599 -0.3550
 9418W        W26265  14.334  16.568  14.125 -0.1013 -0.0702  0.0276
 9419W        W26266   4.929   2.124   0.981 -0.1689  0.2099 -0.0850
 9420W        W26267  10.552  10.960   1.845 -0.1379  0.2830  0.2625
 9421W        W26268   9.586  12.168   1.328 -0.0414  0.1332  0.2198
 9422W        W26269   3.039  14.795  12.875  0.0284 -0.1921 -0.2692
 9423W        W26270  10.676   9.686   4.282 -0.2732  0.0510 -0.0005
 9424W        W26271   3.589  13.016  12.991 -0.2634  0.3730 -0.0456
 9425W        W26272   7.272   5.360  10.488 -0.2193  0.1320  0.1501
 9426W        W26273  16.807  11.004  13.668 -0.0243  0.3695  0.2071
 9427W        W26274   8.868   4.419  12.551 -0.0252  0.0060  0.3623
 9428W        W26275  13.777   6.931  12.511 -0.0739 -0.1256 -0.1466
 9429W        W26276   8.502  19.004   1.641  0.2243 -0.2732 -0.1910
 9430W        W26277  18.447   9.291  15.011 -0.0813  0.1492  0.2585
 9431W        W26278   1.642  10.042  12.372  0.0330 -0.1160 -0.0872
 9432W        W26279   4.058   0.143   9.900  0.1520 -0.2166 -0.2296
 9433W        W26280   6.281  13.097   0.575  0.1071  0.0356  0.2492
 9434W        W26281  17.608  13.400   1.422 -0.0664 -0.3111 -0.0943
 9435W        W26282   2.209  15.255   2.883  0.0963  0.0249 -0.1578
 9436W        W26283  12.179   0.008   1.740 -0.1862 -0.1416  0.0416
 9437W        W26284  16.251  16.779  12.195  0.0384  0.0563  0.2222
 9438W        W26285  15.993  11.182   3.934 -0.1757  0.3160 -0.2089
 9439W        W26286  15.618  10.934   0.436 -0.2530 -0.3311  0.2878
 9440W        W26287   1.329  13.043   0.346 -0.2698 -0.0906 -0.1072
 9441W        W26288  10.531   0.397  12.409  0.2617 -0.1039 -0.0648
 9442W        W26289   5.752   2.865   1.664 -0.0617 -0.0484 -0.1669
 9443W        W26290   0.977  18.211  13.950 -0.1040  0.0997  0.1417
 9444W        W26291   4.391  13.186   1.784  0.1423 -0.0397 -0.1493
 9445W        W26292   0.658  10.835   2.555  0.1084  0.0534 -0.1199
 9446W        W26293  12.967  11.860  13.530  0.0236  0.3154  0.0467
 9447W        W26294  16.781  15.268  14.917 -0.2586  0.1413  0.0948
 9448W        W26295  10.987   3.161   5.192  0.0818  0.0325 -0.0060
 9449W        W26296  10.406   7.467   0.275  0.2271  0.0080 -0.1250
 9450W        W26297  17.455  12.507   2.713 -0.3807 -0.1779 -0.0913
 9451W        W26298  10.124  17.668  12.206  0.2381  0.0677  0.0450
 9452W        W26299  16.792   5.849   0.470  0.4776 -0.0717  0.1184
 9453W        W26300   6.798  10.034  12.901 -0.4297 -0.1234 -0.0806
 9454W        W26301   7.833  16.739  13.920  0.1915 -0.1990  0.0252
 9455W        W26302   0.310  17.648   1.984  0.0718 -0.1045 -0.3409
 9456W        W26303   2.846  12.789   2.183  0.2885  0.2822 -0.0665
 9457W        W26304  12.327   2.697  13.912  0.0921  0.1236  0.0073
 9458W        W26305  16.468   1.229   0.054  0.1744  0.1182 -0.3116
 9459W        W26306  11.212   1.051  11.236 -0.0859  0.2706 -0.0843
 9460W        W26307   8.379  11.833   1.843 -0.0719 -0.0683  0.2219
 9461W        W26308  19.085  14.898   1.229 -0.0521 -0.2458 -0.1165
 9462W        W26309   3.498  18.266   2.632  0.0415 -0.1310  0.2718
 9463W        W26310  14.027   1.472   2.994  0.0775  0.1153  0.2704
 9464W        W26311   8.222   1.829  12.005 -0.1713  0.0282  0.0756
 9465W        W26312   5.761   3.548  13.704 -0.0715  0.0978 -0.0827
 9466W        W26313   2.881   6.041  13.663 -0.0764  0.0344  0.2266
 9467W        W26314   4.564   8.172   3.243  0.0096 -0.0340  0.1514
 9468W        W26315   0.962   9.449   3.778 -0.0174  0.0723  0.2438
 9469W        W26316   0.650  14.313   4.695  0.2766 -0.1298 -0.0223
 9470W        W26317   8.745   1.584   5.246  0.3244 -0.2939 -0.1722
 9471W        W26318   3.595   3.829   2.955  0.0149 -0.1043  0.1010
 9472W        W26319  13.774  16.933  13.313  0.1903  0.1963  0.2596
 9473W        W26320   5.855   8.773  12.090 -0.1008 -0.0538  0.0805
 9474W        W26321   7.185  16.318  14.671 -0.2370 -0.1308  0.1075
 9475W        W26322   0.662  17.492   0.047 -0.0914 -0.1462 -0.2288
 9476W        W26323   8.502   5.612   1.410 -0.2376 -0.0812 -0.2099
 9477W        W26324   0.171  13.857   3.858 -0.1707  0.1196 -0.0719
 9478W        W26325   3.433  10.723   3.906  0.1692 -0.0346  0.0538
 9479W        W26326  14.892   2.217   3.387  0.3095 -0.2895 -0.0131
 9480W        W26327   3.604   0.355   0.929 -0.1214 -0.3264 -0.2040
 9481W        W26328  18.264  16.774   1.574  0.2780  0.3927  0.1188
 9482W        W26329  18.681   4.839  14.564  0.1935  0.1370  0.0406
 9483W        W26330   8.857   7.343   1.964 -0.0819  0.0612  0.2652
 9484W        W26331  12.035   9.682   3.875 -0.1082 -0.1162  0.3957
 9485W        W26332   6.457   1.478   4.498  0.0720  0.0645  0.1402
 9486W        W26333   7.465  18.368   2.542  0.1584 -0.2387 -0.1038
 9487W        W26334   3.903  14.055  14.149  0.0625  0.1334  0.2007
 9488W        W26335   2.888   8.354  13.766 -0.1001  0.1422  0.1885
 9489W        W26336   0.237   3.649  12.285 -0.1652 -0.0657  0.2727
 9490W        W26337  10.718  11.378   3.566 -0.2381  0.3041 -0.3064
 9491W        W26338   7.825   5.792   0.428 -0.1485 -0.4241  0.1522
 9492W        W26339  16.223  12.992   0.349  0.3223  0.1427 -0.3164
 9493W        W26340   0.904  11.601   0.816  0.0704 -0.2678  0.2200
 9494W        W26341   1.918  10.260  11.953  0.1231 -0.2679  0.0419
 9495W        W26342  15.688  10.748  14.975 -0.3466 -0.2169 -0.0152
 9496W        W26343   0.649   3.396   4.369  0.0517  0.1334 -0.0910
 9497W        W26344   9.627   2.982   3.297 -0.5060  0.0821  0.2456
 9498W        W26345  17.062   4.496   2.604  0.0389 -0.1441  0.2562
 9499W        W26346   5.076  14.267  12.082  0.1554  0.1880 -0.0171
 9500W        W26347   1.493  16.563   5.160  0.0133 -0.4480 -0.2690
 9501W        W26348   4.605  15.027   2.157  0.1912 -0.1471  0.0092
 9502W        W26349  16.802  17.968   2.074 -0.1171  0.0256  0.0993
 9503W        W26350   6.403   7.525  11.454  0.4090  0.1539 -0.0324
 9504W        W26351  16.412  10.559   4.708 -0.1189  0.0594  0.2368
 9505W        W26352  15.124   3.872   0.543  0.1355 -0.2687  0.1079
 9506W        W26353  12.870   8.496  10.982 -0.1498  0.1264 -0.2247
 9507W        W26354   0.066  10.402  11.346  0.0328 -0.1274 -0.1552
 9508W        W26355  10.052  11.638   4.487  0.2816  0.0104 -0.0813
 9509W        W26356   9.201   0.343  10.024 -0.1010  0.5060  0.1359
 9510W        W26357  18.997  16.371  14.769  0.0934  0.0395  0.0504
 9511W        W26358   7.524  15.354  12.174 -0.1234 -0.3733  0.1151
 9512W        W26359   9.183  11.172   2.004  0.2031  0.3407 -0.1511
 9513W        W26360  10.619  14.673   0.704 -0.1589 -0.2353  0.0193
 9514W        W26361  18.926   1.157   1.564 -0.2116 -0.1232 -0.2771
 9515W        W26362   2.485   4.916  13.562  0.0060  0.1274  0.1855
 9516W        W26363  12.030   8.810   2.437  0.0302  0.0282  0.4763
 9517W        W26364  12.052  10.727   4.248  0.2824  0.0745  0.0986
 9518W        W26365   1.659  11.928   2.268 -0.2475  0.1711  0.0803
 9519W        W26366   4.566   1.513  14.397 -0.1907  0.2813 -0.2122
 9520W        W26367   5.875  14.273  11.742  0.1900 -0.0386  0.4983
 9521W        W26368   1.494  13.261   3.438 -0.1537  0.2087  0.1093
 9522W        W26369  12.860   4.432   4.015  0.3241  0.0048  0.0307
 9523W        W26370   1.743  10.137   0.012  0.0613 -0.0771  0.2157
 9524W        W26371   3.579  11.446  13.000  0.1704  0.2350 -0.1289
 9525W        W26372   9.634   8.372  11.404 -0.1640  0.1213 -0.0204
 9526W        W26373  15.672   9.398   1.233  0.0808  0.1302  0.1673
 9527W        W26374   0.112  18.272   0.175 -0.0052  0.1901 -0.1292
 9528W        W26375   2.784  17.005   1.284 -0.0331  0.0283  0.0680
 9529W        W26376  17.556  16.204  11.540 -0.2324 -0.0437  0.0008
 9530W        W26377   8.812   0.963  14.660 -0.1367 -0.3638 -0.2774
 9531W        W26378   7.098  11.010   4.433 -0.0357  0.1570  0.1733
 9532W        W26379   9.758  14.338   1.426  0.1385  0.0922 -0.0375
 9533W        W26380  12.813   3.421  13.255 -0.1925  0.1644 -0.1777
 9534W        W26381  13.110   7.835   4.459  0.1230 -0.0747  0.2571
 9535W        W26382  10.022  14.528  11.759 -0.2013  0.1164  0.0401
 9536W        W26383  13.366   0.416   3.504 -0.1353  0.0832  0.1575
 9537W        W26384   1.985   3.639  12.738  0.2471  0.0597 -0.1472
 9538W        W26385   3.314  11.047  12.159  0.2523 -0.2544 -0.1111
 9539W        W26386   3.290  12.000  13.615  0.0087 -0.1477 -0.0207
 9540W        W26387   1.961  10.719   1.917  0.4286 -0.3615 -0.0297
 9541W        W26388   4.607   9.422  14.533 -0.0697 -0.0147 -0.1051
 9542W        W26389   9.547  12.029   3.460 -0.1084 -0.1434 -0.0835
 9543W        W26390  13.340   8.816   4.295 -0.3994  0.1801 -0.1406
 9544W        W26391  18.710   6.691  10.447  0.1366 -0.1529 -0.2688
 9545W        W26392  16.026  14.850   5.232 -0.1533 -0.0583  0.0039
 9546W        W26393   9.833   8.181   2.153  0.1593  0.1731  0.1098
 9547W        W26394  10.276   5.737  11.151 -0.0984  0.1405 -0.0241
 9548W        W26395   0.678  19.023   3.571  0.1868 -0.1402  0.1329
 9549W        W26396  18.383  16.455   2.537 -0.0725  0.1124  0.0627
 9550W        W26397   6.891  15.300   2.037  0.2762 -0.1231 -0.2718
 9551W        W26398   6.738  15.317   3.344 -0.2047  0.0985  0.3838
 9552W        W26399   3.267   1.980   1.100  0.3603 -0.4497  0.2174
 9553W        W26400   8.474  17.505   1.596  0.0078 -0.2855  0.1217
 9554W        W26401   3.381  16.632  10.692  0.1537  0.1709 -0.1860
 9555W        W26402  14.552  13.143   3.441  0.0647 -0.1534  0.0097
 9556W        W26403  10.933  16.521  13.295  0.1635  0.2104  0.2373
 9557W        W26404  13.419   2.222   4.794 -0.1642 -0.2352 -0.0211
 9558W        W26405   2.547   9.229   4.280 -0.1371  0.2129 -0.0855
 9559W        W26406  12.400   3.056   9.786 -0.0200  0.0460 -0.0265
 9560W        W26407   3.627   6.975   3.336 -0.1235  0.1506 -0.0387
 9561W        W26408  16.986   7.264  11.733  0.0026  0.1215 -0.0326
 9562W        W26409  17.682  11.067   0.987 -0.0724  0.1365  0.0445
 9563W        W26410   8.388  11.823  14.336  0.3140  0.0148  0.3173
 9564W        W26411   2.368  12.886  13.471 -0.0511 -0.0073 -0.2677
 9565W        W26412  16.113  15.710   1.262  0.3778  0.1572 -0.0266
 9566W        W26413   9.731  13.577   3.685  0.2036 -0.0190 -0.1369
 9567W        W26414  15.687   4.813   1.311  0.1763  0.1272 -0.0896
 9568W        W26415   7.652  15.386  11.241  0.1822 -0.3105  0.1115
 9569W        W26416  14.882  13.837  11.403 -0.1038  0.2059 -0.2402
 9570W        W26417   1.154   0.887  13.609 -0.1411  0.5203 -0.1524
 9571W        W26418  17.691  18.427  11.266  0.0052  0.1743 -0.1832
 9572W        W26419  15.824   0.137   3.693 -0.3192 -0.0735  0.0208
 9573W        W26420  11.116  17.008  11.897 -0.1396 -0.3749 -0.0666
 9574W        W26421   5.727  18.946   4.208  0.0466  0.1353  0.1154
 9575W        W26422   7.883   4.469  14.131 -0.1195  0.3136  0.0582
 9576W        W26423   8.351   3.537  13.638 -0.2976 -0.2687  0.1716
 9577W        W26424  15.334   4.369   2.764  0.0491  0.3469  0.0848
 9578W        W26425   2.269  12.848   1.213  0.0898  0.0915  0.3584
 9579W        W26426  17.515  15.829  13.114  0.2794 -0.1202  0.1302
 9580W        W26427  10.897  15.925  12.428  0.0659 -0.2085 -0.0563
 9581W        W26428  19.063   2.413   0.694  0.1594  0.1551  0.1723
 9582W        W26429  14.214  10.506  12.658 -0.2325  0.1839  0.2506
 9583W        W26430   7.969  13.772  12.668 -0.1567 -0.4382  0.0011
 9584W        W26431   1.157   9.944   2.553 -0.2053  0.1392 -0.0179
 9585W        W26432   5.053   4.129  14.914  0.2286 -0.2018  0.2222
 9586W        W26433  13.450  15.532   1.099 -0.0931 -0.3584  0.0990
 9587W        W26434  10.149  14.776  14.248  0.2230  0.0009  0.1753
 9588W        W26435  19.134   2.966   2.632 -0.0224  0.1059  0.0129
 9589W        W26436  15.876   5.424   3.006 -0.1217  0.2312 -0.1550
 9590W        W26437   3.496  16.297   2.676 -0.1625 -0.1026 -0.0225
 9591W        W26438  17.428   7.406   3.611  0.1354  0.2348 -0.2418
 9592W        W26439  14.552   3.293   2.752  0.0093  0.0118 -0.0419
 9593W        W26440   6.263  14.336  10.430 -0.3378 -0.2577  0.2589
 9594W        W26441  15.828  12.472  14.049  0.1338  0.0799  0.0081
 9595W        W26442  15.108   1.225  11.796  0.1185 -0.0589  0.3375
 9596W        W26443  18.128   7.184   4.878  0.3252  0.0787 -0.0762
 9597W        W26444   7.370  10.417  12.281 -0.0029 -0.1362  0.0126
 9598W        W26445   7.120  16.441   3.254  0.1110 -0.3922 -0.0206
 9599W        W26446   7.353   9.699   5.238 -0.1162  0.0952 -0.1282
 9600W        W26447   4.966   3.220  14.802  0.2124 -0.1461 -0.2937
 9601W        W26448   8.553   6.472  14.304  0.0515  0.0147  0.1541
 9602W        W26449   5.337  15.206  12.929  0.0949 -0.0498  0.3810
 9603W        W26450   6.461   8.347   0.840  0.0874 -0.1685 -0.0280
 9604W        W26451  16.611  16.079   2.306  0.2160  0.0917  0.0472
 9605W        W26452   2.877  11.840  12.621  0.1731 -0.1821  0.4775
 9606W        W26453  19.251   3.387  14.178  0.0119 -0.2410 -0.1420
 9607W        W26454  11.002  14.979  14.073  0.0692  0.0759  0.0595
 9608W        W26455  12.749  18.715   4.336 -0.1533 -0.0675 -0.1295
 9609W        W26456  13.616   6.736   3.340  0.1539  0.1052  0.0951
 9610W        W26457   3.653  12.389   3.132 -0.0908 -0.4969  0.0708
 9611W        W26458   5.559  14.901  14.643 -0.0098  0.2530 -0.0751
 9612W        W26459   5.827   5.186  11.518  0.5041  0.1203 -0.0763
 9613W        W26460   9.300  18.304   1.828 -0.1875  0.1215  0.2930
 9614W        W26461   4.884  14.358  13.723  0.2878 -0.2215  0.2626
 9615W        W26462   6.965   3.231   0.185 -0.0493  0.1353 -0.2732
 9616W        W26463   1.052   8.991   3.737  0.1368 -0.1105  0.0017
 9617W        W26464   3.152   0.002  14.222 -0.0408 -0.2058  0.0847
 9618W        W26465  18.938  11.054   0.508 -0.0002  0.1998  0.0589
 9619W        W26466  10.950  16.958   3.208  0.3950 -0.2780 -0.0775
 9620W        W26467  11.591  14.828   0.657 -0.0913 -0.2150  0.3593
 9621W        W26468  15.426   2.428  13.649  0.1445  0.1727 -0.0653
 9622W        W26469   8.635   5.937   1.964 -0.2380 -0.1064  0.2174
 9623W        W26470   1.134   6.644  14.691  0.2431 -0.4265 -0.4461
 9624W        W26471  10.417   8.980  14.246 -0.0991  0.0631  0.1560
 9625W        W26472  15.405   9.401  12.891  0.0512 -0.3434  0.1437
 9626W        W26473  14.109  12.005   9.872  0.0637  0.1189 -0.0378
 9627W        W26474  15.904  15.245  14.438 -0.0593 -0.2576 -0.2121
 9628W        W26475   0.375   6.886   1.565 -0.0980  0.0234  0.3400
 9629W        W26476   5.734   9.871   3.740 -0.0857  0.0910 -0.0035
 9630W        W26477   8.898   3.905  12.675 -0.1654 -0.1744  0.2661
 9631W        W26478  17.203  12.967   0.714 -0.2322  0.3260  0.1025
 9632W        W26479  16.234   5.284  11.660  0.1859 -0.0833  0.1897
 9633W        W26480   7.238   2.798  10.307  0.0864  0.0336  0.0069
 9634W        W26481  16.931   9.479  11.281  0.0619 -0.3047 -0.1291
 9635W        W26482   1.816  19.275   4.869  0.0878 -0.0736 -0.1865
 9636W        W26483   6.867  10.480  13.856 -0.2890  0.1184  0.0566
 9637W        W26484   9.974  13.300  14.586 -0.0975  0.0923 -0.1608
 9638W        W26485  11.637  13.736   0.679 -0.2225  0.0410  0.2083
 9639W        W26486  14.454  13.563   5.352 -0.1596  0.1704  0.3117
 9640W        W26487  15.302   1.933  14.331  0.0076 -0.2592 -0.0956
 9641W        W26488   4.502   0.379   0.820  0.0772 -0.1541 -0.0624
 9642W        W26489  17.160   9.043   5.102  0.3575 -0.3131  0.1023
 9643W        W26490   1.088   1.234  13.179  0.1616  0.0646  0.0644
 9644W        W26491  18.961  14.614   2.612  0.0060 -0.0663  0.0895
 9645W        W26492   9.319   7.373  14.136  0.0542  0.1598 -0.1471
 9646W        W26493  13.182  10.681  13.645 -0.1851  0.3002 -0.1869
 9647W        W26494  14.322  13.803  11.675  0.0534  0.1724  0.0727
 9648W        W26495   4.938  17.276   2.270  0.0808 -0.0945 -0.0382
 9649W        W26496  10.292   2.772  11.930  0.0276  0.1358 -0.1546
 9650W        W26497  10.210   9.035  13.795 -0.0383  0.1294  0.0972
 9651W        W26498  12.607  11.224   0.855 -0.1373 -0.0222  0.1798
 9652W        W26499   3.397  10.903  10.251 -0.0431 -0.0414 -0.0591
 9653W        W26500   6.536  16.002   1.627  0.3047 -0.2130 -0.1385
 9654W        W26501  10.047   8.628  13.669  0.2310 -0.0704  0.0917
 9655W        W26502  18.732   9.574  13.479 -0.3070 -0.0178 -0.2929
 9656W        W26503   6.820   1.660  12.520 -0.2493  0.2149  0.0533
 9657W        W26504   2.416  17.738   0.516  0.0541 -0.1708  0.2119
 9658W        W26505  10.963  12.456  10.492  0.0973  0.0613 -0.2314
 9659W        W26506   1.468   1.455  14.540  0.1850 -0.0151  0.0811
 9660W        W26507  17.006  18.430   4.291 -0.0368 -0.3179  0.2088
 9661W        W26508  11.569   8.325   2.656 -0.0219  0.3719  0.2626
 9662W        W26509  17.083   0.809  11.333 -0.1199  0.0742 -0.0493
 9663W        W26510  18.698  14.544   1.198 -0.0542  0.1949 -0.0747
 9664W        W26511   5.949   3.613   2.242  0.1458  0.3989  0.1930
 9665W        W26512   7.352   9.526   2.877 -0.0784  0.2198  0.1126
 9666W        W26513   3.557   9.747  13.680  0.1758  0.1257  0.2403
 9667W        W26514  17.022   0.971  13.087  0.0113 -0.3698  0.2645
 9668W        W26515  11.965   2.474   0.325  0.0140 -0.1466 -0.0334
 9669W        W26516  14.712  13.295  11.219 -0.3010  0.3407  0.1950
 9670W        W26517   6.540  19.006   2.421 -0.3905 -0.0639 -0.0107
 9671W        W26518  16.696   2.919  13.563  0.1459 -0.2163 -0.1614
 9672W        W26519   1.079  13.490   3.939  0.0357  0.3772 -0.0702
 9673W        W26520  16.892  18.475   1.212 -0.3537  0.1243 -0.0783
 9674W        W26521   9.571  14.330  12.952  0.2002 -0.1548 -0.6079
 9675W        W26522   5.068  13.148  13.012 -0.2776  0.3230  0.0319
 9676W        W26523   7.963  15.597   3.711  0.1562  0.0210 -0.0234
 9677W        W26524   6.898   2.279   0.272  0.2504 -0.2130  0.3988
 9678W        W26525  17.205  12.878   4.775 -0.1046  0.2468  0.1441
 9679W        W26526  16.769  11.920   3.281 -0.1836  0.2309  0.1968
 9680W        W26527  16.014  14.457  12.497  0.1241 -0.0637 -0.1266
 9681W        W26528   3.663   3.480   4.127  0.2948  0.1135 -0.2788
 9682W        W26529   1.258   9.391   2.659  0.3502  0.1676  0.0364
 9683W        W26530  15.496  10.016  10.938 -0.1171 -0.0250 -0.2996
 9684W        W26531   7.914   5.373   2.963  0.1918  0.0170  0.0334
 9685W        W26532   1.004  16.385   9.802  0.0017  0.0718  0.4865
 9686W        W26533  11.009  17.868   0.016 -0.2316 -0.0636 -0.3051
 9687W        W26534  12.830  13.171  11.547  0.0423 -0.2018  0.1655
 9688W        W26535   7.850  16.003  10.660 -0.2491 -0.0178 -0.3922
 9689W        W26536  17.792   9.818   3.777  0.1118 -0.1043 -0.0734
 9690W        W26537   1.977   4.763  13.348  0.1301 -0.2230 -0.3003
 9691W        W26538  16.040  18.885   0.952  0.0144  0.3433 -0.1468
 9692W        W26539  16.020   4.096   0.318 -0.0647  0.0729 -0.1799
 9693W        W26540   4.429   6.286  14.044  0.0572 -0.1598  0.2819
 9694W        W26541  14.329  10.546   5.468  0.3296  0.0454 -0.2649
 9695W        W26542   9.924   2.771  14.877 -0.1218  0.0555 -0.0352
 9696W        W26543  12.022  16.949   2.571  0.1200  0.3227  0.0886
 9697W        W26544   1.321  14.000  13.735 -0.0792  0.1238  0.2236
 9698W        W26545   0.459  13.902  14.536 -0.0546 -0.0431 -0.1892
 9699W        W26546  17.407   8.091   4.238  0.4105 -0.1636  0.1675
 9700W        W26547  11.218   1.080  14.722  0.0959  0.0030 -0.2184
 9701W        W26548   5.855   2.432   2.210 -0.1181  0.1401  0.0701
 9702W        W26549  17.546  14.363  12.324  0.1679  0.0785  0.1956
 9703W        W26550  15.608   7.014  12.413 -0.1982 -0.1269  0.1441
 9704W        W26551  12.114   8.862  14.245  0.1974  0.0683 -0.1682
 9705W        W26552  14.259   9.658   1.539 -0.0924  0.3084 -0.0788
 9706W        W26553  12.252  16.082   3.483 -0.1341  0.0303  0.1784
 9707W        W26554   2.217  19.104  11.186  0.1124  0.0536  0.2093
 9708W        W26555   4.789   9.493  13.181  0.1234 -0.3443  0.2089
 9709W        W26556   7.457  11.293  14.125 -0.1627 -0.1656  0.1626
 9710W        W26557  10.753   4.672   3.933 -0.1235 -0.1582 -0.0506
 9711W        W26558   6.100   5.109   1.960  0.1316 -0.4791  0.2621
 9712W        W26559   5.537   5.560  11.166 -0.3820  0.1649  0.1587
 9713W        W26560   4.454  15.656  13.040 -0.1335  0.0806 -0.3306
 9714W        W26561  15.237   0.799  14.075 -0.0585 -0.0353  0.2545
 9715W        W26562  16.184   0.844   4.466 -0.0794 -0.1138  0.2122
 9716W        W26563  17.478  12.120  11.799 -0.0838  0.1629  0.1784
 9717W        W26564  13.808  18.086   0.099  0.4092  0.2277  0.1452
 9718W        W26565  10.689   5.116   4.269 -0.0680  0.0834  0.3116
 9719W        W26566   9.617   9.469   2.927  0.2222 -0.1089 -0.1003
 9720W        W26567  16.749   6.605   0.625 -0.0889  0.2722 -0.3016
 9721W        W26568  14.208   4.631  10.316 -0.3969 -0.0967  0.0273
 9722W        W26569  14.380   0.714  12.322 -0.0343 -0.2365 -0.2115
 9723W        W26570  16.616   2.690   0.196 -0.1672  0.0335 -0.0194
 9724W        W26571   8.436   5.531   2.057  0.1626  0.1105 -0.0477
 9725W        W26572   3.202  15.709   5.099 -0.1226  0.0785  0.2927
 9726W        W26573   5.513  10.491  10.999  0.3672  0.2614 -0.2585
 9727W        W26574  10.789   6.974  11.105  0.1616 -0.1580 -0.1204
 9728W        W26575   7.350  15.802  13.336  0.1525 -0.0809  0.2480
 9729W        W26576   0.496   6.346   2.521  0.0871  0.3732  0.0641
 9730W        W26577  13.887   1.730  13.356 -0.2839  0.2457 -0.3307
 9731W        W26578  16.767  14.384  10.732 -0.3404 -0.0572  0.0700
 9732W        W26579   6.089   2.795   5.003 -0.1428 -0.2047 -0.0693
 9733W        W26580   7.003  18.919   3.014  0.3628  0.2997  0.2028
 9734W        W26581  12.226   5.460  12.059  0.0487  0.0390 -0.2832
 9735W        W26582  10.005  14.891  13.438  0.1055  0.2339 -0.0786
 9736W        W26583  16.877   5.688  10.532 -0.0749  0.4233 -0.0036
 9737W        W26584  12.967  16.745  12.311 -0.1586  0.0729 -0.2236
 9738W        W26585   6.494  14.026   3.232 -0.2440 -0.2104  0.0161
 9739W        W26586   3.487   2.641   1.975 -0.0543 -0.0044  0.1714
 9740W        W26587   5.591   7.406  12.666 -0.0241  0.0066  0.1542
 9741W        W26588  18.512  10.594  10.198 -0.0114 -0.3145 -0.0374
 9742W        W26589   7.013   8.192   1.719 -0.1970 -0.2245  0.0788
 9743W        W26590   4.630  17.161  11.354  0.2160  0.2226  0.0461
 9744W        W26591   5.925   1.074  12.510 -0.1010 -0.0830  0.1198
 9745W        W26592  17.930  13.016  11.574 -0.0230 -0.0658  0.1746
 9746W        W26593   2.157   0.268   2.656  0.0941 -0.0549  0.0316
 9747W        W26594  18.493   9.292   9.874  0.1374 -0.1038  0.1902
 9748W        W26595   2.491   6.298  11.092 -0.0708  0.1070 -0.2249
 9749W        W26596  15.194   3.179  13.079 -0.1408 -0.1002  0.1927
 9750W        W26597   9.648   1.595  10.833  0.1812  0.2364 -0.1780
 9751W        W26598  13.642  17.792   2.810  0.3497 -0.0274  0.0894
 9752W        W26599   5.209  17.210   4.316 -0.0421 -0.0276  0.0928
 9753W        W26600   0.706   1.048  12.197  0.1609 -0.2556 -0.0308
 9754W        W26601  18.555   1.445  13.924  0.2351 -0.0210 -0.1037
 9755W        W26602   9.165  13.368  13.092  0.2270 -0.2262  0.3311
 9756W        W26603   5.610   7.202   2.234  0.1455  0.3302 -0.1235
 9757W        W26604   4.707  10.108   0.485  0.0342  0.1303  0.4142
 9758W        W26605   3.253  15.926   2.218 -0.0370 -0.2029  0.1132
 9759W        W26606  10.280  11.991   2.924 -0.0633 -0.0233 -0.1923
 9760W        W26607  12.089  16.320   3.077 -0.3882  0.0230 -0.4438
 9761W        W26608  13.909  10.447   0.515  0.3711  0.0838  0.2194
 9762W        W26609   8.904  17.252   3.946 -0.1062 -0.2122 -0.1618
 9763W        W26610  16.303   0.272  11.499 -0.1800 -0.3855 -0.0683
 9764W        W26611  15.760   2.202  14.352  0.3487  0.3062 -0.0035
 9765W        W26612   8.465  11.350   2.800 -0.1661 -0.4193  0.2557
 9766W        W26613   4.982   0.797  14.993  0.3679  0.0318 -0.2196
 9767W        W26614  13.718  15.884   2.949  0.0027  0.1496  0.2782
 9768W        W26615  15.053   3.213   2.697 -0.2189 -0.1060 -0.2128
 9769W        W26616  15.623  14.504   1.179  0.0146  0.2620 -0.0653
 9770W        W26617  17.896  13.269  13.534 -0.3684 -0.2395 -0.0148
 9771W        W26618  13.157  14.960   2.773 -0.0364  0.0368 -0.0070
 9772W        W26619  15.645  13.946   0.090 -0.0498 -0.1245  0.1393
 9773W        W26620  17.095  13.899  13.147  0.1567 -0.2048 -0.1317
 9774W        W26621   8.853   7.279  15.006  0.0378  0.0517 -0.3045
 9775W        W26622   1.176   2.505   2.703  0.2399  0.3787 -0.1772
 9776W        W26623  13.979   3.551  13.012 -0.1485  0.0415 -0.0896
 9777W        W26624  12.711   4.310   3.560 -0.0261 -0.2474 -0.0265
 9778W        W26625   9.767  10.717  11.557  0.0652  0.0149  0.0439
 9779W        W26626  13.533   9.086   2.001 -0.4480  0.2281  0.0009
 9780W        W26627  13.591   0.851   4.681  0.2166 -0.0237  0.1335
 9781W        W26628   9.808   6.728   4.046 -0.3237  0.1164  0.0230
 9782W        W26629   2.663  13.390   3.314  0.1234  0.1499 -0.2745
 9783W        W26630  15.769  14.201  10.776 -0.0916  0.0642 -0.0926
 9784W        W26631  14.458   7.007   4.099  0.1173 -0.2721  0.1398
 9785W        W26632   7.955   7.907  11.689 -0.0764 -0.2221  0.1528
 9786W        W26633  18.569  16.346   0.636 -0.0758  0.0444  0.0423
 9787W        W26634  13.274  12.037   4.794  0.0459 -0.3203 -0.1665
 9788W        W26635   5.532   9.895  11.120 -0.2538  0.3489 -0.1629
 9789W        W26636  12.174  10.681  13.932  0.2215 -0.0840  0.1165
 9790W        W26637   9.313   1.667   0.585  0.2229 -0.1715  0.0198
 9791W        W26638   2.610  13.144  12.609 -0.1638 -0.1200  0.2979
 9792W        W26639   1.771   1.227   1.218 -0.2719 -0.2218 -0.1708
 9793W        W26640   8.034   9.492   3.084  0.1194 -0.2860  0.3298
 9794W        W26641  17.356   2.306   4.852  0.1209  0.1259  0.1021
 9795W        W26642   6.992   0.188  10.947  0.1281 -0.0180 -0.0028
 9796W        W26643   2.530   4.945  12.781  0.4233  0.0556 -0.0179
 9797W        W26644  14.606   1.447  10.446 -0.2090  0.0628  0.0030
 9798W        W26645  11.402   5.908  11.648 -0.0968  0.2602 -0.2013
 9799W        W26646  14.401  11.427  13.123 -0.0553  0.1728 -0.1944
 9800W        W26647   9.665   5.202  11.480  0.1063 -0.2107  0.4850
 9801W        W26648  17.935   3.797   3.176  0.1885  0.0622 -0.2938
 9802W        W26649   8.741   3.018   4.465 -0.0413 -0.1311  0.1441
 9803W        W26650  17.714  16.319  10.379  0.2038  0.1180  0.1495
 9804W        W26651  11.499  14.667   5.048  0.0365  0.2167  0.0148
 9805W        W26652   8.257  10.747  11.112  0.0487  0.0900 -0.0769
 9806W        W26653   5.601  15.561  13.140  0.2563  0.1210 -0.0864
 9807W        W26654   4.281   3.623   4.311  0.0227  0.3586  0.0375
 9808W        W26655   3.403   7.508   1.224 -0.0159 -0.0781  0.1923
 9809W        W26656  12.594   1.553  11.545 -0.0645 -0.0634 -0.0090
 9810W        W26657  12.358   8.624   9.085 -0.3452 -0.1683  0.1852
 9811W        W26658  16.755   5.210  12.861  0.6802 -0.0467  0.1006
 9812W        W26659  10.733   9.295  12.029  0.1245  0.1138  0.0757
 9813W        W26660  15.132  12.902  11.419 -0.1446 -0.1075 -0.1725
 9814W        W26661   7.246   5.241   1.035  0.0600 -0.0068  0.0847
 9815W        W26662   8.286  14.342  14.988  0.0380  0.0328  0.0278
 9816W        W26663  18.843  18.434  11.100 -0.3181 -0.1955 -0.2390
 9817W        W26664  15.313   1.942  13.509  0.0884  0.3468  0.1759
 9818W        W26665  15.414   8.186   3.028  0.0915  0.1929 -0.3341
 9819W        W26666   6.664   1.888   0.032  0.2102  0.0156 -0.1184
 9820W        W26667   3.910  18.876  11.596  0.2928  0.3504  0.1313
 9821W        W26668  14.898  15.225  11.848 -0.0232 -0.0299 -0.1172
 9822W        W26669  19.146   3.973   4.444 -0.0246  0.1739  0.0260
 9823W        W26670   9.590  13.308   1.224  0.0853  0.4647  0.3023
 9824W        W26671  13.590  19.273  11.076  0.1313  0.3656  0.2442
 9825W        W26672   3.016   6.137   0.221 -0.0426 -0.0710  0.1283
 9826W        W26673  11.816   1.799   3.542 -0.0625 -0.2346  0.0663
 9827W        W26674  15.956  13.939  13.482 -0.0267 -0.0708  0.1243
 9828W        W26675  14.841   1.595  14.447 -0.2206  0.1174  0.1974
 9829W        W26676   6.086  18.712  10.635  0.3376  0.4195  0.0354
 9830W        W26677  12.268  14.797   2.844  0.2938 -0.0002 -0.1109
 9831W        W26678   9.103  11.456   4.673 -0.0970 -0.1469  0.1789
 9832W        W26679  18.956   9.631  11.476 -0.0201 -0.1646  0.0733
 9833W        W26680  14.032   5.998  13.080 -0.0575 -0.1998  0.0347
 9834W        W26681   3.325  14.563   4.565 -0.3561 -0.0198  0.1338
 9835W        W26682   8.986   8.246   4.082 -0.0276 -0.5189 -0.0741
 9836W        W26683  18.473   1.050  12.361  0.1278 -0.0511 -0.2075
 9837W        W26684   5.531  11.368  11.678 -0.1291  0.3137 -0.2168
 9838W        W26685  12.293   7.369   0.394 -0.1063  0.1287  0.0012
 9839W        W26686   9.849   6.904  14.158  0.0890  0.2430  0.0832
 9840W        W26687  15.331   1.210   3.172 -0.1499  0.0070  0.2070
 9841W        W26688   6.702   4.537  14.893 -0.2597 -0.1455 -0.0607
 9842W        W26689   3.716   0.052   0.564  0.2153  0.2442 -0.0680
 9843W        W26690   8.754   7.796  10.993 -0.2315  0.1825 -0.0092
 9844W        W26691  10.020  17.684   4.022 -0.4253 -0.0094 -0.0672
 9845W        W26692  14.340   6.245  11.665  0.0609  0.0152  0.0219
 9846W        W26693  15.957  12.720  12.584  0.0424 -0.1575 -0.1634
 9847W        W26694   9.617  12.724  10.585 -0.0777 -0.0411  0.0315
 9848W        W26695  15.172  15.834   9.832  0.4589  0.1901  0.3520
 9849W        W26696   2.018  16.436  11.734  0.0538  0.0457  0.0069
 9850W        W26697  17.558  16.438  14.656  0.3053  0.1363  0.3335
 9851W        W26698   4.569  12.952   3.018  0.0791  0.1158 -0.3267
 9852W        W26699   6.456   1.863  11.112 -0.1317  0.1721  0.1480
 9853W        W26700   8.490  17.916   1.209 -0.2433  0.0847  0.2423
 9854W        W26701  10.491  12.805  13.401  0.0651  0.1672 -0.2005
 9855W        W26702  16.636   6.779  13.621  0.0054 -0.1707  0.0629
 9856W        W26703   1.025   9.245  10.024 -0.2599  0.3482 -0.3534
 9857W        W26704  11.300   7.359  12.631 -0.1511 -0.1284 -0.0057
 9858W        W26705  17.867   1.978  11.517  0.2048  0.1271 -0.0906
 9859W        W26706  16.917   7.790  11.909 -0.0566  0.0793 -0.0811
 9860W        W26707  12.681   3.399   1.059  0.1510 -0.2640 -0.2317
 9861W        W26708   6.353  15.520   5.280  0.1734  0.3217  0.0558
 9862W        W26709   0.639  17.196  12.809  0.1045  0.2749 -0.1344
 9863W        W26710  18.006   7.252   3.999 -0.3069  0.1040  0.0059
 9864W        W26711   0.378   3.429   3.729 -0.1065 -0.4166  0.0603
 9865W        W26712  11.390  17.064  12.639  0.0334 -0.0354 -0.0577
 9866W        W26713  13.093  13.328  11.147  0.2076  0.3053  0.3078
 9867W        W26714  11.971  16.200  13.710 -0.0227 -0.0532  0.1460
 9868W        W26715  18.205   6.867  14.602  0.2370  0.1835  0.0562
 9869W        W26716  18.304  16.728  11.661 -0.0006 -0.0553  0.1474
 9870W        W26717   5.444   3.691  12.540 -0.0121 -0.2803 -0.0707
 9871W        W26718  16.636   0.778   0.415  0.0943  0.0547  0.3579
 9872W        W26719  15.104   2.106   5.217  0.0110 -0.0287  0.2300
 9873W        W26720   6.199  18.716   4.277 -0.2284  0.0489  0.0868
 9874W        W26721   7.029   0.079   4.606  0.0212 -0.3059  0.3344
 9875W        W26722   9.943  15.342   0.596 -0.1005 -0.5252  0.2206
 9876W        W26723  14.883  17.846  12.032 -0.1023  0.0103  0.1349
 9877W        W26724   1.228  11.457   2.343  0.2790 -0.1732  0.1542
 9878W        W26725  14.269  15.796   0.907 -0.0150  0.2005  0.1648
 9879W        W26726   6.174  14.374  10.918  0.1726 -0.3256  0.2056
 9880W        W26727   9.908   8.906  12.574 -0.1618 -0.2816  0.1042
 9881W        W26728   8.304  17.569  12.262  0.0152  0.1734  0.1676
 9882W        W26729   9.365  17.126   4.376 -0.1576 -0.1694  0.0103
 9883W        W26730   3.991   9.228  10.989  0.5160 -0.0026  0.0226
 9884W        W26731   5.830   3.779  12.860 -0.1079  0.0262  0.2399
 9885W        W26732   9.095   4.065   3.986  0.1844  0.4616 -0.0310
 9886W        W26733   4.274  14.450   3.523 -0.0815 -0.0638  0.0962
 9887W        W26734  18.001   5.547  13.992  0.1818  0.0978  0.2214
 9888W        W26735   4.490   9.787  11.360  0.4830 -0.0043  0.1973
 9889W        W26736   4.585  14.229  11.629 -0.0348  0.0294 -0.2956
 9890W        W26737   6.287   3.224   3.949 -0.1008 -0.1448 -0.0066
 9891W        W26738  19.174  13.837  11.791  0.0112 -0.2660 -0.0946
 9892W        W26739   2.519  14.362   3.362  0.0124  0.1240 -0.0775
 9893W        W26740   8.331  14.916   0.166  0.2608  0.3111  0.0677
 9894W        W26741  14.495  10.986  12.613 -0.2635 -0.1527  0.0748
 9895W        W26742   7.994   9.838   0.097  0.0815  0.1741 -0.0219
 9896W        W26743  15.527  12.961   4.292 -0.1734  0.1244  0.0184
 9897W        W26744   1.173   2.846   2.334  0.0419 -0.2853  0.0022
 9898W        W26745  16.685   0.908   4.304 -0.1768  0.0443 -0.1359
 9899W        W26746  11.856   3.692  13.329 -0.0813 -0.0473  0.1338
 9900W        W26747  18.796  18.598   2.167  0.0343 -0.0461 -0.0288
 9901W        W26748  13.934  12.440   4.436  0.1153 -0.3209 -0.1960
 9902W        W26749   6.787  11.886  11.030 -0.4932 -0.0484  0.0187
 9903W        W26750  16.411  16.216  10.933 -0.0058  0.0010 -0.0771
 9904W        W26751  11.536  15.865   1.295  0.0659  0.1936 -0.2406
 9905W        W26752  17.208   7.827   3.862 -0.4094  0.0335 -0.2046
 9906W        W26753  11.938   6.520  11.880  0.0443  0.1558  0.0794
 9907W        W26754  10.139  11.617  10.130  0.0007 -0.0786 -0.1458
 9908W        W26755  10.465  11.486  12.847  0.1741 -0.3717  0.1827
 9909W        W26756   1.484   2.329   0.667  0.0995 -0.2400  0.3370
 9910W        W26757   3.671   8.912   1.219  0.0093  0.0424  0.0956
 9911W        W26758  11.889   0.644  12.371  0.2347 -0.3778 -0.0144
 9912W        W26759  11.708  18.042  12.342 -0.1916  0.2406 -0.1006
 9913W        W26760   3.641  16.564   3.161 -0.2237  0.0328 -0.1501
 9914W        W26761   2.264  11.152   3.307  0.0859 -0.2360 -0.2163
 9915W        W26762  15.438  18.824  11.757 -0.0577  0.1973 -0.1093
 9916W        W26763  18.824   6.116  10.955 -0.2230 -0.0446 -0.0571
 9917W        W26764   1.378   4.831   3.829 -0.2989 -0.2017  0.0504
 9918W        W26765   9.935   6.666   0.581  0.2917  0.1283  0.1551
 9919W        W26766   0.473   9.514   1.993  0.0047  0.3747 -0.0394
 9920W        W26767   4.935  17.930  11.954  0.0698 -0.1464 -0.1920
 9921W        W26768   1.048  13.814  10.596  0.1233 -0.0026 -0.1707
 9922W        W26769  12.560   2.245   5.034 -0.1775 -0.1815 -0.2057
 9923W        W26770   4.113   3.681   0.666  0.2797 -0.0652 -0.2751
 9924W        W26771  10.783   1.408   4.882  0.1555  0.1039  0.2607
 9925W        W26772   4.277   2.106  10.960  0.0965  0.1163  0.1653
 9926W        W26773   7.536   7.009   0.716  0.2642  0.1122 -0.1061
 9927W        W26774  14.071   5.647  10.249 -0.0953 -0.2830  0.0725
 9928W        W26775   8.756  14.981  12.811  0.0831  0.1208 -0.0899
 9929W        W26776   6.446  12.071   4.876  0.2692  0.0072  0.0685
 9930W        W26777   4.643   7.590  10.942 -0.2061  0.4246  0.1600
 9931W        W26778  11.175   3.912  12.051 -0.1275 -0.3332 -0.0964
 9932W        W26779   8.386   3.369   5.324  0.3041 -0.3128 -0.2226
 9933W        W26780   3.651   9.536  13.195 -0.0960  0.0001  0.4130
 9934W        W26781  15.641   5.691   2.389 -0.2822 -0.0243 -0.0762
 9935W        W26782  16.133  17.276  12.302 -0.3268 -0.1396 -0.1917
 9936W        W26783   2.992  15.554   2.544 -0.0044  0.0192 -0.0350
 9937W        W26784  11.344  13.205  14.274 -0.2680 -0.0914  0.1689
 9938W        W26785   2.880   0.737  10.954  0.0306  0.1301 -0.0200
 9939W        W26786   7.681   2.442   3.287 -0.0447 -0.1470 -0.1310
 9940W        W26787   5.835   4.086   0.785  0.0276 -0.0131  0.2922
 9941W        W26788  15.125   0.124   5.419  0.0893  0.0596  0.2109
 9942W        W26789   2.616   7.162  13.102 -0.0744  0.2731 -0.0398
 9943W        W26790  11.183   7.101  11.817  0.2934 -0.2520  0.2103
 9944W        W26791   0.323   2.850   3.732 -0.0446 -0.0149  0.1738
 9945W        W26792  17.422   9.803   0.164  0.0977  0.3939 -0.0094
 9946W        W26793   6.324   7.641   0.553  0.0218  0.5286  0.2438
 9947W        W26794   7.468   2.094   2.920 -0.3135 -0.2749  0.2765
 9948W        W26795  14.946  15.836  12.469  0.2514  0.0897  0.0210
 9949W        W26796  15.217  13.513  11.149 -0.1264  0.4006  0.2159
 9950W        W26797   6.513   0.194   4.153 -0.0055 -0.0110 -0.0251
 9951W        W26798  16.396   8.637   2.944  0.0051 -0.0896 -0.0019
 9952W        W26799  15.101   8.655   0.353  0.1228 -0.0908  0.3278
 9953W        W26800   6.858  17.170  13.824 -0.2904 -0.1702 -0.3702
 9954W        W26801   7.783   2.057   1.254 -0.0356  0.4277  0.1390
 9955W        W26802  19.001  13.630  11.029 -0.2209 -0.2440 -0.0739
 9956W        W26803  10.254   6.132   3.039 -0.0812 -0.1054  0.1385
 9957W        W26804   6.849   4.791  14.435  0.2775  0.3925  0.1833
 9958W        W26805  18.476   3.123   3.674 -0.3771 -0.1603 -0.3294
 9959W        W26806   0.340   0.687  12.107  0.2662  0.2046  0.1110
 9960W        W26807  15.172  10.310   1.928  0.0878 -0.3210 -0.0175
 9961W        W26808   4.349   0.578   4.715 -0.0001  0.4014 -0.0424
 9962W        W26809  10.354  19.272  12.986  0.3243  0.1373  0.0915
 9963W        W26810   7.606  11.450   1.353  0.1693 -0.0568 -0.1685
 9964W        W26811  13.453  13.521  11.996 -0.2081 -0.2669 -0.2983
 9965W        W26812  16.206  16.831   1.016  0.0364  0.1780  0.1906
 9966W        W26813   2.473  17.516   1.818 -0.0861 -0.0141 -0.2644
 9967W        W26814   1.030   7.403  12.895 -0.1314 -0.4225 -0.0722
 9968W        W26815  10.208  15.716   1.266 -0.0141 -0.0151  0.1240
 9969W        W26816  13.367   7.520   3.042  0.1989  0.1936  0.0064
 9970W        W26817   6.868   7.313  10.214  0.2421  0.0627  0.3714
 9971W        W26818  12.850   1.790  14.131 -0.1932 -0.0933  0.0126
 9972W        W26819   5.343   9.416  13.162 -0.0398 -0.2815  0.0684
 9973W        W26820  16.972   4.177  14.095  0.1236  0.1518 -0.0349
 9974W        W26821   0.777   0.457   2.085 -0.1804  0.0955  0.0833
 9975W        W26822  15.697   1.085   2.746 -0.3646  0.0730 -0.0982
 9976W        W26823   5.512  17.346  13.264  0.1051  0.1321  0.1089
 9977W        W26824  12.694  16.793   4.372 -0.3621 -0.0978 -0.1598
 9978W        W26825   0.644   1.677   3.097 -0.2272 -0.3984 -0.2964
 9979W        W26826  11.351   0.866   5.362 -0.1699 -0.2089 -0.0577
 9980W        W26827  12.322   0.809  11.372  0.0911  0.2927  0.2401
 9981W        W26828  11.290  11.334   4.666  0.0077  0.0735 -0.1639
 9982W        W26829  16.122   6.445  12.983 -0.1015  0.1154  0.0884
 9983W        W26830   6.495  14.748   0.383 -0.0754 -0.0791  0.1496
 9984W        W26831  14.824   5.390   2.014 -0.2249  0.3743 -0.0894
 9985W        W26832   5.862  13.778  13.268 -0.1177  0.1223 -0.2056
 9986W        W26833  10.552   6.285   0.301 -0.1173  0.0063  0.2680
 9987W        W26834  12.783   2.103  11.404 -0.1522 -0.2921 -0.3320
 9988W        W26835  16.598  18.924   2.197  0.3523 -0.0224  0.0359
 9989W        W26836   5.750  11.029  14.469 -0.3143 -0.0114  0.0133
 9990W        W26837   7.690  19.172  12.558 -0.0621 -0.0811  0.0027
 9991W        W26838   1.019   9.983  11.853  0.0072 -0.2156  0.0508
 9992W        W26839  14.689   6.886   1.035  0.5394  0.0708 -0.2922
 9993W        W26840  13.039   9.821  10.147  0.2729  0.0893 -0.2077
 9994W        W26841  18.655  17.392   2.116  0.1303 -0.0818  0.0314
 9995W        W26842   7.165  14.901  12.449 -0.2690 -0.0537  0.0166
 9996W        W26843   2.298  18.716   1.471  0.1526 -0.0366 -0.1847
 9997W        W26844   4.672   0.875   2.735 -0.0106 -0.0843 -0.1261
 9998W        W26845  13.516   6.803  11.262  0.2506  0.0635 -0.0050
 9999W        W26846   1.221  15.007  13.037  0.0731  0.0537 -0.0161
10000W        W26847   4.922   2.393   5.521  0.0617  0.0049 -0.0596
10001W        W26848   8.143   9.929  10.713 -0.1486 -0.0028 -0.1164
10002W        W26849   4.798   1.691   3.966 -0.1208  0.1719  0.1644
10003W        W26850  18.180  14.148  11.277  0.3876 -0.1436 -0.0014
10004W        W26851   3.760   9.293  12.597 -0.0667  0.3166 -0.3928
10005W        W26852   2.234  11.360  14.225 -0.0744  0.0626  0.1013
10006W        W26853   2.603  18.202  14.110 -0.2281  0.0391 -0.0309
10007W        W26854  17.623  10.620   1.758 -0.1420 -0.0544 -0.0387
10008W        W26855  13.178  18.553  12.154 -0.0688 -0.2143 -0.0524
10009W        W26856   0.781   6.076  12.608 -0.1129 -0.0743  0.0784
10010W        W26857   8.357  17.951   4.899  0.1613  0.3846  0.2889
10011W        W26858  13.322   3.810   2.874  0.0038  0.0856  0.2751
10012W        W26859   6.964   9.213   2.798 -0.2623 -0.1264  0.1064
10013W        W26860   2.143   9.870  12.259  0.1006 -0.0171  0.2564
10014W        W26861  15.434   6.030   3.552  0.5629 -0.1425  0.1561
10015W        W26862   9.783  13.601  14.955 -0.1683  0.0688 -0.2176
10016W        W26863  15.062  18.475  11.440  0.3160  0.0941 -0.1879
10017W        W26864   1.057   4.066  12.651  0.0467  0.2884  0.3951
10018W        W26865   8.270  16.534  11.268 -0.1907  0.0004 -0.0347
10019W        W26866   8.679  18.875  12.412  0.1485  0.0346  0.0252
10020W        W26867   3.586  17.231  14.054  0.1059 -0.3308 -0.0620
10021W        W26868   5.895  13.320  11.865  0.2459  0.0495  0.0434
10022W        W26869   6.609  15.312   4.299  0.0782 -0.0423 -0.0981
10023W        W26870   8.525  16.155   3.076 -0.1665  0.1533 -0.0238
10024W        W26871   6.442  18.760  13.961 -0.0372 -0.1842 -0.1360
10025W        W26872  16.903   6.139  10.396  0.0384 -0.0660  0.1679
10026W        W26873   9.614  16.750   1.952  0.1756  0.0952  0.2205
10027W        W26874   4.095   6.594   2.580  0.1444 -0.2878 -0.3544
10028W        W26875  13.092  10.198  13.756  0.3477 -0.2624 -0.0124
10029W        W26876   8.764  12.741  14.431 -0.0998  0.1291 -0.3974
10030W        W26877   1.006  11.989   3.040 -0.3606 -0.2397  0.1763
10031W        W26878   6.884   4.506   2.780  0.3585 -0.1175  0.3287
10032W        W26879   0.457  17.529   1.528  0.1045  0.0556  0.3343
10033W        W26880   5.680   7.479   1.659 -0.3831  0.1619 -0.0313
10034W        W26881   5.913  11.387   4.535  0.0828  0.2335 -0.0688
10035W        W26882   2.873  11.502  11.538 -0.0945 -0.0761  0.0065
10036W        W26883   3.348   4.406  13.558  0.4060  0.4309  0.4188
10037W        W26884  11.616  16.028   3.886  0.2229  0.2871 -0.2066
10038W        W26885  17.753  16.238   4.198  0.1372  0.0189  0.0034
10039W        W26886  12.175   6.429   2.781  0.3229 -0.3879  0.0979
10040W        W26887   1.828   0.305   2.115  0.3763  0.0760  0.1772
10041W        W26888  18.365  11.897  14.421  0.3426 -0.1939 -0.2657
10042W        W26889   7.084  18.490  12.687 -0.1166  0.2128 -0.0431
10043W        W26890   9.980   5.672   1.721 -0.0032 -0.1703 -0.0013
10044W        W26891   2.642  18.373   0.042 -0.0804  0.1574 -0.1162
10045W        W26892  18.747   1.859  12.127 -0.2691 -0.0434 -0.0872
10046W        W26893   7.957  14.984   9.429 -0.2395 -0.1684 -0.2401
10047W        W26894  18.289  18.375   1.065  0.3344 -0.1791 -0.0723
10048W        W26895   7.911   7.069  14.258 -0.0993 -0.0699  0.1378
10049W        W26896  17.351   1.223   3.260  0.0180  0.1831 -0.0067
10050W        W26897  13.367  19.101  12.851  0.3922  0.1400 -0.3266
10051W        W26898  13.638   2.813   1.728  0.2760  0.1091 -0.2186
10052W        W26899  14.537   9.965   0.123 -0.0363 -0.0848 -0.1463
10053W        W26900  16.763  10.926  11.882  0.3335 -0.0145  0.2241
10054W        W26901  14.328  13.174  12.036  0.1762  0.1154 -0.1486
10055W        W26902  12.480  16.923   2.917 -0.0511 -0.1773 -0.0648
10056W        W26903  12.012  16.807  11.963 -0.0542 -0.0482  0.2988
10057W        W26904  16.061   0.064   2.889  0.3023 -0.0456  0.2903
10058W        W26905  18.035  18.162   1.646 -0.1541  0.0234  0.0421
10059W        W26906   4.809   7.117  11.341 -0.0335 -0.2603  0.1547
10060W        W26907  12.864   7.602   0.924  0.1039  0.0107  0.0806
10061W        W26908   1.865   3.672  14.093  0.2552 -0.1663 -0.2469
10062W        W26909  10.952  11.989  10.300  0.0665 -0.0632 -0.1223
10063W        W26910   9.361  12.488   4.314  0.1932 -0.1047 -0.2367
10064W        W26911   5.129  15.887   2.538  0.0138  0.1761  0.1839
10065W        W26912  10.885   5.643   0.479  0.0002  0.1486  0.2358
10066W        W26913   1.817   6.289   0.384  0.0882 -0.1705 -0.4159
10067W        W26914   6.347   8.068  11.442  0.0927 -0.2994 -0.2633
10068W        W26915   7.650  18.488  14.899 -0.1963 -0.1283  0.0537
10069W        W26916   5.133   6.810   9.561 -0.2387 -0.1778  0.1432
10070W        W26917   4.610   0.594  11.840  0.2917  0.0851  0.0051
10071W        W26918  14.605   3.958   3.251 -0.1418  0.0363  0.0067
10072W        W26919  16.457   5.823   1.096  0.1847 -0.1829  0.1367
10073W        W26920   5.911  16.975  10.383  0.0429 -0.0478 -0.0014
10074W        W26921   2.623   4.782  11.779  0.1539 -0.1942 -0.0864
10075W        W26922  10.997  16.157   4.643  0.1728  0.2306  0.1578
10076W        W26923   9.438   7.418   3.753  0.2694 -0.0189 -0.2424
10077W        W26924   3.849  16.916  13.661 -0.0517  0.1686 -0.2494
10078W        W26925   5.005   0.305  14.891  0.0029 -0.1697 -0.0529
10079W        W26926   2.457   3.769  10.977 -0.2427  0.1834  0.2490
10080W        W26927  16.798   5.390   3.183  0.1943 -0.0258  0.0036
10081W        W26928   7.275   9.453  14.580  0.2992 -0.1691  0.2027
10082W        W26929  18.952   5.395   4.069  0.2186  0.0480 -0.1952
10083W        W26930  11.754  18.922  14.809  0.1972 -0.0230  0.1551
10084W        W26931  17.423   7.785   0.114 -0.1568 -0.0812  0.1226
10085W        W26932   7.909   0.344  13.443  0.0329  0.2824 -0.0976
10086W        W26933   3.876   1.100   3.276 -0.1791 -0.1800  0.0152
10087W        W26934   2.110  17.318   4.438 -0.1422 -0.1743 -0.0692
10088W        W26935  10.575   5.184  14.627 -0.1104  0.2947 -0.2217
10089W        W26936   1.866  19.161  13.385 -0.3743 -0.0893  0.3670
10090W        W26937   3.448   0.457   3.797 -0.2048 -0.1662  0.2021
10091W        W26938  12.897  11.660  12.904 -0.1680  0.2324  0.1346
10092W        W26939  10.491  14.128   5.841 -0.0724 -0.0177  0.0284
10093W        W26940  18.115   7.474   4.448  0.0580 -0.0154 -0.0564
10094W        W26941   6.116   7.437   4.407 -0.0196 -0.0311  0.2866
10095W        W26942  13.766   5.267   4.277  0.1119 -0.0766  0.1669
10096W        W26943  17.191   2.160   2.635 -0.0023  0.0349 -0.0664
10097W        W26944   7.609   1.721  13.934  0.0701 -0.1014  0.0095
10098W        W26945  11.492   8.708  14.100  0.0829  0.1324  0.1272
10099W        W26946  14.112   9.995   4.885  0.1228  0.1518 -0.2746
10100W        W26947  18.769   5.790   0.192  0.0918  0.0922 -0.2212
10101W        W26948   4.711  14.321   0.756  0.0531  0.2415  0.1272
10102W        W26949  14.354  13.428   0.908  0.3317  0.1109  0.3768
10103W        W26950  10.926   5.702   1.819 -0.0100 -0.2038  0.3264
10104W        W26951  18.502  14.105   3.372  0.0320  0.0615  0.1712
10105W        W26952  11.961   2.696  12.263 -0.1884  0.0541 -0.3090
10106W        W26953  15.250   1.377   4.271 -0.0089  0.1247 -0.0718
10107W        W26954   7.876   3.628  13.969 -0.2278  0.1961 -0.2742
10108W        W26955  16.826   2.037   3.047  0.1146 -0.1768  0.0383
10109W        W26956  15.338   0.434   4.198 -0.0216 -0.0079  0.0960
10110W        W26957   2.035  19.182   1.169 -0.4068 -0.0543  0.0267
10111W        W26958   8.736   3.105  11.158  0.0093 -0.2564  0.0238
10112W        W26959  15.421   6.453   3.818 -0.0840  0.0148 -0.2122
10113W        W26960   1.804  12.329  11.735  0.3219  0.1539 -0.1023
10114W        W26961  18.396  16.507   1.099  0.0604 -0.1694  0.2010
10115W        W26962  14.987   6.386  10.835 -0.0674 -0.1022  0.0946
10116W        W26963  13.269   0.223  13.127 -0.3133  0.0432 -0.1302
10117W        W26964   9.259  11.376  13.396 -0.2515 -0.1826 -0.1367
10118W        W26965   8.218  17.029  13.747 -0.1445 -0.3153  0.2333
10119W        W26966  11.848  14.001   4.399  0.1598 -0.2484  0.2336
10120W        W26967  12.607  14.603  14.685  0.0127 -0.1217  0.3364
10121W        W26968  17.036   5.023   3.467 -0.2154 -0.2147  0.0015
10122W        W26969  10.814   2.109   1.604 -0.0586  0.2700  0.1399
10123W        W26970  19.276   7.109   3.548 -0.1013  0.0522 -0.0097
10124W        W26971  12.795  10.405  12.137 -0.1664 -0.1595  0.2233
10125W        W26972   0.801   4.062  10.777  0.1904  0.0853  0.1022
10126W        W26973   4.348  10.250  11.613 -0.2019 -0.4473 -0.0425
10127W        W26974   8.243  11.215   3.261 -0.0890  0.2040  0.2155
10128W        W26975   6.919   2.467   5.640  0.2014  0.3781 -0.1343
10129W        W26976  11.722  15.420   3.307 -0.0947  0.3135  0.2381
10130W        W26977   7.358   6.940  11.624  0.2359 -0.0217 -0.1201
10131W        W26978   7.915  17.527   0.298 -0.1315 -0.1088 -0.1450
10132W        W26979   1.783  15.351   1.471  0.3863 -0.2184  0.1299
10133W        W26980  10.549   2.819  14.349 -0.2318  0.3026 -0.4044
10134W        W26981   1.929  15.941  11.482 -0.1021 -0.0558  0.5319
10135W        W26982   6.184   3.509   1.823 -0.1571 -0.0686  0.0419
10136W        W26983   1.099  10.499  10.384 -0.0029 -0.0936  0.0939
10137W        W26984   6.479   6.941   0.133  0.0244 -0.0904  0.0692
10138W        W26985   0.397   3.189   0.725 -0.1535  0.2291  0.1495
10139W        W26986  11.606   8.376   3.171 -0.0664 -0.2435 -0.3299
10140W        W26987   0.637   9.225  11.515  0.0684  0.0410  0.3411
10141W        W26988  17.035   2.360   1.162 -0.0592  0.0409  0.0684
10142W        W26989   7.309   3.274   3.165 -0.1306 -0.0450  0.3596
10143W        W26990  12.112  11.855  10.463  0.0328  0.0222 -0.2361
10144W        W26991  13.304   4.249   1.842 -0.0079 -0.2461 -0.0068
10145W        W26992  10.843  15.625   3.405  0.0385 -0.0880 -0.0409
10146W        W26993   3.246  14.177  10.836  0.2324  0.2437 -0.1949
10147W        W26994  16.813   9.274  13.728  0.4267 -0.2092 -0.0704
10148W        W26995   0.976  16.772   1.020  0.2048 -0.1014 -0.1856
10149W        W26996  17.034   2.540   2.958  0.2105  0.0623  0.3618
10150W        W26997  15.153  11.602  13.148  0.0528  0.3612  0.3203
10151W        W26998  14.233   5.709  13.498 -0.0434 -0.1937  0.1788
10152W        W26999   9.227  14.245   1.341 -0.0843  0.2092 -0.0162
10153W        W27000  18.520   2.515   5.301  0.0753 -0.0858  0.2700
10154W        W27001  12.210   1.017  12.133  0.1771 -0.3924 -0.0392
10155W        W27002   1.550  11.735  14.048  0.1956 -0.1074  0.3089
10156W        W27003   9.864  17.162   4.150 -0.1427 -0.0370  0.0331
10157W        W27004   5.478  13.895   2.750  0.0949 -0.1416 -0.0066
10158W        W27005   1.492   6.238  10.521  0.1333  0.0330 -0.2095
10159W        W27006   0.973   1.950  13.206  0.3426  0.1607  0.1249
10160W        W27007  12.728   3.178  13.704  0.0395 -0.1071  0.0478
10161W        W27008  14.918  16.341  12.701 -0.0446 -0.0441 -0.0010
10162W        W27009  10.156   9.961  10.538  0.0890 -0.0438  0.0405
10163W        W27010   7.294   5.742   1.122  0.0385 -0.1828  0.2508
10164W        W27011  11.691   1.884  12.700 -0.1131 -0.0450 -0.0270
10165W        W27012   3.647   3.016   0.341  0.2594 -0.1989 -0.0158
10166W        W27013  12.749   1.075   0.657  0.3254  0.0017  0.3284
10167W        W27014   1.076  17.488  14.644  0.3048  0.0034  0.0423
10168W        W27015   9.873  19.076   3.940  0.3057  0.1026 -0.4632
10169W        W27016  14.124   7.760  12.036 -0.1780 -0.0542 -0.0287
10170W        W27017   1.864  16.699   0.922 -0.0121  0.0985  0.1525
10171W        W27018  17.090  12.741   0.285 -0.0589  0.0043  0.1163
10172W        W27019  12.772   9.127   1.968 -0.0825  0.1000 -0.1517
10173W        W27020   2.890   7.999  11.440  0.5618  0.2506 -0.1858
10174W        W27021  11.308   5.869   2.760  0.2821  0.0425  0.1711
10175W        W27022  12.369  15.925  14.693 -0.0738 -0.1414 -0.1357
10176W        W27023   1.714   8.157   4.566 -0.0351  0.4009 -0.1155
10177W        W27024  10.761   7.019  12.123 -0.1242 -0.2198  0.0301
10178W        W27025   5.131   7.012   3.853  0.1062 -0.1203 -0.4253
10179W        W27026   2.843   0.395  13.431  0.0457 -0.0842 -0.0751
10180W        W27027  17.482   9.026   2.088 -0.2603  0.3005 -0.1872
10181W        W27028  10.666   6.753  12.554  0.1080 -0.2196  0.0125
10182W        W27029   5.586  15.432  10.126  0.1547 -0.1460  0.1440
10183W        W27030  14.954  13.051   4.020 -0.0272  0.0909 -0.5492
10184W        W27031  13.753   6.100  13.478 -0.0973 -0.2120  0.2351
10185W        W27032   1.228   8.456   1.449  0.0917 -0.0360  0.2367
10186W        W27033   7.399   0.717   5.109  0.4765 -0.1200 -0.0081
10187W        W27034  12.688  11.941   3.723  0.0173  0.0567 -0.2255
10188W        W27035  15.638  12.930   2.383  0.0074 -0.1195  0.2673
10189W        W27036   7.173   3.466  12.199  0.0677 -0.2498  0.3020
10190W        W27037   5.105   2.380   2.901 -0.2354  0.0073  0.1952
10191W        W27038   7.250   5.744   2.115 -0.0481  0.1905 -0.0988
10192W        W27039   3.710   7.135   1.232  0.0861  0.1739 -0.0560
10193W        W27040  16.167  15.423  12.112  0.3219  0.1592  0.1146
10194W        W27041  10.463  12.399   1.617 -0.0516  0.0665 -0.0292
10195W        W27042   9.198  12.947   0.590 -0.1107  0.1555 -0.1357
10196W        W27043  16.615  10.285   0.734  0.1543 -0.0919  0.4949
10197W        W27044   0.325   4.970   3.077 -0.2211  0.1816  0.0282
10198W        W27045   7.121   6.720  10.886 -0.3529  0.0144  0.0183
10199W        W27046   9.548  12.714   2.865  0.0213 -0.1325  0.0527
10200W        W27047  14.482   4.448  11.998 -0.3758 -0.0795 -0.1562
10201W        W27048   5.831   9.622  10.696 -0.3119  0.2742 -0.1701
10202W        W27049  12.948  15.891   1.526  0.1487 -0.0079  0.1938
10203W        W27050   0.607   7.322   1.156 -0.1713  0.0536 -0.2858
10204W        W27051  14.723   5.032  12.989 -0.0614 -0.1057  0.2431
10205W        W27052  18.568  13.085   4.279 -0.1826  0.3222 -0.2550
10206W        W27053   8.703   4.474  11.143 -0.2794 -0.2993 -0.3527
10207W        W27054   8.996  18.921   3.103  0.1408  0.0053  0.3319
10208W        W27055  11.654  10.055  11.198 -0.1187  0.0169 -0.1444
10209W        W27056  17.467   9.194  13.485 -0.1271  0.2009 -0.2457
10210W        W27057   1.087  18.020   1.384  0.0347 -0.0514 -0.0571
10211W        W27058  13.227  14.037   0.658  0.2768  0.0616  0.1598
10212W        W27059   8.700  16.354  11.541 -0.2897  0.3307 -0.0163
10213W        W27060   0.944   7.727   0.284 -0.1199 -0.1648 -0.2183
10214W        W27061   4.634  11.159  13.834 -0.1687 -0.1175  0.0507
10215W        W27062   3.846  15.035   0.109  0.2036 -0.2507 -0.0620
10216W        W27063  17.884  17.489  11.178  0.3444 -0.1711  0.1981
10217W        W27064  12.486   8.128  14.860 -0.6464  0.0108 -0.0451
10218W        W27065   4.442   2.391  14.369  0.2660 -0.1643 -0.0872
10219W        W27066  17.715  17.696  11.825 -0.2019 -0.2711  0.1563
10220W        W27067   2.691   9.163  12.465 -0.0483 -0.0226 -0.2356
10221W        W27068  10.357   7.164  13.029  0.4617 -0.0989 -0.1304
10222W        W27069  14.729  10.763   3.743 -0.0528 -0.6141 -0.4322
10223W        W27070  10.877   0.576   3.796  0.2016  0.1528  0.4145
10224W        W27071   8.232   9.519  10.375  0.2265 -0.0070 -0.0320
10225W        W27072  10.692  17.251   3.676 -0.1945 -0.0247 -0.0194
10226W        W27073   2.605  14.323  14.825  0.0919 -0.1135 -0.2577
10227W        W27074   1.570  16.305   0.874 -0.1153  0.0683  0.0099
10228W        W27075   1.622  10.627  13.192  0.0317 -0.1968  0.3490
10229W        W27076  19.250   8.298   0.635  0.1557 -0.1281  0.4944
10230W        W27077   9.549  11.390   1.710 -0.2195 -0.0147 -0.2510
10231W        W27078  14.550   8.348  14.060  0.2253  0.0127  0.0530
10232W        W27079  12.692  18.908  11.639  0.1194  0.0497 -0.0034
10233W        W27080  12.942  13.713   1.802  0.1445 -0.1305 -0.1863
10234W        W27081   9.093   3.300  12.812 -0.1341 -0.2258 -0.1204
10235W        W27082   0.622  16.788  10.667  0.0602  0.0760  0.3330
10236W        W27083   8.877   0.258   3.847  0.0606  0.0127 -0.2934
10237W        W27084  11.023  10.307  12.611 -0.3274  0.0628 -0.0376
10238W        W27085   4.359  11.781   0.547 -0.3977  0.1200 -0.1767
10239W        W27086   6.563  17.931   2.768  0.2238  0.1767  0.3449
10240W        W27087   2.398   4.453  13.869 -0.0414  0.0160  0.5221
10241W        W27088  17.685  18.564   2.674 -0.4276  0.5613 -0.2053
10242W        W27089  17.531   6.080   0.945  0.1663 -0.4088  0.2189
10243W        W27090  19.045   1.190  14.309  0.1447 -0.1725  0.0299
10244W        W27091   5.740   7.759  12.425  0.1298  0.3919  0.2402
10245W        W27092   5.383  12.880   2.115  0.0946 -0.2123  0.0906
10246W        W27093   9.948  16.312  11.959  0.2268  0.1322  0.1452
10247W        W27094   4.029   0.597   1.504  0.0721 -0.2899 -0.0692
10248W        W27095  17.344   4.952   1.801  0.3205  0.0473 -0.0781
10249W        W27096   9.354  12.860  10.017 -0.1780  0.3347 -0.3614
10250W        W27097  16.847  12.354   4.574  0.1456  0.2941 -0.1831
10251W        W27098  14.928   7.295   1.945 -0.1491 -0.0413 -0.0946
10252W        W27099  11.004  11.001   3.370  0.0642 -0.0166 -0.1042
10253W        W27100  14.117   4.762   1.785  0.2020  0.4298  0.1209
10254W        W27101   6.167  13.218  14.328  0.1593  0.0950 -0.0123
10255W        W27102   6.963  15.261  11.793 -0.0208  0.0899 -0.0528
10256W        W27103  17.631  18.396   0.288  0.1383  0.1122  0.1249
10257W        W27104   9.177   5.696  14.035 -0.0893 -0.0753  0.1222
10258W        W27105   0.103  13.389  11.492 -0.1306 -0.2164  0.2272
10259W        W27106   3.434   0.449  13.101 -0.0958  0.2775 -0.1592
10260W        W27107  11.785  13.553   9.217  0.0860  0.0527  0.0428
10261W        W27108   8.075  11.417   2.342  0.1015 -0.2060  0.2155
10262W        W27109  16.918   4.174   4.945 -0.0508 -0.0059  0.3049
10263W        W27110  13.340  13.365  11.543 -0.1262  0.0764  0.1153
10264W        W27111  14.485  15.097  14.655 -0.2726 -0.4748  0.3292
10265W        W27112   2.531   5.353   0.174 -0.0686 -0.1350  0.0907
10266W        W27113  12.720  10.848   1.998  0.1013  0.0258  0.1464
10267W        W27114   3.667   0.573   1.857 -0.1716 -0.0915 -0.1792
10268W        W27115   6.127   2.188   5.053 -0.1809 -0.4150  0.3448
10269W        W27116   7.289  14.154  12.965  0.4036 -0.3527 -0.0976
10270W        W27117   4.893   6.432  14.058 -0.1436 -0.1246 -0.0219
10271W        W27118  12.076  13.611  13.528 -0.3744 -0.0332 -0.2639
10272W        W27119  10.334   9.388   1.774 -0.0574  0.2475  0.0222
10273W        W27120  12.379   6.794   1.854  0.2215  0.1326 -0.1234
10274W        W27121   2.775   3.239  11.128 -0.0193  0.1189 -0.0834
10275W        W27122   6.245   1.624  14.093  0.0903  0.1035  0.0193
10276W        W27123   7.737   9.589  14.658 -0.0351 -0.0624  0.2050
10277W        W27124   3.844  12.623  11.630 -0.1111 -0.4695 -0.0499
10278W        W27125  10.222   2.500  14.107 -0.0449  0.0771 -0.3027
10279W        W27126   4.698  12.327   0.830  0.1632  0.0892 -0.0235
10280W        W27127   4.675   8.700  13.273  0.2292 -0.3856  0.0216
10281W        W27128  15.895  16.924  11.839  0.0059 -0.0197 -0.1363
10282W        W27129  17.704  11.689   3.680 -0.1881  0.1090  0.2527
10283W        W27130   1.539   5.842  14.868 -0.3746 -0.0278 -0.0229
10284W        W27131  18.391  11.119   3.344 -0.2754 -0.1318  0.0119
10285W        W27132  11.253   6.618   4.964  0.3945  0.3791 -0.0629
10286W        W27133   4.610  12.819  14.872  0.0640 -0.2568  0.3917
10287W        W27134  15.136   0.348  13.348  0.0914  0.3550  0.0750
10288W        W27135  10.390   2.983   0.435 -0.1505 -0.1023  0.1455
10289W        W27136   6.551   2.325  14.675  0.1191 -0.1221  0.2001
10290W        W27137  17.863  12.711  13.583 -0.4262  0.1270 -0.0245
10291W        W27138  16.059  17.340   5.846 -0.2482  0.1334  0.1082
10292W        W27139   0.855   2.535   3.218 -0.0106 -0.3626  0.1520
10293W        W27140   9.697  10.184   4.516  0.0946 -0.0446 -0.0426
10294W        W27141   5.277   3.533   5.820 -0.3104 -0.0090  0.0829
10295W        W27142  11.315  13.321   3.407  0.1560 -0.1013 -0.1484
10296W        W27143   8.694  11.526   3.234  0.0386  0.1444 -0.2327
10297W        W27144  18.926  11.817   5.034 -0.0819 -0.4201 -0.2534
10298W        W27145   6.110  18.064   1.435 -0.1851  0.1801 -0.0350
10299W        W27146  11.342  10.837   1.514 -0.4255 -0.2430 -0.0846
10300W        W27147  17.304   4.450   1.932  0.1496  0.1041  0.2253
10301W        W27148  15.872   6.510   4.747  0.0578  0.0910 -0.3477
10302W        W27149  11.257  18.177   5.112  0.1616 -0.2172  0.4105
10303W        W27150  14.282   7.118  14.382  0.2608  0.0025  0.0661
10304W        W27151  12.994  17.153   3.567 -0.1444  0.0065 -0.0753
10305W        W27152  19.208  18.757  11.255 -0.0661 -0.2243  0.0428
10306W        W27153  16.921   2.875   1.018  0.1679 -0.1977  0.1408
10307W        W27154   5.131  10.606  10.642 -0.1369 -0.1466 -0.2604
10308W        W27155   6.024  11.257  12.001  0.0104  0.0070  0.1144
10309W        W27156  18.477  13.079   3.534 -0.0827 -0.4327 -0.0219
10310W        W27157  12.778  12.726  12.966  0.1904  0.0678  0.0058
10311W        W27158   0.391  13.298   0.928 -0.1147 -0.1599  0.0108
10312W        W27159   2.608   5.711  14.414 -0.1437 -0.2140 -0.0734
10313W        W27160   5.655  12.840   5.374 -0.0829  0.1611 -0.1289
10314W        W27161   0.299  12.356  10.616 -0.0474  0.1693 -0.0404
10315W        W27162   4.296   0.697  10.973 -0.1199  0.4311 -0.2687
10316W        W27163   5.288  18.951  10.371  0.0452 -0.1673 -0.2722
10317W        W27164   5.507  16.087   4.609  0.0596  0.0584  0.0902
10318W        W27165  13.315  14.098  12.599 -0.4388  0.0294  0.1136
10319W        W27166   1.177   7.422   2.826 -0.1459  0.1118  0.1987
10320W        W27167  18.026  12.771   3.493 -0.2779 -0.1350  0.0196
10321W        W27168  18.105  18.192   0.301 -0.1906  0.0379  0.1451
10322W        W27169  14.302  10.233  11.911 -0.0323  0.2051 -0.2095
10323W        W27170  12.037  13.588   9.670 -0.2892  0.0239  0.0818
10324W        W27171  16.134   5.292   5.405  0.0170 -0.0177  0.1608
10325W        W27172  17.611  16.202  12.040 -0.3840  0.0583  0.5525
10326W        W27173   7.592  18.211  12.340 -0.0433  0.1701  0.1690
10327W        W27174  12.369   3.515   4.882 -0.3522  0.3073 -0.0364
10328W        W27175  15.836  18.341  10.383 -0.0739  0.0220 -0.1463
10329W        W27176   2.351   6.460   0.035 -0.0323 -0.2929  0.0893
10330W        W27177  16.262  12.811   0.798 -0.3529  0.0491 -0.1657
10331W        W27178   7.071   3.807  11.885  0.0014  0.0828 -0.0253
10332W        W27179   7.713  15.466   1.510  0.1039 -0.0602 -0.3700
10333W        W27180  15.503  12.938  14.020  0.2107 -0.2887  0.1327
10334W        W27181  17.358  10.347   1.412 -0.2013  0.0420 -0.2143
10335W        W27182  13.805  18.391   0.964 -0.1771 -0.1412  0.2442
10336W        W27183   3.878   5.757   2.932 -0.0719 -0.1353  0.1032
10337W        W27184   9.313   4.645   0.188 -0.0251 -0.2328 -0.1962
10338W        W27185   1.848   1.222   0.017  0.2831 -0.0815 -0.0863
10339W        W27186   0.765  12.806  13.169 -0.2295 -0.0229 -0.0305
10340W        W27187  18.511  11.469  14.268 -0.1264  0.3420  0.2696
10341W        W27188   3.946  13.893   1.344 -0.1659 -0.0479 -0.0876
10342W        W27189  16.032   3.646  11.477 -0.1900 -0.2673 -0.4449
10343W        W27190   8.375   4.012   2.634  0.0696 -0.0129  0.1382
10344W        W27191   9.824   1.606   2.263  0.2242  0.2150 -0.2544
10345W        W27192  11.416   2.598   4.638 -0.3697  0.0461  0.3586
10346W        W27193  14.311   2.465  13.818  0.1426 -0.3952 -0.0252
10347W        W27194  11.587   6.429   4.688  0.1380 -0.2831 -0.0316
10348W        W27195   5.544  10.433  12.165 -0.0350 -0.1810  0.1586
10349W        W27196  13.639  16.552   5.540  0.2081  0.1078  0.0077
10350W        W27197  11.333   6.991   5.366 -0.0150 -0.0547  0.2543
10351W        W27198  14.777   2.509   4.989 -0.1194 -0.0254 -0.2691
10352W        W27199   3.376   2.470   0.879  0.0575  0.2638  0.0203
10353W        W27200  12.605   7.350   1.311  0.0844 -0.3454  0.4482
10354W        W27201   9.589  18.766   1.189  0.1679  0.1064  0.0131
10355W        W27202   9.230   9.522   3.619  0.0406 -0.0537 -0.0475
10356W        W27203  14.124  15.624  13.598 -0.3310 -0.2885 -0.2130
10357W        W27204  10.232   9.208   2.218 -0.1719  0.0030 -0.1551
10358W        W27205  12.211   2.880   1.708 -0.1060  0.0953  0.0736
10359W        W27206  12.739   4.790  11.009  0.1540  0.0823 -0.1404
10360W        W27207   7.517  10.220   3.346 -0.1239 -0.1055  0.0428
10361W        W27208  16.578   4.486  10.713 -0.1361 -0.1053  0.3647
10362W        W27209   4.030   0.891  12.638 -0.1830  0.0070  0.1397
10363W        W27210   3.792   5.914  12.279 -0.1144  0.1795 -0.1926
10364W        W27211   6.879   7.629   1.115  0.1859 -0.0508 -0.0131
10365W        W27212  19.236   1.636  12.110  0.0342 -0.0651  0.0041
10366W        W27213   7.480  10.301   3.814 -0.1141 -0.1056 -0.0975
10367W        W27214  13.700   7.147   1.201  0.5283 -0.2986 -0.0545
10368W        W27215   9.113   1.793   4.573  0.1231  0.1055 -0.1486
10369W        W27216  17.477  14.655   1.869  0.1716 -0.0570  0.0510
10370W        W27217   5.508   6.866  13.527  0.0361 -0.1426  0.0184
10371W        W27218  12.900   4.881   3.574  0.1570 -0.0081 -0.2477
10372W        W27219   2.049   6.855  11.177 -0.2020  0.3496 -0.1166
10373W        W27220  13.192  10.028   2.415 -0.0784  0.0186 -0.3082
10374W        W27221   9.791  14.873  12.039 -0.0841  0.3643  0.1239
10375W        W27222  14.040  17.782  12.849 -0.1380 -0.0911 -0.2151
10376W        W27223  14.927  17.485   3.960  0.1054 -0.1162  0.1136
10377W        W27224  11.593   6.251   2.508 -0.1238 -0.3682 -0.2255
10378W        W27225   8.013   2.254   4.324 -0.0493  0.2318  0.0934
10379W        W27226   1.042  10.091   0.899 -0.2561 -0.0262 -0.2697
10380W        W27227  18.412  17.425   4.542  0.1215 -0.1276 -0.0151
10381W        W27228   5.249   4.261  10.764 -0.2196  0.1227  0.2443
10382W        W27229  12.470  15.311  11.809  0.2455 -0.1836 -0.0736
10383W        W27230   2.726  12.344  13.842 -0.1619  0.0471 -0.1705
10384W        W27231  13.276   4.835  13.468 -0.0765  0.3296  0.0384
10385W        W27232   6.330  12.164   2.403 -0.0172 -0.0343 -0.4268
10386W        W27233   2.015   5.988   4.435 -0.0433 -0.3685 -0.0353
10387W        W27234  17.857   2.934  11.973 -0.1662  0.1676 -0.2309
10388W        W27235  18.635  15.874  11.713  0.0414  0.1523  0.0872
10389W        W27236  13.449  12.709  12.803 -0.0163  0.0056 -0.2780
10390W        W27237   5.011  15.711  11.043 -0.0560 -0.2142  0.0506
10391W        W27238   7.613  12.714  12.466 -0.2027 -0.1132 -0.2520
10392W        W27239   5.952  11.853   4.181 -0.1384  0.1709 -0.1134
10393W        W27240   4.842   2.101   4.248 -0.0490  0.0508  0.1203
10394W        W27241   4.170  16.463  12.594 -0.0622 -0.0271 -0.1356
10395W        W27242   9.787  12.352   2.636 -0.1094  0.2871  0.0900
10396W        W27243   6.718  13.259  14.341  0.0474  0.2693  0.3521
10397W        W27244  15.609  11.324   4.406  0.4679  0.1731 -0.0876
10398W        W27245  19.169  15.116   3.431  0.2884 -0.0154  0.0554
10399W        W27246   9.936   3.835   2.205  0.1636  0.0858  0.1730
10400W        W27247   9.611  16.514   0.141 -0.3710 -0.1189  0.1034
10401W        W27248  17.812  13.498  11.793 -0.0734 -0.1421  0.3199
10402W        W27249  11.668   1.245  13.876 -0.1946 -0.0002  0.1781
10403W        W27250   8.210   2.051  11.507  0.1702 -0.0951 -0.2363
10404W        W27251   7.287   9.390  10.235  0.3075  0.0446 -0.1674
10405W        W27252   4.071  15.095   9.439  0.1906  0.0284  0.0534
10406W        W27253   8.042   4.956  12.148 -0.1356 -0.2515 -0.1431
10407W        W27254   9.316   9.101   2.601  0.0435  0.0478 -0.1232
10408W        W27255  11.734  19.186   5.013  0.1828  0.0966 -0.0737
10409W        W27256   0.173  12.100   1.026 -0.1620  0.0703  0.1336
10410W        W27257  18.824  12.994  11.583  0.2726  0.2149  0.0057
10411W        W27258  16.797   9.695   0.620  0.1266  0.1206 -0.0879
10412W        W27259  17.242   1.636  12.365  0.0048  0.2349 -0.0292
10413W        W27260   0.828   2.542  13.833  0.0423 -0.1072  0.0955
10414W        W27261   5.740   5.499   2.982 -0.0306 -0.3922  0.1770
10415W        W27262   2.388   6.022  14.056  0.0925 -0.0314  0.2061
10416W        W27263   0.961  13.203   2.181 -0.2385 -0.3697 -0.3540
10417W        W27264  15.291   2.535  12.044  0.1983 -0.2408  0.0188
10418W        W27265  12.341   0.267   4.561 -0.2376 -0.1236 -0.1350
10419W        W27266  15.607  13.158  13.389 -0.0773 -0.3018  0.1009
10420W        W27267  11.701   2.373   2.641 -0.1372 -0.0722 -0.1344
10421W        W27268  14.204  18.634   1.368 -0.1337 -0.0693  0.0209
10422W        W27269   4.434   7.757   2.699 -0.3732 -0.0359 -0.0495
10423W        W27270   4.334   8.188  13.308  0.1251 -0.2917 -0.2981
10424W        W27271   3.255  16.252   1.339 -0.1801 -0.2045 -0.3013
10425W        W27272   8.113  13.264  12.033  0.0826  0.0579  0.0734
10426W        W27273  11.324   1.855  13.605  0.4411 -0.3919  0.0498
10427W        W27274   8.416  14.585  13.347  0.0212 -0.2688  0.1943
10428W        W27275  11.354  14.843   2.063 -0.1114 -0.3204  0.1746
10429W        W27276  14.598   2.394   0.694  0.2217 -0.1127  0.3638
10430W        W27277   9.565   9.397  12.783 -0.1892  0.2517  0.1695
10431W        W27278   1.085   7.645  10.560 -0.0181 -0.1311 -0.1812
10432W        W27279  14.410  14.298   4.714 -0.0946 -0.2923  0.0933
10433W        W27280  16.488  18.453   5.098  0.2152  0.0726  0.0900
10434W        W27281   3.239  13.645  14.049 -0.1608 -0.0072  0.0552
10435W        W27282  10.512  14.827   3.520 -0.1637 -0.3084 -0.0281
10436W        W27283   3.504   3.326  14.426 -0.2253 -0.2374  0.2961
10437W        W27284   4.910  11.155  13.464 -0.2187 -0.0969  0.0772
10438W        W27285  16.267  17.094   2.259  0.0215  0.1073 -0.0869
10439W        W27286  17.837   9.154   0.201 -0.1097  0.2648 -0.0609
10440W        W27287  12.074   7.944  10.710  0.0396 -0.1122 -0.1639
10441W        W27288   3.219   9.613  11.919 -0.1143  0.0734 -0.0255
10442W        W27289  15.382  17.958   0.134 -0.1264 -0.0670  0.0006
10443W        W27290  15.497   1.598   4.683  0.0622  0.1662  0.1509
10444W        W27291  10.263  13.223   3.541 -0.2293 -0.1118 -0.1516
10445W        W27292  18.281  16.062   3.530  0.0624 -0.4719  0.2210
10446W        W27293   8.028   7.881  14.009 -0.1580  0.2818 -0.0842
10447W        W27294  10.596  14.480  12.572 -0.0223  0.3053  0.1113
10448W        W27295   7.942  13.218  14.454  0.0386  0.2834 -0.0164
10449W        W27296  17.115   7.138  10.935  0.2835 -0.0511 -0.0463
10450W        W27297   5.065   6.719   4.254  0.1779 -0.3504 -0.2156
10451W        W27298  17.971   7.655  10.756  0.0053 -0.1062 -0.3054
10452W        W27299  12.661   8.638   1.825  0.1287 -0.0381 -0.0175
10453W        W27300  13.099  13.970   1.290  0.2649  0.2075 -0.1650
10454W        W27301  13.958  17.384   3.694  0.2289 -0.3913 -0.0777
10455W        W27302   3.823  16.171   3.984 -0.1146  0.2959 -0.3117
10456W        W27303  10.126  10.264   1.635 -0.0754  0.1584  0.1894
10457W        W27304   6.168   9.325   1.249 -0.4008  0.2126 -0.3093
10458W        W27305   5.293   2.651   0.379 -0.1883 -0.0894  0.0451
10459W        W27306   3.626   2.973   3.989  0.2737  0.0183  0.0281
10460W        W27307  17.767  14.557   3.652  0.2398  0.2262  0.4475
10461W        W27308   9.794   4.386  11.057  0.0226 -0.0490  0.0098
10462W        W27309   4.640   7.600  11.491  0.0380  0.0456  0.1183
10463W        W27310  12.189   9.584   3.013 -0.3110  0.0894 -0.1614
10464W        W27311   3.620   1.698  13.691 -0.2336  0.3316 -0.0559
10465W        W27312   5.937  18.232   0.021  0.0684 -0.1305 -0.2101
10466W        W27313   5.959  17.937  11.895  0.0885  0.1137  0.2326
10467W        W27314   3.188  14.612   2.154 -0.2527  0.2843  0.2236
10468W        W27315   1.237  12.242   3.951  0.1230 -0.1182 -0.2769
10469W        W27316  18.497   6.886  12.001 -0.1088  0.1474  0.1025
10470W        W27317  14.955  15.728  13.557 -0.0247 -0.1154  0.3540
10471W        W27318   7.747  17.480  11.021 -0.0351  0.2221  0.0177
10472W        W27319   4.600   6.641  14.426 -0.0845 -0.1058  0.2467
10473W        W27320   1.832   8.476  11.721 -0.1545 -0.0256 -0.3149
10474W        W27321  10.156   5.246  13.710 -0.1482  0.4717 -0.3072
10475W        W27322  11.501   0.656  14.560 -0.2211  0.2761 -0.0919
10476W        W27323   8.758  15.207   4.744  0.0763 -0.0959 -0.0077
10477W        W27324   3.172   4.519  11.069 -0.0389 -0.0521  0.3477
10478W        W27325   0.461   7.886   2.605  0.1350  0.3692  0.0749
10479W        W27326   5.029   9.070  13.230  0.0621 -0.1327  0.1199
10480W        W27327   6.782  17.379  11.831  0.0573 -0.0567  0.1689
10481W        W27328   2.248   6.501   0.570  0.1282  0.0943 -0.2916
10482W        W27329   8.137   0.196  12.531  0.1604  0.0254 -0.0460
10483W        W27330   5.335   6.122   4.198 -0.2976 -0.0255 -0.4551
10484W        W27331   7.796   5.100  13.713 -0.0565 -0.1233 -0.2068
10485W        W27332  15.056  16.148  14.917 -0.0262  0.2264 -0.1355
10486W        W27333  13.703  18.752   0.032 -0.3169 -0.1532 -0.4499
10487W        W27334   7.373  10.587  13.770  0.1615  0.1198 -0.0282
10488W        W27335   5.793  15.496  12.249  0.0078 -0.1030 -0.2757
10489W        W27336  14.703   0.308   0.476  0.0582  0.1955  0.0240
10490W        W27337  18.015   5.794  13.011  0.0785  0.1222 -0.0735
10491W        W27338  12.498  17.921   1.063  0.0610  0.3332  0.0412
10492W        W27339  11.601  15.049   1.581  0.2396 -0.3172 -0.2026
10493W        W27340   7.384   7.140  11.129  0.0401 -0.1061  0.1788
10494W        W27341  10.213   8.844   0.470 -0.1013  0.1266  0.0082
10495W        W27342   0.942   5.644  10.315 -0.2388 -0.2467 -0.2648
10496W        W27343  10.734   1.236  14.521  0.1361  0.1437  0.0898
10497W        W27344   3.889   0.128   1.990  0.1680 -0.0004  0.3004
10498W        W27345  14.038   0.261   5.411 -0.1662  0.0307  0.0576
10499W        W27346  19.104  13.083   4.248 -0.1936  0.2288 -0.0742
10500W        W27347   2.313   7.536  13.377 -0.0481 -0.0769 -0.0456
10501W        W27348  16.816  15.672  14.345  0.4186  0.1118 -0.1225
10502W        W27349  11.898  18.594   2.090  0.0656 -0.0294  0.0944
10503W        W27350   1.484  16.765   2.243  0.2174 -0.0141  0.0848
10504W        W27351  18.778   8.455   0.682 -0.2039  0.1100  0.1768
10505W        W27352  15.663   6.841  12.897 -0.3221  0.3426  0.1905
10506W        W27353   3.153   0.159  11.649 -0.0243  0.0144 -0.0767
10507W        W27354   2.005  13.583  14.846  0.3346 -0.3532  0.2307
10508W        W27355   9.044  11.635   0.286  0.0005  0.2787 -0.2472
10509W        W27356   3.134  18.563  14.863 -0.0137  0.1031  0.0761
10510W        W27357   1.165   0.459  11.006  0.1960 -0.0132 -0.1579
10511W        W27358   2.055   3.967   0.043  0.2859  0.0526 -0.0196
10512W        W27359   2.394  18.281   3.581 -0.1203  0.2937 -0.0200
10513W        W27360   8.723   0.932  14.079  0.0665  0.1628  0.1786
10514W        W27361   6.082  13.012   2.599  0.0977  0.1168  0.0582
10515W        W27362  12.371   6.579  13.883  0.2608 -0.2853  0.0524
10516W        W27363  17.064   8.756   2.043  0.0875  0.2278 -0.2321
10517W        W27364  17.742   1.769  12.544 -0.0445  0.0896 -0.0647
10518W        W27365   9.282  12.491  11.597  0.1730 -0.1212 -0.1140
10519W        W27366  12.541   2.277  10.913  0.0008 -0.0021  0.1417
10520W        W27367   3.236  12.586  12.186  0.2904  0.2940 -0.0718
10521W        W27368   8.627  14.226   1.359  0.0887  0.3263 -0.0117
10522W        W27369  18.753   3.504   9.544  0.0310  0.1452  0.0071
10523W        W27370  17.342   8.666   4.216  0.0842 -0.0165 -0.0251
10524W        W27371  12.789  13.062   4.366  0.0859 -0.0930  0.1172
10525W        W27372   0.509   2.361   2.819  0.1056  0.1652 -0.0664
10526W        W27373   0.512  15.877   2.668 -0.0305  0.3284  0.3443
10527W        W27374   9.020  17.939   2.200 -0.4810  0.0954  0.1415
10528W        W27375  15.195   8.137  11.084 -0.2156  0.1285 -0.1449
10529W        W27376   9.915   2.498   1.429  0.0991 -0.4067  0.0410
10530W        W27377  15.516  12.963   4.784 -0.0526  0.1454  0.3008
10531W        W27378  15.683  16.677  10.973  0.2057 -0.0953 -0.1102
10532W        W27379  14.761   5.466  10.647 -0.0922 -0.1546 -0.1348
10533W        W27380   5.865   8.232  11.386  0.0846  0.2534  0.1058
10534W        W27381   4.463  19.076  11.480 -0.1006  0.0082  0.0788
10535W        W27382   2.409  13.983   0.629 -0.0951 -0.0983  0.0322
10536W        W27383  14.014   2.174   2.172 -0.0301 -0.0479 -0.2174
10537W        W27384   9.470  13.356  11.959 -0.1549  0.3183  0.2453
10538W        W27385  11.820  10.132   2.547 -0.2579 -0.0333  0.0243
10539W        W27386  17.902   1.874   0.858 -0.1196  0.0684 -0.1152
10540W        W27387   2.771   4.387  12.065 -0.0310 -0.0420 -0.1222
10541W        W27388   8.362  10.984   4.588  0.1007 -0.1448  0.0023
10542W        W27389  10.856  13.674  12.291 -0.0818 -0.3185 -0.2760
10543W        W27390   4.363   4.803   2.407 -0.0647  0.0837  0.2294
10544W        W27391  15.000  18.739   3.436  0.0062  0.0213 -0.0248
10545W        W27392   0.202   7.853  12.404  0.1043  0.0918  0.1085
10546W        W27393   9.424   0.223  11.533  0.2914 -0.0057  0.1605
10547W        W27394   8.596   9.566  13.034  0.3003 -0.2495  0.0508
10548W        W27395   4.476   8.592   1.932  0.0637  0.1925 -0.0967
10549W        W27396  11.489   4.788   0.330 -0.1542 -0.0490 -0.0635
10550W        W27397  14.709  17.207   2.200 -0.0551 -0.2591  0.3506
10551W        W27398  12.476  14.123   1.809 -0.3965 -0.2014  0.4488
10552W        W27399  17.201   5.798  13.467 -0.0040  0.0944 -0.0266
10553W        W27400   3.034  10.489   2.723  0.0291 -0.1890 -0.1804
10554W        W27401  14.765  12.753   0.357  0.1035 -0.4132 -0.0596
10555W        W27402   0.057   7.024   0.608  0.2262 -0.0977  0.1456
10556W        W27403  17.420  17.237   3.063  0.0797 -0.1930  0.0721
10557W        W27404   5.313  18.911   2.207 -0.0635  0.2919  0.2814
10558W        W27405   3.998   2.885   1.955  0.1519  0.4313  0.0906
10559W        W27406   3.154   6.755  11.117 -0.0516 -0.2626 -0.3095
10560W        W27407  14.924   1.471  10.860  0.0820  0.0962  0.0146
10561W        W27408  18.119  18.905   0.972 -0.1432  0.0942  0.0625
10562W        W27409   8.280   2.454  10.205  0.0930 -0.2125 -0.0706
10563W        W27410  18.839   0.651   1.786  0.1050 -0.2187 -0.1434
10564W        W27411   9.134  16.997  12.241  0.1917  0.0834 -0.0513
10565W        W27412  14.236   2.702   1.011  0.1589 -0.0130 -0.0450
10566W        W27413   6.721  13.839   0.101 -0.0196  0.0952 -0.2897
10567W        W27414   5.820  16.725  13.076  0.0145  0.0378 -0.1556
10568W        W27415  18.102   1.062   1.243 -0.0934  0.4192 -0.0560
10569W        W27416  11.988  15.805  13.396 -0.0208 -0.2959  0.2897
10570W        W27417  12.074   8.165   0.355 -0.2277  0.0748  0.0474
10571W        W27418  15.970   3.110   1.023  0.1071  0.2829  0.0035
10572W        W27419   5.978   3.491   3.596 -0.1164 -0.0833 -0.1301
10573W        W27420  10.024  18.823  14.268 -0.2573  0.0447  0.0120
10574W        W27421  15.407  11.476   0.493 -0.1072  0.0715  0.0517
10575W        W27422   6.407  18.518  12.038  0.1278 -0.2695 -0.1014
10576W        W27423   4.149  16.275  11.239  0.1806  0.1188 -0.2968
10577W        W27424  12.168   5.191   1.969  0.1509 -0.1469 -0.0431
10578W        W27425   0.035   8.941  10.227 -0.2041  0.0512  0.2964
10579W        W27426   3.764  10.578   2.042  0.0704 -0.1918  0.1270
10580W        W27427   4.812   8.155  14.572 -0.2172 -0.0070  0.1872
10581W        W27428  12.214  10.596   3.394 -0.0761  0.4090 -0.1667
10582W        W27429   3.159  12.301   9.782 -0.2370 -0.1562 -0.3574
10583W        W27430   2.095   2.592   4.853  0.0041 -0.1615 -0.1904
10584W        W27431  14.897   7.828  10.857  0.1477 -0.0909 -0.4004
10585W        W27432  10.873  16.920  14.043  0.0402 -0.1476  0.2109
10586W        W27433   9.299   8.952   1.557  0.0996 -0.1836  0.1656
10587W        W27434  15.508  14.389   4.690 -0.2954  0.0208 -0.1738
10588W        W27435   6.409  14.483  11.730  0.0403 -0.2213  0.3136
10589W        W27436  15.179  14.354  11.532 -0.1148  0.1014  0.7665
10590W        W27437  16.986   6.418  11.346 -0.0182 -0.2517  0.0236
10591W        W27438   7.330   3.906  14.996 -0.0040 -0.1688  0.0839
10592W        W27439   1.262  16.769  14.586  0.2000  0.2787  0.0518
10593W        W27440  11.806  16.690  12.966 -0.0229 -0.2092  0.0005
10594W        W27441  16.206  16.527  10.637  0.0226 -0.3715  0.2066
10595W        W27442   7.875   9.136  13.709 -0.0454  0.0717  0.0518
10596W        W27443   1.792  17.109  12.309 -0.1759  0.3791 -0.1759
10597W        W27444  12.894  12.508   4.443  0.1655 -0.2390  0.1875
10598W        W27445  17.912   9.631   1.691  0.1565 -0.0303  0.0865
10599W        W27446   9.656  15.837   4.755 -0.0195  0.1312  0.0460
10600W        W27447  14.840   7.133  14.177 -0.3061  0.0789  0.1674
10601W        W27448  12.867   2.330   2.238  0.1373  0.1287  0.1201
10602W        W27449   8.323   2.477   0.784 -0.1588  0.1832 -0.2158
10603W        W27450   5.231  12.067   4.531 -0.2079  0.1107 -0.1672
10604W        W27451   4.328  11.843  13.222 -0.1384  0.2990 -0.4358
10605W        W27452  17.028  17.995  13.717 -0.0180  0.0208  0.2391
10606W        W27453   7.622   8.294   0.343  0.2261  0.2734  0.3677
10607W        W27454   2.273   6.962   0.170 -0.0385 -0.2489  0.4204
10608W        W27455  13.747   5.201  13.403 -0.4779 -0.1751 -0.1026
10609W        W27456   1.677   8.598   3.193 -0.1340  0.2856 -0.0934
10610W        W27457  15.029   5.955  10.387 -0.2524 -0.1269 -0.1825
10611W        W27458  10.345  14.918   3.000  0.2588 -0.1381 -0.3194
10612W        W27459  10.143  11.532   2.784  0.0485 -0.2047 -0.0517
10613W        W27460  13.938  10.232   1.011  0.0962  0.5736 -0.1744
10614W        W27461  18.897  13.991   0.675 -0.2564  0.1877  0.2388
10615W        W27462  10.444  13.116  13.012  0.2406 -0.2918  0.0664
10616W        W27463   9.471   4.971   0.723  0.1205 -0.1061  0.1448
10617W        W27464  18.521  14.415  12.639  0.2644  0.3716 -0.0049
10618W        W27465   6.059   2.860   4.167  0.2228  0.2448 -0.1457
10619W        W27466  18.516  15.376  11.606  0.3073 -0.1390  0.0906
10620W        W27467  12.992   2.543   1.352 -0.0514 -0.0252  0.2136
10621W        W27468   7.150  17.713  13.215 -0.1951  0.2791  0.1061
10622W        W27469  18.062  16.101   1.200 -0.0339 -0.3599 -0.1035
10623W        W27470   4.295   8.967  11.735  0.2596 -0.0679 -0.2645
10624W        W27471   5.780   0.316   4.675  0.2535 -0.0822 -0.0569
10625W        W27472   4.749   0.864  10.643  0.1820  0.0307 -0.0172
10626W        W27473  15.892   4.467  11.525 -0.1302 -0.1343 -0.0769
10627W        W27474  11.123  14.091  13.686 -0.2054  0.4107  0.4712
10628W        W27475  12.081   4.771   1.568 -0.1297 -0.4487 -0.1098
10629W        W27476   2.511  11.882  11.110  0.0956  0.0411 -0.2371
10630W        W27477  14.717  16.245   3.678 -0.1840  0.0661 -0.1250
10631W        W27478  12.962   5.471   3.826  0.3616 -0.1887  0.0102
10632W        W27479   1.610  13.252   2.928 -0.1023 -0.0002 -0.3080
10633W        W27480   4.042  11.493  11.071 -0.2092 -0.0785  0.0572
10634W        W27481   0.237   6.286  12.569 -0.0374 -0.0930 -0.2321
10635W        W27482  18.316   7.934  14.673  0.0866  0.3275  0.2310
10636W        W27483  10.260  11.976  14.500  0.0363  0.0223  0.0487
10637W        W27484  12.232   9.014  13.560 -0.2998 -0.0184  0.0805
10638W        W27485   4.845   3.799  10.232 -0.1183 -0.5101 -0.1360
10639W        W27486   3.781   9.308  13.632 -0.1091  0.2862  0.3331
10640W        W27487  14.342   8.841  12.743  0.3988  0.4352  0.2628
10641W        W27488  15.901   0.851  13.321 -0.0587  0.3087 -0.2234
10642W        W27489   2.165  14.769   3.059  0.0358  0.3107  0.1588
10643W        W27490   2.794   6.636  14.845  0.1731  0.0021 -0.2719
10644W        W27491  10.251  16.913   3.832  0.1415  0.0760 -0.1115
10645W        W27492   4.113   4.773  12.066 -0.0552 -0.2930  0.0913
10646W        W27493  10.385  14.003  14.915 -0.2467  0.0251 -0.0088
10647W        W27494   4.355   6.653  10.542  0.0502 -0.2251  0.0842
10648W        W27495  14.603  15.594   1.286  0.2326 -0.1988  0.0986
10649W        W27496   0.709  13.862  11.627  0.0135  0.2256 -0.2684
10650W        W27497  14.241   0.051  11.828 -0.0096 -0.1314 -0.0870
10651W        W27498   7.600  11.785  14.783  0.0243  0.0510  0.1008
10652W        W27499  18.509   1.533   1.639 -0.1068  0.0654  0.0529
10653W        W27500   3.339   8.519  13.714  0.1123 -0.2293 -0.4179
10654W        W27501   7.531  15.635   3.267 -0.1293  0.2559 -0.0584
10655W        W27502  18.791  17.990   5.797  0.2760  0.1342 -0.1813
10656W        W27503  16.075   9.542  14.947  0.0947 -0.2633 -0.0350
10657W        W27504   5.306   1.745  12.548  0.2923 -0.0789 -0.1114
10658W        W27505   8.259  18.619   2.817  0.1064  0.3524 -0.0317
10659W        W27506   4.456  12.641   9.825 -0.2026  0.2556 -0.0328
10660W        W27507  11.594   8.341   4.947  0.0502 -0.0878  0.0649
10661W        W27508  13.117  18.060   2.186 -0.2315 -0.0357 -0.1450
10662W        W27509   1.837   2.950   3.116 -0.0815 -0.0096 -0.3138
10663W        W27510  18.641   0.857   5.595  0.1760  0.0127 -0.2498
10664W        W27511   2.507  14.959   3.401  0.1478  0.0464 -0.0612
10665W        W27512   4.652   6.370   2.500  0.1560  0.1489 -0.4157
10666W        W27513   4.607  12.360   0.076  0.2377  0.1604  0.2203
10667W        W27514   1.811  17.534  14.540 -0.2030  0.2286  0.1713
10668W        W27515   2.197  13.074  14.870 -0.1298  0.0808 -0.1579
10669W        W27516   0.833  14.877  14.115  0.3843 -0.2048  0.0717
10670W        W27517  13.387   2.861  15.002 -0.2604  0.0069 -0.2574
10671W        W27518   3.531   2.486   0.009  0.4395 -0.0165  0.0051
10672W        W27519  13.353   4.835   4.849  0.0762  0.1937 -0.2069
10673W        W27520  17.018  13.893   0.424  0.0083 -0.1849  0.1722
10674W        W27521  18.720   3.810   3.464 -0.0469 -0.2899 -0.1794
10675W        W27522   5.536  12.429   2.272 -0.2832  0.2116 -0.0187
10676W        W27523  18.553   4.044  14.520  0.5009 -0.0880 -0.2055
10677W        W27524   6.217   9.792   2.306 -0.0249 -0.3392 -0.2112
10678W        W27525   7.962  10.171  12.685  0.3026 -0.2051  0.0531
10679W        W27526  15.089   6.935   0.614 -0.0498 -0.3792 -0.0198
10680W        W27527   0.171   5.303   3.387 -0.3234 -0.1167 -0.1674
10681W        W27528  16.400   3.146  14.411 -0.0723  0.1557 -0.1253
10682W        W27529  17.104  11.624   2.480  0.2537 -0.2859 -0.3758
10683W        W27530   9.937  14.591   0.173 -0.1055  0.2066 -0.2310
10684W        W27531  16.001   7.454   0.881 -0.1503 -0.2375 -0.1107
10685W        W27532  18.324   5.857   1.515  0.1221  0.3202  0.1277
10686W        W27533  13.291   1.748  14.407 -0.2655 -0.0758 -0.0821
10687W        W27534  13.677   4.611   1.986  0.0561 -0.0645 -0.1422
10688W        W27535  12.096   7.696   3.377  0.1786 -0.2257 -0.3296
10689W        W27536  14.924   7.901  12.730  0.2276 -0.2211 -0.4876
10690W        W27537   3.026  14.153  14.286 -0.0159  0.0976 -0.0304
10691W        W27538   7.275   3.487   1.882 -0.1305 -0.1482 -0.0171
10692W        W27539  13.994  13.634   1.265 -0.2063 -0.0980 -0.1098
10693W        W27540  14.850  10.098   0.492 -0.0417  0.1322  0.3696
10694W        W27541  12.720   1.729  12.405  0.1846 -0.1962 -0.1270
10695W        W27542   2.496   7.124  10.761  0.1515 -0.3437 -0.5659
10696W        W27543  19.214   8.618   3.766  0.0867  0.0408  0.1906
10697W        W27544   4.142   5.325  14.333  0.1146  0.0638  0.0080
10698W        W27545   8.844  11.520  12.999 -0.0322  0.2482 -0.3164
10699W        W27546   8.037  14.960   2.746  0.0995  0.0721 -0.0318
10700W        W27547   1.909   1.883   0.693  0.0106  0.3410 -0.1386
10701W        W27548  13.121   6.205   2.506 -0.1265 -0.0172  0.1969
10702W        W27549   3.509   6.121   5.140 -0.2047  0.1033  0.0868
10703W        W27550  14.764   7.695   2.256 -0.1517 -0.0572  0.0590
10704W        W27551  14.490   2.014  13.849 -0.1258  0.3717  0.3803
10705W        W27552  15.845   7.022   4.153  0.0952 -0.0519  0.3065
10706W        W27553   3.663   7.505  11.963 -0.1485  0.2087 -0.0080
10707W        W27554   0.654   9.383  13.962 -0.3930  0.3686  0.0217
10708W        W27555   8.207  19.165   0.443 -0.3349  0.2095  0.0976
10709W        W27556   2.302   4.989   2.322 -0.1100 -0.0082 -0.1066
10710W        W27557   0.332   3.347  13.332 -0.1737  0.0255  0.0613
10711W        W27558  11.210  18.745   3.164 -0.0370  0.3921  0.1506
10712W        W27559  11.050   5.804  12.517 -0.1574 -0.2774 -0.0198
10713W        W27560   4.136  15.221  10.257 -0.0347 -0.0435 -0.0129
10714W        W27561   6.926   2.534  12.691  0.0220  0.2940 -0.0689
10715W        W27562  16.719  17.065  14.291 -0.0182  0.1720 -0.1770
10716W        W27563  11.844   9.155   1.593 -0.1427  0.0742 -0.0136
10717W        W27564  11.195  16.066   3.505  0.1609  0.2107 -0.2967
10718W        W27565  14.442   6.946  10.386  0.0851  0.1119  0.3353
10719W        W27566  16.252  11.113  13.726 -0.2065 -0.0192  0.1631
10720W        W27567  15.020   4.574   4.276  0.2179 -0.2414  0.1197
10721W        W27568  14.200   2.330  10.493 -0.1241  0.4289 -0.2298
10722W        W27569   2.367  15.651   2.121 -0.0734  0.5047  0.0726
10723W        W27570  12.389   2.835   3.612  0.0476 -0.0308  0.1934
10724W        W27571  12.833   2.949   3.792 -0.3288 -0.1896  0.3104
10725W        W27572  12.929  15.538   2.610  0.1317 -0.3031 -0.0440
10726W        W27573  18.901   9.008   0.685  0.2951 -0.1597 -0.1045
10727W        W27574   1.139   7.509   1.206 -0.2069 -0.2002 -0.1814
10728W        W27575   3.620  14.096   0.824  0.3759 -0.2900 -0.0282
10729W        W27576   8.925   7.931   4.732 -0.0395  0.3398  0.4692
10730W        W27577  14.324   2.759   5.229 -0.1186 -0.1834 -0.0376
10731W        W27578   3.347   6.247  12.261 -0.0837  0.1909  0.0552
10732W        W27579  15.671  12.841   3.007 -0.3230 -0.1851  0.1646
10733W        W27580  13.504   9.989   3.801 -0.0458  0.1476 -0.0625
10734W        W27581   3.819   4.451  14.173  0.0389  0.0935  0.2902
10735W        W27582  10.529  18.090   2.762  0.1531  0.0799 -0.1780
10736W        W27583   2.412   3.566  10.482 -0.1147 -0.0533 -0.1510
10737W        W27584  17.430  17.104  12.488 -0.2432  0.2513 -0.1490
10738W        W27585   4.072  11.514   3.669  0.0020 -0.1205  0.1241
10739W        W27586  16.011   1.856  14.682  0.0540 -0.0375  0.1527
10740W        W27587   1.577   2.992   1.231 -0.0789 -0.2513 -0.2138
10741W        W27588  16.636   9.162  10.428 -0.1551  0.0454 -0.1085
10742W        W27589   2.188  18.792  12.312  0.1011 -0.0636  0.2778
10743W        W27590   4.094  14.175  12.363 -0.0149  0.2194 -0.0009
10744W        W27591   5.676   4.372  14.185  0.1799 -0.0534  0.3300
10745W        W27592   4.335  11.523  11.494  0.0397 -0.1387  0.0434
10746W        W27593  16.626  19.267   4.570 -0.0770  0.0746  0.2338
10747W        W27594  16.612   3.132  10.983  0.1842 -0.0833 -0.1116
10748W        W27595   0.363  10.079  14.559  0.1298 -0.0228 -0.0610
10749W        W27596  10.109  16.944   1.901 -0.2698 -0.2451  0.4490
10750W        W27597   6.627   7.320  13.667  0.2913  0.0704  0.1553
10751W        W27598  12.273   7.854   1.638  0.0311  0.2868  0.0921
10752W        W27599   4.125   6.955   4.273 -0.1641  0.0749  0.1125
10753W        W27600  11.193   4.037   3.461  0.0703  0.0770  0.2306
10754W        W27601   6.160   2.358  11.229 -0.4703 -0.3376  0.1689
10755W        W27602   0.457   8.628   2.977  0.2710 -0.0450 -0.4237
10756W        W27603  17.235   8.571   4.762  0.2468  0.2410 -0.0907
10757W        W27604   8.887   4.882   2.402  0.2376 -0.3377  0.2128
10758W        W27605  11.840   5.668  11.696  0.1617  0.0566  0.2321
10759W        W27606   6.855   8.296  11.547  0.0231 -0.0263 -0.2291
10760W        W27607   7.989   6.516  12.614 -0.0771  0.1518  0.2790
10761W        W27608  17.775  17.789  14.075  0.0450 -0.0780  0.0473
10762W        W27609  17.485   1.966  12.058  0.6293 -0.0777 -0.0123
10763W        W27610   7.110  13.064   2.811 -0.2307  0.0529 -0.0262
10764W        W27611   6.244   3.114   5.405  0.0905 -0.0576 -0.2188
10765W        W27612  12.348  18.673  13.077 -0.1467 -0.0637  0.1898
10766W        W27613  14.870  12.247   3.076 -0.2017  0.0480  0.1159
10767W        W27614   9.139  17.549  12.767  0.1616  0.2860  0.1613
10768W        W27615   9.919  13.853  11.863 -0.2074 -0.1622  0.0149
10769W        W27616   5.932   5.304  12.530 -0.0008  0.1386  0.0762
10770W        W27617  11.012  14.570  12.219  0.0318 -0.0232 -0.1226
10771W        W27618   5.351   3.729  13.049  0.2360  0.0736  0.1541
10772W        W27619   8.876  16.559  12.136 -0.1603  0.1481  0.3635
10773W        W27620   5.653   2.532   4.258  0.1445  0.4046 -0.1768
10774W        W27621   4.128   5.426   0.429  0.1059  0.3835 -0.0817
10775W        W27622  18.373   2.954  14.693  0.3067 -0.0322 -0.1933
10776W        W27623   4.027   4.068  10.933 -0.0907  0.2732  0.2720
10777W        W27624   2.304   7.875   3.996 -0.2047  0.1229 -0.3156
10778W        W27625   0.963   2.237  10.803 -0.2154 -0.1793 -0.0268
10779W        W27626  17.698   6.680  10.446  0.0235  0.0263  0.4650
10780W        W27627  16.968  13.720  14.319 -0.3206 -0.0393 -0.1127
10781W        W27628  14.903   4.662   2.407 -0.0315 -0.1386 -0.3974
10782W        W27629  15.823   5.298  12.215  0.0310 -0.1166  0.1191
10783W        W27630  16.887  19.117  14.889  0.3661 -0.0038 -0.0607
10784W        W27631  12.485  10.247  13.729  0.1190 -0.2126  0.1780
10785W        W27632  16.811  16.218  13.621  0.0863  0.1032 -0.0094
10786W        W27633   8.416  12.655  10.143  0.3595 -0.1443  0.0234
10787W        W27634  12.679  18.384  10.409  0.0154 -0.2374 -0.4281
10788W        W27635   6.263  18.960   0.456 -0.0471  0.2127 -0.0404
10789W        W27636   8.979   4.349  13.481  0.1582  0.1118 -0.1806
10790W        W27637   8.855   4.863   0.129 -0.2673 -0.1776 -0.1150
10791W        W27638  15.927  18.645  11.761  0.1397 -0.0794  0.0717
10792W        W27639  18.796   5.309  14.290  0.0086  0.3955  0.2993
10793W        W27640  18.860   2.381  11.458  0.3480 -0.0483 -0.0861
10794W        W27641   3.522   8.797   3.376 -0.0709 -0.1517 -0.1550
10795W        W27642   4.652  16.989   2.626 -0.1510 -0.4117  0.1260
10796W        W27643  16.206   7.806  11.387 -0.2625 -0.1469 -0.3452
10797W        W27644  16.530   4.335  14.771  0.5766 -0.1335  0.2473
10798W        W27645   0.250   3.182   4.626  0.1776  0.0652  0.0350
10799W        W27646  14.848  15.113   4.924  0.1619 -0.1158  0.2155
10800W        W27647   5.367   9.876  11.569  0.0317 -0.1441  0.0624
10801W        W27648  16.238  12.430  10.098 -0.0224  0.0120 -0.2438
10802W        W27649  12.765  12.768   3.533 -0.4007  0.1733  0.0714
10803W        W27650   9.217  13.521   2.395 -0.3147 -0.0522  0.0303
10804W        W27651  16.441   7.176  11.799 -0.1132 -0.1802  0.0417
10805W        W27652   9.656   6.208  11.436 -0.0712  0.2353 -0.1650
10806W        W27653   8.337   3.179   2.957 -0.1626  0.1876 -0.0296
10807W        W27654   1.941  15.832   1.610 -0.0033 -0.0467 -0.0537
10808W        W27655   2.100   4.734  14.854  0.1461 -0.1801 -0.0604
10809W        W27656   3.669  15.214   4.239 -0.2985  0.1206  0.0995
10810W        W27657  15.636  10.674   3.055 -0.1408  0.1859  0.1627
10811W        W27658   7.246  16.940   1.023 -0.1051  0.1405  0.0776
10812W        W27659  18.697   3.161   0.885 -0.1851  0.2780 -0.1452
10813W        W27660  18.838   6.614  11.550 -0.1904  0.0112  0.3352
10814W        W27661   1.638   2.016   3.737 -0.0114  0.0133  0.0893
10815W        W27662   7.214   9.627  10.684 -0.1117  0.3412 -0.2232
10816W        W27663  14.950   5.661  12.319 -0.0465  0.0599 -0.1590
10817W        W27664  17.156   0.457  13.438 -0.1163 -0.0724 -0.0504
10818W        W27665   8.000  12.218  14.227  0.2553  0.0550  0.1741
10819W        W27666   4.916   9.745  11.895  0.0661 -0.2442 -0.0972
10820W        W27667  10.018  16.430  13.063  0.1678  0.2136  0.1157
10821W        W27668  16.762  12.474  13.962  0.1074 -0.3798  0.1317
10822W        W27669  15.618  18.997   2.901 -0.1562 -0.1747 -0.1854
10823W        W27670   4.108   0.606   3.545 -0.2746 -0.0535 -0.2684
10824W        W27671   3.887  15.856   0.856 -0.0272  0.1998 -0.2103
10825W        W27672  15.063  12.110  13.310  0.2043 -0.2981 -0.1154
10826W        W27673   8.695  11.882   0.527 -0.1127 -0.0006  0.0116
10827W        W27674   7.229  13.121   4.042 -0.0447  0.1739  0.1365
10828W        W27675   6.525  13.492  14.720  0.1015 -0.0461  0.0148
10829W        W27676   1.827  14.746  10.878 -0.1980  0.1012  0.1422
10830W        W27677  16.998  14.778  13.154 -0.0462  0.2605  0.1436
10831W        W27678  11.141   3.468   3.381 -0.1228  0.1421  0.0350
10832W        W27679   1.805   4.249   1.441 -0.2065  0.1093 -0.1258
10833W        W27680   0.518   7.036   2.031  0.0322 -0.3102  0.2803
10834W        W27681   5.063  16.306  14.972  0.1688  0.1115 -0.2715
10835W        W27682  18.449  13.612  12.012  0.0858 -0.0012 -0.0399
10836W        W27683  18.358   6.339  10.855  0.3784  0.1805  0.3404
10837W        W27684  16.754  11.960  10.975 -0.1399 -0.1143  0.2400
10838W        W27685  18.471   5.055   2.178  0.0799  0.3247 -0.0165
10839W        W27686   2.815  12.271  14.758 -0.0644 -0.0320  0.0341
10840W        W27687  14.786  18.426  14.399  0.1603 -0.0248  0.0860
10841W        W27688  18.975  13.542   2.051 -0.0054 -0.0549  0.0577
10842W        W27689   5.828  12.258  11.956 -0.0336  0.3366 -0.1078
10843W        W27690   0.781  13.149  14.805  0.1704  0.0235 -0.0332
10844W        W27691   6.323  12.173   0.566 -0.3434 -0.2477  0.2210
10845W        W27692   0.770   5.368  14.792 -0.1327 -0.2030 -0.0078
10846W        W27693   9.785   8.605   0.914 -0.0833 -0.0393 -0.0307
10847W        W27694  14.947   5.990  11.188 -0.3082  0.0277 -0.2414
10848W        W27695   8.511   9.830   0.123  0.3298  0.0553  0.2563
10849W        W27696   9.586   6.319   0.380 -0.4315 -0.4644 -0.0575
10850W        W27697   4.487   7.593   0.404  0.1256  0.1274 -0.3475
10851W        W27698  12.246   2.011  13.642  0.0344 -0.2051  0.1706
10852W        W27699   9.495  10.919  13.663  0.0164  0.2849 -0.0111
10853W        W27700  17.465   8.982  12.059 -0.1788 -0.2069  0.3438
10854W        W27701  15.238   3.482   0.819  0.2082  0.0918 -0.0707
10855W        W27702   4.563   7.524   5.106 -0.1344 -0.0754 -0.3732
10856W        W27703  17.063  13.949   4.389  0.0008  0.3465  0.0704
10857W        W27704   5.808  16.470  10.277 -0.2724  0.0377 -0.1595
10858W        W27705   3.813   3.947   0.081 -0.1243 -0.3133 -0.1719
10859W        W27706  14.393   6.913  11.525 -0.0195  0.0881  0.0838
10860W        W27707   4.465  13.233   2.246  0.1855  0.0623  0.2696
10861W        W27708  12.674   7.835  10.097  0.2300  0.1929 -0.0003
10862W        W27709   5.176  12.047   5.369 -0.0407  0.1753 -0.2175
10863W        W27710  15.703   0.085   4.151 -0.2411 -0.0655 -0.3136
10864W        W27711  19.043  10.665  12.134  0.1748 -0.1099 -0.1928
10865W        W27712   6.379   5.351   1.139  0.1153 -0.0377  0.3463
10866W        W27713   3.378   2.979   0.797 -0.1936  0.0045  0.0469
10867W        W27714  10.984   5.659  13.259  0.1393 -0.0447 -0.1570
10868W        W27715  13.037  17.642   1.783  0.1639 -0.0011  0.0300
10869W        W27716  14.568  16.154  14.141  0.0143 -0.4129 -0.0321
10870W        W27717  10.655   9.702   9.598  0.3287  0.2260 -0.2364
10871W        W27718   7.583  13.652   5.507 -0.1925  0.1078 -0.1836
10872W        W27719  14.508   1.754  12.130 -0.5572  0.1628  0.2183
10873W        W27720   0.538  12.244  11.478  0.4011 -0.0122  0.1872
10874W        W27721  17.209  17.010   5.827 -0.2030 -0.0045 -0.2106
10875W        W27722  17.280   6.256  10.805  0.0125 -0.0635 -0.2816
10876W        W27723   2.228  17.185   0.357  0.1582  0.3298  0.0454
10877W        W27724  11.055  15.712   1.075  0.2479  0.0023 -0.1930
10878W        W27725   2.383  16.847   5.096  0.0492  0.1157 -0.3518
10879W        W27726   9.289  14.387   2.719 -0.3498 -0.2190  0.0671
10880W        W27727   4.297   0.083   9.476 -0.2743 -0.0299 -0.1102
10881W        W27728  14.861   9.363  14.262 -0.1293  0.0432 -0.0410
10882W        W27729   4.822   5.125   1.390 -0.0306  0.0277 -0.1557
10883W        W27730  13.943   2.468   1.365 -0.0802  0.0257  0.1451
10884W        W27731  19.018   5.190  13.818  0.0809  0.2182 -0.0836
10885W        W27732   0.400   6.155   4.445  0.0106 -0.0069 -0.0568
10886W        W27733  10.875   8.318  13.398 -0.2654 -0.3268 -0.1057
10887W        W27734  17.026   1.224   1.987 -0.2387  0.1586 -0.1848
10888W        W27735   2.457  17.987   3.157  0.0291  0.2704  0.1440
10889W        W27736   7.007  17.487   0.571  0.0587  0.0516 -0.1068
10890W        W27737  12.962  17.797  14.002 -0.0589  0.1097  0.3538
10891W        W27738  15.017   0.979   0.884  0.1224  0.2549  0.3350
10892W        W27739  10.541   1.736   1.559 -0.0111 -0.0790  0.0443
10893W        W27740  18.454  16.305  11.973  0.0840 -0.0207 -0.0976
10894W        W27741   4.123   7.809  11.162 -0.0612 -0.1122 -0.0838
10895W        W27742  15.052   6.787  14.541  0.1349  0.1404  0.2047
10896W        W27743   5.494   2.718   2.350 -0.2472 -0.4289 -0.1464
10897W        W27744   2.144  13.218   2.669 -0.0449 -0.0485  0.0878
10898W        W27745   3.828   1.382   3.711  0.1064  0.0957 -0.2988
10899W        W27746   5.167   0.505   0.381  0.0602  0.0275 -0.0387
10900W        W27747   9.056  12.989   0.085 -0.0949 -0.0438 -0.0584
10901W        W27748  12.555   1.860  13.245  0.3118 -0.1297 -0.1252
10902W        W27749   0.165  10.993   0.560  0.0151  0.0738  0.0759
10903W        W27750   6.340   5.470  12.313 -0.0406  0.4655  0.3539
10904W        W27751   4.001   8.566  14.733  0.4207 -0.2938  0.0541
10905W        W27752   6.068   0.421  14.125  0.1325 -0.1234  0.1746
10906W        W27753  10.011   5.143   2.781 -0.0267 -0.1946  0.1292
10907W        W27754   8.346  18.078  12.411  0.2275 -0.2482 -0.1552
10908W        W27755   8.465   5.744  10.814 -0.2530  0.3418 -0.1874
10909W        W27756  18.925   0.891   1.070 -0.0712 -0.0070  0.1778
10910W        W27757   3.750  13.521  14.070 -0.0329  0.0534  0.3090
10911W        W27758   6.558  10.472  12.216  0.0647  0.2842  0.2033
10912W        W27759   4.729   9.696   0.907  0.0276  0.1401 -0.0981
10913W        W27760   8.634  15.742   0.384  0.4513 -0.0367 -0.3129
10914W        W27761   4.468   3.099   0.216 -0.1965 -0.2763 -0.0901
10915W        W27762  11.883  12.395   9.779 -0.0033 -0.2638 -0.2628
10916W        W27763  14.368   1.218  14.436  0.0064 -0.0070  0.0475
10917W        W27764   1.429   3.496  14.160 -0.0440  0.3520 -0.0501
10918W        W27765   9.224   4.370  13.965 -0.0422  0.0037  0.1596
10919W        W27766  18.164  16.523   5.767  0.0995 -0.0798  0.4295
10920W        W27767  12.871  10.664  12.841 -0.1495 -0.1840 -0.1012
10921W        W27768  10.122  11.919  11.469 -0.2326  0.1288  0.1198
10922W        W27769   2.105   1.283  13.262 -0.0110 -0.0963 -0.0735
10923W        W27770  12.324   0.768   0.653 -0.0018 -0.0293  0.1337
10924W        W27771  16.799   1.372  12.148  0.2614 -0.0978 -0.1259
10925W        W27772   2.717   1.601   4.904 -0.1188 -0.3014 -0.3278
10926W        W27773   2.155  10.829  14.313 -0.2131 -0.0263  0.3131
10927W        W27774  17.727  12.519  13.998 -0.0741  0.1350 -0.3398
10928W        W27775   4.697  12.810  10.537 -0.0980 -0.2926 -0.2147
10929W        W27776  12.161   5.493   2.372 -0.1689 -0.2430 -0.0857
10930W        W27777  15.879  14.002   2.775  0.1750  0.1126 -0.1005
10931W        W27778  18.612  14.723   3.384  0.1565 -0.0574 -0.2422
10932W        W27779  12.717  13.091   2.215  0.1988  0.1499 -0.0320
10933W        W27780   0.167   0.884  13.893 -0.0993  0.4211 -0.0879
10934W        W27781   8.480   6.224   2.657 -0.0646  0.1090  0.1119
10935W        W27782  16.142   0.077  14.982 -0.0122 -0.3269  0.2342
10936W        W27783   8.282   4.685  14.505 -0.2221 -0.1232 -0.0672
10937W        W27784  10.588  13.571  13.017 -0.2240  0.3048  0.1219
10938W        W27785  17.400   1.764   4.032  0.0492 -0.2133  0.0637
10939W        W27786  11.271   1.059   0.224  0.0896  0.1171  0.2511
10940W        W27787  18.063   2.828  12.540 -0.4600  0.2660 -0.3275
10941W        W27788   4.275  18.806   2.756 -0.0214 -0.1907  0.1811
10942W        W27789   5.405   0.932   0.256  0.3783 -0.3624  0.1640
10943W        W27790   7.287  12.906  10.051  0.1716 -0.1920  0.1483
10944W        W27791  12.727  10.294  14.147 -0.0536  0.0805 -0.2514
10945W        W27792   6.472   7.756   4.319 -0.0327 -0.2708  0.1670
10946W        W27793  13.047  14.096  13.491 -0.0221  0.3480  0.2048
10947W        W27794  12.183   0.195  15.016 -0.1139 -0.0901 -0.2151
10948W        W27795  17.314   8.233  13.104 -0.0074  0.3308 -0.3063
10949W        W27796   2.260  13.748   3.493 -0.2225  0.0387  0.0047
10950W        W27797   8.606  17.209   4.876  0.0563  0.1937 -0.0187
10951W        W27798   1.984   5.943   1.779 -0.2046  0.1389 -0.0011
10952W        W27799  16.037  12.123   4.039 -0.0624  0.1507 -0.1634
10953W        W27800  15.901   2.984  12.735 -0.1000  0.0993  0.0042
10954W        W27801   5.355   2.463   4.681 -0.1686  0.1896 -0.0413
10955W        W27802   3.043   8.467  11.278 -0.1767 -0.2076  0.0532
10956W        W27803   4.334  15.034  12.963  0.0214 -0.1272  0.2500
10957W        W27804  18.120   6.615   3.382  0.2445 -0.0516  0.0888
10958W        W27805   6.594   8.045  10.314  0.2780  0.1054  0.3223
10959W        W27806   9.100  10.341   0.980 -0.2356 -0.0761  0.2479
10960W        W27807  12.079  11.997   2.371 -0.3916 -0.5032  0.0069
10961W        W27808   7.487  10.386   2.489  0.0984 -0.1745  0.0162
10962W        W27809  17.029   2.912   1.948  0.2899  0.1184  0.2308
10963W        W27810  10.202  16.506  13.531 -0.4084 -0.0387 -0.0991
10964W        W27811  18.259   8.441   0.502 -0.1836 -0.1079  0.2109
10965W        W27812  12.724   2.948   1.918 -0.0798 -0.4510 -0.0605
10966W        W27813   2.386  10.870   4.572  0.0939  0.3207  0.1992
10967W        W27814  10.351  13.048  14.453 -0.1954 -0.3467  0.0551
10968W        W27815  17.629  15.702   3.643 -0.0020  0.3976  0.0817
10969W        W27816  18.481   9.741  11.706 -0.0744 -0.2229  0.1620
10970W        W27817   1.023  14.301  10.676  0.1658  0.0312  0.1548
10971W        W27818   6.367   2.164   2.231 -0.0356  0.1651 -0.0076
10972W        W27819  17.961   0.668  14.312  0.0065  0.2876 -0.1768
10973W        W27820  14.140   9.372  11.041  0.0242  0.1421  0.0282
10974W        W27821   5.960  17.077  13.384 -0.0245  0.2214 -0.0383
10975W        W27822  17.770   2.742   4.839  0.0549 -0.3816  0.0674
10976W        W27823  16.586  18.815   2.713  0.0719 -0.1688 -0.0002
10977W        W27824  17.044   0.969  14.027 -0.3715 -0.1242  0.2420
10978W        W27825   9.087  10.148  10.983 -0.0746  0.2246  0.0916
10979W        W27826  16.700   8.943  14.545 -0.0401  0.0486 -0.0859
10980W        W27827   2.184  19.231   0.127  0.4797  0.0369  0.2256
10981W        W27828  17.861   1.171   3.391 -0.2884 -0.1036  0.1619
10982W        W27829  14.393  12.586   4.196  0.3274 -0.1478 -0.1315
10983W        W27830  17.954   7.655   1.659  0.0714 -0.1608  0.0097
10984W        W27831   3.524  10.133  12.659 -0.1979 -0.2721 -0.0645
10985W        W27832  16.851   7.853   0.284 -0.1637  0.0103 -0.1606
10986W        W27833   1.401  16.779  12.443 -0.2517  0.1762  0.3500
10987W        W27834  16.442  18.505  14.122  0.0225 -0.2554  0.2888
10988W        W27835  11.212  12.090  11.165  0.1262  0.3126 -0.2118
10989W        W27836  14.392  16.823   4.557  0.2717 -0.4065  0.2215
10990W        W27837  14.450   0.760   4.333  0.0703  0.2309 -0.3073
10991W        W27838  15.166   9.277  13.291 -0.1470  0.1082  0.0848
10992W        W27839   8.918  12.773  11.843  0.3060 -0.4081 -0.1367
10993W        W27840  19.003  12.841   5.121  0.1249 -0.0804 -0.1402
10994W        W27841   3.570  11.002   9.353 -0.1304 -0.1418  0.1296
10995W        W27842  19.138   0.619  14.322 -0.1118 -0.1154  0.0146
10996W        W27843   0.905   8.613   0.965  0.1770  0.1246  0.3952
10997W        W27844  14.239   0.697   0.502 -0.0935 -0.3757  0.0883
10998W        W27845   6.447  17.642  12.075 -0.0388 -0.1188  0.0944
10999W        W27846  17.953   8.418   0.971 -0.0033  0.0889 -0.0574
11000W        W27847  14.049   9.568   4.495  0.0784 -0.0820  0.0027
11001W        W27848  18.131   3.821   5.016 -0.0010  0.3210  0.3825
11002W        W27849  16.766   6.744  10.987  0.0684  0.0269  0.0482
11003W        W27850   0.589  17.419  13.681  0.2757  0.0784  0.1158
11004W        W27851   6.367  16.530   9.693  0.2191 -0.4042 -0.0176
11005W        W27852   6.739  10.861  11.277  0.1598 -0.1238 -0.2187
11006W        W27853  12.406   7.144  12.474  0.0436 -0.0148 -0.0445
11007W        W27854   2.314  13.901  10.484 -0.2648 -0.1017  0.0943
11008W        W27855   3.994   8.036   1.486 -0.0793  0.0635  0.1590
11009W        W27856  11.875  14.393  10.761  0.0054  0.1176  0.0207
11010W        W27857  12.025   7.390  14.386  0.0664  0.1415  0.2079
11011W        W27858   6.084  16.374   1.642 -0.2633 -0.0067  0.1394
11012W        W27859   2.146  15.704  10.864  0.4348 -0.0886  0.2206
11013W        W27860   4.092   2.111   2.800 -0.1645  0.3264  0.2435
11014W        W27861  16.190  14.448   3.135 -0.1119 -0.2285  0.0484
11015W        W27862  13.629   7.270  10.966 -0.0727 -0.0626  0.0884
11016W        W27863   2.304   4.605   3.624  0.0067 -0.3036 -0.0374
11017W        W27864  16.634   5.490  13.495  0.2886 -0.0295  0.2651
11018W        W27865  17.487  17.562  14.957  0.1343  0.1552 -0.0632
11019W        W27866  10.563   3.352  14.593 -0.0892 -0.1877  0.0616
11020W        W27867   7.583   6.016  12.554  0.0065  0.1057  0.0821
11021W        W27868  17.622   8.881  11.529  0.1703 -0.0566  0.1529
11022W        W27869  16.604   1.639  13.467 -0.0296  0.2167  0.1486
11023W        W27870   5.200  18.311  12.159 -0.0798  0.1338  0.1434
11024W        W27871   6.612  12.822   1.522  0.0266 -0.0005 -0.0735
11025W        W27872   4.083  11.143  13.945 -0.1447 -0.0263 -0.1422
11026W        W27873  17.545  11.113   4.092 -0.0673 -0.0096 -0.1136
11027W        W27874   2.644  11.015  12.923  0.0739  0.0668 -0.1609
11028W        W27875  15.467   4.690   1.710  0.1651  0.2026 -0.2473
11029W        W27876   4.288   0.672  13.860 -0.0227 -0.0754 -0.1007
11030W        W27877   1.727   9.569  12.426 -0.0534 -0.0356 -0.0151
11031W        W27878  11.968  11.303  13.879 -0.0890  0.0185  0.0507
11032W        W27879  13.293   9.998  13.289 -0.1641  0.0584  0.0708
11033W        W27880  16.232   5.484  13.145 -0.1783 -0.3761 -0.1197
11034W        W27881   1.598   1.675   2.688 -0.0396 -0.0703 -0.2222
11035W        W27882  15.449   9.675   4.740  0.0561 -0.4255  0.1444
11036W        W27883   5.206  17.232  12.070  0.2665 -0.0284 -0.0336
11037W        W27884  14.678  16.802  13.857  0.1088 -0.1222  0.0626
11038W        W27885   7.887   0.961  14.519  0.2062  0.0299  0.2585
11039W        W27886  12.243   8.587  14.890 -0.2115  0.0400  0.0219
11040W        W27887  12.847  18.280   3.248 -0.0754  0.1231  0.0753
11041W        W27888   3.645  15.739   4.237 -0.0641  0.3892 -0.0152
11042W        W27889  15.651   5.197   2.501  0.4111 -0.1357 -0.3340
11043W        W27890  12.260  17.185  11.479 -0.4979  0.1543 -0.0228
11044W        W27891   8.420  14.240  10.426  0.0729  0.1508  0.0616
11045W        W27892  15.002   2.656  14.321 -0.2518  0.3244  0.0610
11046W        W27893  14.085  13.997   0.030 -0.1397  0.0612 -0.0757
11047W        W27894   2.445   2.474  12.367 -0.0410  0.2482  0.1413
11048W        W27895   1.800  13.911  10.314 -0.1145  0.0376  0.3664
11049W        W27896   1.611   0.139  11.157  0.1234 -0.3047  0.1257
11050W        W27897   0.078   7.733  10.150 -0.1056 -0.0310  0.2762
11051W        W27898  13.898   9.250  12.910  0.0603 -0.0204 -0.3602
11052W        W27899   4.514   2.422  14.939 -0.2302 -0.1554 -0.0820
11053W        W27900  16.447  15.132   3.238 -0.3385 -0.3353 -0.1418
11054W        W27901  12.194   7.289   2.326  0.1474  0.0307 -0.2652
11055W        W27902   9.293  11.464  12.029  0.2159  0.4597 -0.3967
11056W        W27903   5.352   0.641  14.618  0.0488  0.0915  0.1650
11057W        W27904  17.089  15.851   1.287 -0.0902  0.0248  0.1345
11058W        W27905   5.046   1.649   4.447 -0.0625 -0.1696  0.1201
11059W        W27906   5.267  15.938  13.062  0.1679 -0.1067 -0.0719
11060W        W27907  15.111   2.207  11.697 -0.2545  0.1634  0.2702
11061W        W27908   2.291   8.760  13.877 -0.0777 -0.2759 -0.2148
11062W        W27909  14.684   1.337  13.417 -0.0655  0.4144 -0.0670
11063W        W27910   4.598   7.382  13.765  0.4415 -0.2463  0.1911
11064W        W27911  14.830   5.630  13.320 -0.0394 -0.2381 -0.0070
11065W        W27912  12.204  17.426   1.262  0.0988  0.0363 -0.1711
11066W        W27913  16.307   8.013  10.611 -0.0342  0.2922  0.0383
11067W        W27914   4.878   1.822  14.061  0.0308  0.0454  0.0122
11068W        W27915  17.664   4.283   3.301  0.0620 -0.0131  0.0853
11069W        W27916   4.065   4.926   3.492 -0.0068  0.2279 -0.1071
11070W        W27917   1.878   5.590  13.876  0.4043 -0.2677 -0.0777
11071W        W27918   3.450  16.969  14.921  0.0143  0.1047  0.0172
11072W        W27919   6.774   4.622  11.079 -0.1477  0.0904  0.4423
11073W        W27920  10.995  18.667  11.404  0.1860 -0.0506  0.0492
11074W        W27921  14.680   2.463   3.078  0.0496 -0.0735  0.0209
11075W        W27922   1.219  15.060   0.875 -0.0730 -0.0486  0.2110
11076W        W27923  12.935  18.930   2.556  0.1748 -0.2249 -0.5062
11077W        W27924   3.638   5.109   4.363 -0.0867  0.2791  0.0324
11078W        W27925  16.946  17.608   2.475 -0.3064  0.4142 -0.0494
11079W        W27926  15.540   8.287  12.127 -0.2062 -0.0175  0.0337
11080W        W27927   5.139  18.100   1.043  0.0136 -0.0265  0.1951
11081W        W27928   5.498  14.221   3.606 -0.0390  0.0698  0.0338
11082W        W27929  13.654  17.746  10.684  0.0257  0.4439 -0.1561
11083W        W27930   6.088  16.565   2.308  0.3105 -0.0015  0.0467
11084W        W27931  10.515  15.710  10.829 -0.0138  0.1096 -0.2444
11085W        W27932   1.813   1.511  13.673 -0.1186  0.4207  0.6193
11086W        W27933   0.784   4.533   0.323 -0.0107  0.4601 -0.0985
11087W        W27934  13.468   5.063   0.295  0.1509 -0.1358  0.0203
11088W        W27935   6.842  18.771  13.625  0.3291  0.5200  0.1417
11089W        W27936  17.588   9.460  14.827  0.4023 -0.0449  0.0258
11090W        W27937  11.249   8.881  11.221 -0.2930 -0.1495 -0.4454
11091W        W27938  15.708   8.361   4.197  0.0689  0.1016  0.1012
11092W        W27939  13.108   4.164  12.167  0.0809 -0.0746 -0.0879
11093W        W27940   9.255   8.628   2.915  0.0287  0.1468 -0.1084
11094W        W27941  12.785   6.684  10.138  0.0658 -0.0866  0.2533
11095W        W27942   9.058  14.470   0.769  0.1889  0.0660 -0.1456
11096W        W27943   4.546   2.652   5.247  0.0920 -0.0177  0.2030
11097W        W27944  14.599  12.128   4.239  0.3343  0.1393 -0.1963
11098W        W27945  15.749   7.343   2.845  0.3107  0.0744 -0.0234
11099W        W27946   6.793  17.605  13.579  0.1505  0.1531 -0.2065
11100W        W27947   4.659   8.234  12.931  0.1406 -0.0087 -0.0233
11101W        W27948   7.177  13.957  12.375  0.1425  0.0089 -0.3678
11102W        W27949   9.131   9.293   1.232  0.1992  0.0964  0.1426
11103W        W27950   7.500  10.705   1.615 -0.0011 -0.0936  0.0427
11104W        W27951   6.670   4.526  13.070  0.3171 -0.2825  0.0352
11105W        W27952   1.655  11.891  13.556 -0.0403  0.0084 -0.0570
11106W        W27953   0.980   6.280  14.981  0.1757  0.0227 -0.2467
11107W        W27954   1.378  12.999  13.591 -0.2078  0.2047 -0.1849
11108W        W27955   8.358   9.109   2.068 -0.1083  0.0886 -0.2424
11109W        W27956  11.436  12.277   4.528 -0.1935  0.2346  0.0585
11110W        W27957   8.021  11.248  12.291  0.1537 -0.1717  0.0196
11111W        W27958  14.642   4.940  11.649  0.1698 -0.0680  0.0355
11112W        W27959   3.162  15.251   3.468 -0.4649 -0.0920 -0.2065
11113W        W27960  12.370   8.500  13.695  0.1261  0.2057  0.0083
11114W        W27961  12.041  10.474   0.662  0.1269 -0.2294 -0.1252
11115W        W27962   8.451   4.436  10.240  0.1795  0.2839  0.1404
11116W        W27963   9.825   9.758  11.283 -0.0059 -0.0256 -0.0315
11117W        W27964  10.743   7.658   2.178 -0.1590 -0.0763 -0.0131
11118W        W27965   9.642   4.920  14.494  0.0886 -0.4590 -0.0384
11119W        W27966   2.299  11.567   3.055  0.1361 -0.1045  0.1865
11120W        W27967  11.198   1.091   3.982 -0.0086  0.0030 -0.0626
11121W        W27968   0.326   3.319   1.527  0.2781  0.1361  0.1396
11122W        W27969  13.654  11.595  13.405 -0.0807 -0.3198 -0.1025
11123W        W27970   5.791  15.693  11.406  0.1591  0.0473 -0.0030
11124W        W27971  18.484   4.892   3.460 -0.2097 -0.0715  0.0099
11125W        W27972   4.064   3.105   0.611  0.1579 -0.1712  0.2767
11126W        W27973   3.973  11.030   1.831  0.0741  0.0247 -0.0811
11127W        W27974   1.022   7.253  13.957 -0.1853  0.2079  0.3694
11128W        W27975   2.496   5.558  13.717 -0.2291 -0.3314 -0.0421
11129W        W27976  17.899   5.646   3.605  0.1215 -0.1264  0.1350
11130W        W27977   0.012   2.776   1.631 -0.2348  0.4290 -0.0109
11131W        W27978  14.416  11.145   3.915 -0.0558 -0.0691 -0.0867
11132W        W27979   6.565  11.264  12.824  0.1250  0.2042 -0.1078
11133W        W27980  13.520   8.393   2.596  0.0144 -0.1069 -0.2047
11134W        W27981   2.091   9.108   4.188 -0.0570  0.3228 -0.2186
11135W        W27982  16.801  12.577   0.936  0.1919 -0.1615 -0.1159
11136W        W27983   4.267  12.755  10.252  0.0637 -0.1229  0.0579
11137W        W27984  11.502   5.223  11.610  0.1440 -0.1468 -0.2596
11138W        W27985   5.358   5.080  11.170  0.4158  0.1366 -0.0328
11139W        W27986   8.335  15.970   4.445 -0.0235 -0.2410  0.2412
11140W        W27987   2.001   5.650  10.533  0.1818 -0.1190  0.0759
11141W        W27988  17.969   0.762  10.702 -0.0216  0.1913  0.1063
11142W        W27989   9.336  14.226   4.415 -0.0266  0.1394 -0.3194
11143W        W27990  11.489   0.029   0.723 -0.1752 -0.0302 -0.1208
11144W        W27991   6.586   2.876  11.058 -0.2335  0.0444 -0.1436
11145W        W27992   9.540   3.005  13.541 -0.1675 -0.1390 -0.0112
11146W        W27993  17.858  14.001   0.198 -0.0449  0.2026  0.0454
11147W        W27994   0.908  17.903  11.552 -0.1453  0.0557 -0.2438
11148W        W27995  14.331  10.901   0.594 -0.4236  0.3762  0.0211
11149W        W27996   9.254   9.797  12.686 -0.1097  0.0330 -0.0877
11150W        W27997   4.531   6.657   0.791  0.1552 -0.1146  0.0443
11151W        W27998   1.498   2.851   4.110 -0.1372 -0.0027 -0.2391
11152W        W27999   8.353  11.496  13.090 -0.0976  0.2578 -0.4185
11153W        W28000   9.414  11.573   2.134  0.0678 -0.1084  0.0291
11154W        W28001  10.251  12.517  14.343  0.1133  0.3125  0.0684
11155W        W28002   2.546   8.078   5.407  0.0878  0.1018 -0.1388
11156W        W28003  11.570  19.077  14.321 -0.1259 -0.1072 -0.0002
11157W        W28004   4.550  12.377   4.220  0.1402  0.1527 -0.1268
11158W        W28005   7.816   1.967  11.097  0.1841  0.0157 -0.2690
11159W        W28006   7.928   5.968  10.086 -0.0637 -0.0290 -0.3419
11160W        W28007  12.249   8.322  14.327 -0.0860 -0.2031 -0.0447
11161W        W28008  18.283   2.223  13.355 -0.3472  0.3453 -0.0379
11162W        W28009   5.041   7.224   3.372  0.0664 -0.1191  0.0165
11163W        W28010   1.675  13.310   0.043 -0.3697 -0.0659  0.2783
11164W        W28011  14.584  10.075   0.886 -0.0916 -0.1912  0.0908
11165W        W28012  15.293   0.815   0.504  0.1621 -0.0367  0.1414
11166W        W28013  17.426   3.837   3.271 -0.0850 -0.0423 -0.0886
11167W        W28014   3.117  11.121  14.283 -0.2382  0.1178 -0.2482
11168W        W28015  10.722   4.249   0.269  0.2853 -0.0951 -0.0153
11169W        W28016   1.527  15.935   0.002  0.1128  0.0132  0.2215
11170W        W28017   9.061  12.470  12.744 -0.1312  0.0511 -0.1879
11171W        W28018  16.161  17.606   2.430 -0.0465  0.0495 -0.0200
11172W        W28019   9.965  15.154  12.986  0.2330  0.0407  0.1779
11173W        W28020  12.326   5.738  13.928  0.0000 -0.2437 -0.1137
11174W        W28021  19.031   3.729  13.780  0.0090  0.0754  0.0891
11175W        W28022  13.927  17.396  13.755  0.0349 -0.0354 -0.0406
11176W        W28023   0.996   5.752  14.930 -0.0367  0.1295 -0.0270
11177W        W28024  10.085  12.231   1.228  0.2155 -0.2599  0.1856
11178W        W28025  19.245  12.022   2.138 -0.1770  0.2779  0.2051
11179W        W28026  11.071  10.254  12.090 -0.0714  0.0120  0.1786
11180W        W28027   1.784  12.002   1.177  0.3044 -0.0556  0.2445
11181W        W28028  19.054  14.336  11.653  0.1446 -0.2004 -0.0939
11182W        W28029   1.370   9.221  12.024  0.3359  0.2166 -0.1191
11183W        W28030   3.469  11.021  14.699  0.0865 -0.1934  0.0163
11184W        W28031   4.754   5.031   5.136 -0.2802 -0.1915  0.0572
11185W        W28032   8.952   0.298  11.953 -0.0475  0.0620 -0.0905
11186W        W28033  11.421   3.020  13.300 -0.2331  0.0309 -0.1946
11187W        W28034   1.818  18.451  14.550  0.1018 -0.0605 -0.0266
11188W        W28035   9.375   0.850   3.162  0.0621 -0.2406  0.0902
11189W        W28036  14.289  14.544  11.783 -0.2387  0.4108 -0.1448
11190W        W28037  17.699  16.130  13.584  0.0308 -0.0098  0.0423
11191W        W28038  14.511  16.525   5.245 -0.1224  0.1345  0.1367
11192W        W28039   0.710  12.636  10.571 -0.0858  0.0334  0.0027
11193W        W28040   8.641   6.217   0.227 -0.1254 -0.0864 -0.2256
11194W        W28041   6.247   8.762   1.293 -0.2502 -0.1695  0.0355
11195W        W28042  18.294  14.069  13.469  0.3088 -0.0079  0.0779
11196W        W28043   3.542  14.011  11.350  0.0693 -0.0394  0.0181
11197W        W28044   8.672  15.072   3.482  0.0874  0.1119  0.1468
11198W        W28045   2.978  18.985   1.264 -0.0326 -0.0120  0.2792
11199W        W28046  14.019   4.393  11.336  0.0359  0.1168  0.2084
11200W        W28047  13.034  10.403   3.097 -0.0335 -0.1801 -0.1423
11201W        W28048  15.491  12.439  12.226  0.1935 -0.1179 -0.1640
11202W        W28049  12.748   4.577  12.269  0.2837 -0.0434  0.0945
11203W        W28050  17.177  11.749   0.086  0.4468  0.1682  0.3674
11204W        W28051   2.893   2.444  12.127  0.0790 -0.4958 -0.3358
11205W        W28052  15.892  10.441   2.646 -0.0008  0.0376 -0.0264
11206W        W28053  11.905  16.952  10.232  0.2875  0.1068  0.7639
11207W        W28054   6.719  15.565  12.549  0.1289  0.3736  0.1368
11208W        W28055  16.743  11.426   3.445 -0.0448 -0.1117  0.1489
11209W        W28056   6.378  16.245   2.059 -0.1978  0.1045 -0.3665
11210W        W28057   2.417   5.646   2.775  0.1975 -0.0644  0.0077
11211W        W28058   2.816   0.619   4.332 -0.1004  0.2123 -0.0138
11212W        W28059  13.765  15.999   3.442 -0.1599 -0.0875 -0.0998
11213W        W28060  15.629  17.200   4.398  0.1238  0.0295 -0.0779
11214W        W28061   6.837  16.733   4.919 -0.1578  0.1578  0.1490
11215W        W28062   3.936  15.124  10.716  0.0296 -0.3791 -0.2163
11216W        W28063  11.673  17.550  12.552 -0.4141  0.4343  0.1313
11217W        W28064  18.204  12.337  14.665  0.0423  0.3208 -0.0375
11218W        W28065   2.375   6.992  12.657  0.2138  0.0528  0.0942
11219W        W28066  10.025  16.580  11.535  0.0024 -0.3368 -0.1087
11220W        W28067  16.351   2.644  11.959 -0.1318 -0.2379 -0.2374
11221W        W28068   8.094  12.676  14.485 -0.1286 -0.0468 -0.0766
11222W        W28069  13.541  15.262   3.440  0.0349  0.1055 -0.3237
11223W        W28070   7.680   1.795  14.898 -0.1191  0.1483 -0.2409
11224W        W28071   4.367  13.084  12.395  0.1093  0.2401  0.1833
11225W        W28072   0.168  15.033   3.839 -0.5964  0.0261 -0.0676
11226W        W28073  14.992  12.044   5.371 -0.1182 -0.1820  0.0045
11227W        W28074  11.545  12.414  12.889  0.2756 -0.1787 -0.0047
11228W        W28075   0.502   8.965  12.326  0.0379 -0.0728 -0.1388
11229W        W28076   7.064   1.112   0.546 -0.1821 -0.0522 -0.0581
11230W        W28077   5.236  11.418  10.700  0.0125  0.0192  0.3701
11231W        W28078  15.694   9.562  14.164 -0.0907  0.0923 -0.1018
11232W        W28079  11.763  10.335   3.421  0.2030 -0.1068  0.0668
11233W        W28080  16.506  15.219  11.091  0.1622 -0.1186  0.2486
11234W        W28081   8.166   0.757  11.482 -0.2208 -0.2270  0.1133
11235W        W28082   2.933   2.039  11.764  0.5689 -0.1742 -0.0651
11236W        W28083  10.861   7.929   4.319 -0.0352  0.1004 -0.2141
11237W        W28084   8.019   5.424   1.582 -0.2001 -0.3126 -0.2580
11238W        W28085   0.420  16.244  14.199  0.2010  0.2051 -0.2990
11239W        W28086   1.053  15.784  14.188  0.1071 -0.3016  0.1727
11240W        W28087  17.267  11.843   4.864 -0.1863 -0.0839  0.1687
11241W        W28088   1.485  13.061   3.926  0.2824 -0.4971  0.3238
11242W        W28089   7.978  16.262  12.593  0.0557 -0.3040 -0.2125
11243W        W28090   9.285  14.293  12.443 -0.1564  0.0326 -0.0987
11244W        W28091   9.160   2.817  11.052 -0.2870 -0.1016 -0.1968
11245W        W28092   5.923  17.054   2.203 -0.2995 -0.0928  0.0815
11246W        W28093   1.293  11.069  11.111  0.3237  0.3450  0.1070
11247W        W28094   8.142   6.769   3.240  0.2719  0.3654  0.0581
11248W        W28095  14.810   7.300  10.912 -0.1386  0.1281 -0.0017
11249W        W28096  16.358   0.054  12.035  0.0591  0.2174 -0.1973
11250W        W28097  15.475  16.286  11.173 -0.1848  0.2231 -0.0718
11251W        W28098   4.882   7.170   2.854  0.1958 -0.0910  0.0725
11252W        W28099   0.105  17.483  14.595  0.0329  0.1128 -0.0614
11253W        W28100  18.273   8.148   3.542 -0.1617  0.2848 -0.1098
11254W        W28101   7.338  15.499   2.156  0.0715  0.2606  0.0853
11255W        W28102   4.042  18.952   0.894 -0.1761  0.5902  0.0015
11256W        W28103  15.193   0.338   0.423  0.3438  0.2766 -0.0568
11257W        W28104  10.361  11.272   3.965  0.3135  0.2534  0.1756
11258W        W28105  11.284  10.190   4.284  0.1820  0.1033 -0.0452
11259W        W28106  14.751  12.682   3.318 -0.2220  0.0701 -0.0615
11260W        W28107   8.996  12.941  13.991 -0.0302 -0.0332 -0.0559
11261W        W28108   4.023  13.547   4.007 -0.2536  0.0561  0.1782
11262W        W28109   8.240   9.891   0.576 -0.1956 -0.1772 -0.0410
11263W        W28110   2.566   5.298  12.314 -0.0264 -0.0212 -0.1405
11264W        W28111   4.432  19.027  12.928  0.2487  0.2153 -0.1663
11265W        W28112   0.115  12.041   5.216  0.3760 -0.0026  0.2560
11266W        W28113   4.254  12.719   4.575  0.0523 -0.1183 -0.0507
11267W        W28114   1.454   7.438  14.708 -0.1062 -0.2381 -0.3145
11268W        W28115  16.370   7.195   1.426  0.0060  0.1153 -0.0103
11269W        W28116  14.658   6.910   2.102  0.1521 -0.0662  0.1512
11270W        W28117  10.073  13.174  12.569 -0.2712  0.0635 -0.0826
11271W        W28118  17.692   4.123   1.890  0.1700  0.0585 -0.2788
11272W        W28119   3.027  15.059  14.499  0.4538 -0.0334  0.3464
11273W        W28120   8.648   9.385   3.824 -0.1789 -0.1016  0.2284
11274W        W28121   8.720  10.368  11.178  0.1865  0.2684  0.0587
11275W        W28122   3.829  17.966   3.034 -0.0607 -0.0692  0.0683
11276W        W28123   0.797  16.409   1.476  0.0203  0.0852 -0.0440
11277W        W28124   1.804  17.756   3.597 -0.2923 -0.1717 -0.0445
11278W        W28125  11.778   9.038  11.087 -0.4595 -0.1785  0.0232
11279W        W28126  11.724   7.782  11.981  0.0009 -0.0985  0.0207
11280W        W28127  14.128  11.012   1.717 -0.2169 -0.0062 -0.1838
11281W        W28128   8.931   9.315  12.738 -0.4547  0.0976  0.0877
11282W        W28129   4.464  10.995   0.988  0.1877  0.1327 -0.3293
11283W        W28130   4.864  16.677  14.394 -0.2143 -0.0687  0.2031
11284W        W28131  10.691  18.141   5.119  0.0313 -0.0079 -0.0575
11285W        W28132   2.378   4.254   3.310  0.0102 -0.3176  0.0005
11286W        W28133  12.454   1.996   3.922  0.0906 -0.0488 -0.1721
11287W        W28134   5.569   2.451   3.081  0.0828  0.1233  0.1701
11288W        W28135   0.930  11.599   3.368  0.3555 -0.0636 -0.0268
11289W        W28136   5.255   7.774  12.477  0.1349  0.0709 -0.1303
11290W        W28137   2.507   2.321  10.493 -0.2035  0.2318  0.1906
11291W        W28138  10.910   0.116  13.204  0.0843 -0.0283  0.0141
11292W        W28139   3.517   5.501   3.230  0.2605 -0.0162 -0.1140
11293W        W28140   6.891   8.008   4.401 -0.0703  0.3889  0.0426
11294W        W28141   7.405   3.755   2.324 -0.1508 -0.1200  0.0330
11295W        W28142   3.520  11.442  10.216  0.2924 -0.1567 -0.0386
11296W        W28143  10.477  12.886  14.026 -0.1112 -0.1932 -0.0931
11297W        W28144  14.791   9.381   1.405  0.2355  0.2837  0.0238
11298W        W28145   4.625  18.970  10.425 -0.1634  0.0645  0.1141
11299W        W28146   6.720   4.088   3.753 -0.0215 -0.1622 -0.1176
11300W        W28147  12.929  16.038   2.808  0.0543  0.2992 -0.0060
11301W        W28148  17.429   3.688  13.339  0.1619 -0.0527 -0.2455
11302W        W28149  17.798  10.787  13.679 -0.0613  0.0486 -0.2872
11303W        W28150  17.634   5.265   2.230 -0.1848  0.0129  0.0610
11304W        W28151  17.067   9.229   5.907  0.1334  0.0574  0.0203
11305W        W28152  10.268   5.609   9.246  0.0722  0.1263 -0.3123
11306W        W28153   7.723  12.431   2.105 -0.2461 -0.1684 -0.0413
11307W        W28154  17.887   6.908  12.078 -0.1058  0.0249  0.3328
11308W        W28155  12.577   2.291  12.987 -0.0746 -0.1137  0.0381
11309W        W28156  14.619  15.267   2.512 -0.2175 -0.2178 -0.1013
11310W        W28157   3.720   4.854   3.936 -0.2047 -0.0142 -0.1787
11311W        W28158   6.545  18.743   2.904  0.2377 -0.1583 -0.2068
11312W        W28159   5.401  10.988  14.075  0.1047  0.1036  0.0185
11313W        W28160  11.782   4.752   2.643  0.1075  0.1736  0.0443
11314W        W28161  12.301   1.650   3.541 -0.0412 -0.0862 -0.4054
11315W        W28162  10.227   3.252  10.399  0.0568  0.0943 -0.1543
11316W        W28163   1.868  12.934   4.518  0.0515 -0.1577 -0.0338
11317W        W28164  11.530  12.542   3.705 -0.0249 -0.2567 -0.1164
11318W        W28165  17.654   5.871  10.914  0.0323  0.2910 -0.2105
11319W        W28166  16.903  16.951   1.145 -0.2394  0.0722  0.1057
11320W        W28167   5.457  17.302   1.289  0.1239  0.2394  0.2140
11321W        W28168   7.562   4.414   4.715 -0.0562 -0.0962  0.3593
11322W        W28169  16.794  18.173   3.903  0.3435  0.2366 -0.1877
11323W        W28170   7.418  13.480  13.127  0.0329 -0.1166  0.1962
11324W        W28171   5.331  12.981   3.575  0.0530 -0.0902 -0.1488
11325W        W28172  13.271  16.689   1.186  0.1418  0.3047 -0.2045
11326W        W28173  12.624  10.093  10.399 -0.0784  0.2966 -0.3576
11327W        W28174  13.124  16.491   0.230  0.0003  0.0790 -0.3665
11328W        W28175  19.176   2.337  10.646 -0.0226 -0.2241 -0.0740
11329W        W28176   8.099  17.400  13.164 -0.4064  0.2394 -0.1912
11330W        W28177   2.479  12.914   4.629 -0.1647 -0.0022  0.1250
11331W        W28178  14.025  16.647  14.886  0.1675 -0.0196 -0.0648
11332W        W28179   8.293  14.687   5.390 -0.0613  0.0566  0.3290
11333W        W28180   2.834  10.437  12.581  0.2039  0.3045 -0.2441
11334W        W28181  17.283  15.081   1.669 -0.0264  0.0027 -0.0517
11335W        W28182  11.009  14.797   4.554 -0.1801 -0.1240  0.1174
11336W        W28183   1.835  11.890  12.749  0.3585 -0.2346  0.1264
11337W        W28184  15.825   1.755   5.044 -0.2692  0.1472  0.2274
11338W        W28185   6.102  13.052  11.327 -0.3980  0.0610  0.0380
11339W        W28186   8.557  13.924  10.821 -0.1165  0.0127  0.2298
11340W        W28187   3.666  16.547  12.592 -0.1444  0.0413 -0.1406
11341W        W28188  18.471   6.154  12.371 -0.1816  0.0518  0.1965
11342W        W28189   2.057   2.106   3.337  0.0482 -0.1340 -0.0896
11343W        W28190   4.812  14.630   3.126 -0.0923 -0.2238 -0.0664
11344W        W28191   6.541   5.706   3.423  0.1596  0.1844 -0.0054
11345W        W28192   6.642   8.450  14.945  0.3807 -0.0823 -0.2482
11346W        W28193  11.619   4.846   3.730 -0.2076 -0.1455 -0.3723
11347W        W28194  18.495  12.443   4.493 -0.2247 -0.1338 -0.1438
11348W        W28195   1.244   0.876  10.605 -0.0384  0.0400  0.0541
11349W        W28196   9.271  15.267  14.848 -0.0284 -0.1039  0.1532
11350W        W28197  19.206   3.672   3.612 -0.1799  0.0413  0.1855
11351W        W28198   5.629  15.641   4.790  0.1036 -0.0473 -0.1338
11352W        W28199  11.786  15.362   0.478 -0.0464 -0.4630 -0.1517
11353W        W28200   9.425   6.602  11.013 -0.0501  0.3852 -0.1006
11354W        W28201   2.117  13.840  14.390 -0.1422  0.2199 -0.3487
11355W        W28202   3.738   4.966  14.057  0.0975 -0.0325  0.2061
11356W        W28203  16.602   8.041   1.103  0.1573 -0.1447 -0.1593
11357W        W28204  17.086   3.804  11.567  0.1951 -0.0112  0.4133
11358W        W28205  13.784  16.485  13.541 -0.2137 -0.0594  0.0073
11359W        W28206   3.989  14.229  13.166  0.2326  0.0894  0.1661
11360W        W28207  18.251   7.719  14.248  0.1214  0.1209 -0.2914
11361W        W28208  12.884   3.483   1.506 -0.0389  0.1866 -0.0210
11362W        W28209  10.925   0.503   4.680 -0.1902 -0.4067  0.4762
11363W        W28210   7.252   8.403  13.977  0.1600  0.1170 -0.2335
11364W        W28211   8.768  13.843   3.051 -0.0153  0.1991 -0.1198
11365W        W28212   1.733  14.459  12.422  0.0486  0.0291  0.0297
11366W        W28213   1.514  18.166   3.523 -0.2211  0.0335  0.3306
11367W        W28214   4.575  19.135   2.551  0.3170 -0.1567 -0.1095
11368W        W28215   2.399   3.072  11.646 -0.2251  0.0664  0.1485
11369W        W28216  10.310  19.017  14.800  0.0108 -0.2610 -0.2056
11370W        W28217   2.472  16.982  12.962 -0.0516 -0.2202 -0.4310
11371W        W28218   1.866  10.433   1.018  0.1221 -0.0785 -0.0469
11372W        W28219  12.430  15.464   1.304 -0.0708  0.0697 -0.0312
11373W        W28220   9.710   3.294  12.809  0.0471  0.0457 -0.0341
11374W        W28221   8.754  15.169  13.591  0.0511 -0.1455  0.1794
11375W        W28222  18.617   4.117  11.705  0.3018 -0.1341 -0.0443
11376W        W28223   0.625  16.064   1.800 -0.0935 -0.0626 -0.4072
11377W        W28224  12.278  18.296   0.344  0.2182 -0.0297  0.1553
11378W        W28225  12.777  18.120  14.385 -0.0295 -0.1357  0.1245
11379W        W28226  18.690   7.566   0.948  0.2471  0.0170 -0.0413
11380W        W28227  13.919  14.208   2.030 -0.1304 -0.0051 -0.1115
11381W        W28228  12.494   5.813   1.474  0.0899  0.0714  0.2799
11382W        W28229  17.089  15.846  10.857 -0.0741  0.0935  0.1331
11383W        W28230  17.048  14.486   2.783  0.1024  0.0964  0.0025
11384W        W28231  16.957   9.176   2.417 -0.0526 -0.2093  0.0939
11385W        W28232  14.767  11.527  13.983 -0.1483 -0.1860  0.1754
11386W        W28233  14.380   7.749  10.812 -0.2328  0.3819 -0.1657
11387W        W28234  13.617  10.284  13.569 -0.1532  0.0593  0.0847
11388W        W28235  12.221   6.922   3.670  0.0571  0.0759 -0.0375
11389W        W28236   9.406   1.748  14.305  0.0520 -0.5518  0.3078
11390W        W28237   7.303  13.336   2.061  0.0614 -0.2823 -0.1951
11391W        W28238  15.990   0.248  14.281  0.2649  0.0422 -0.0083
11392W        W28239  18.588   6.000  11.362  0.1329  0.0893 -0.1200
11393W        W28240   7.018   7.265  13.309  0.1230 -0.1348  0.0452
11394W        W28241  14.351  10.931  14.700 -0.0316 -0.0276 -0.0712
11395W        W28242   8.722   5.147   3.324  0.2378  0.0916  0.0616
11396W        W28243  18.785   0.123   1.826  0.2207  0.1673 -0.2660
11397W        W28244  18.905  18.821  13.474 -0.0880  0.0753  0.1454
11398W        W28245  15.404   3.685  14.717 -0.2568 -0.0282 -0.0835
11399W        W28246   4.832  19.082   2.067  0.0959  0.1089 -0.2415
11400W        W28247  11.219   7.975   4.676 -0.0382  0.0909  0.1401
11401W        W28248  18.756  11.331  11.779  0.1226 -0.0330 -0.1782
11402W        W28249  12.380  12.693   4.537 -0.3105  0.0584  0.0729
11403W        W28250   4.797   7.726   1.988  0.0318  0.0844  0.2779
11404W        W28251   3.976   2.643  14.691 -0.5731 -0.0717 -0.2546
11405W        W28252   4.614  17.943   0.222 -0.1657 -0.1162  0.0735
11406W        W28253  11.922  14.019   2.801  0.0893 -0.4081  0.2049
11407W        W28254   6.507  16.983  13.404  0.1429 -0.3164  0.0204
11408W        W28255  18.831   2.891   4.022 -0.1061 -0.0922  0.0235
11409W        W28256  12.309   9.355  11.184 -0.1704 -0.0652  0.1807
11410W        W28257  14.341   4.846   3.828  0.1773 -0.1565 -0.2739
11411W        W28258   5.972   2.931  11.840 -0.0491  0.1548 -0.1131
11412W        W28259  10.247  10.898  14.195 -0.1287 -0.1368  0.0072
11413W        W28260   5.111   3.852  11.180 -0.1045 -0.1377 -0.2252
11414W        W28261   5.943  18.923  12.573 -0.3698  0.1421  0.1148
11415W        W28262  11.502   9.024   3.921 -0.0498 -0.0168  0.0611
11416W        W28263  14.518   1.896   2.211  0.1700 -0.2264  0.2306
11417W        W28264  16.323  18.684  13.619  0.1833 -0.2404  0.4630
11418W        W28265  12.212   9.249  11.811 -0.2215  0.1426 -0.0343
11419W        W28266   9.406   7.043  12.597 -0.2744  0.0468 -0.2847
11420W        W28267  13.250   6.814  12.333 -0.0959 -0.0321  0.0863
11421W        W28268   2.318  13.932  13.793 -0.4449 -0.0585  0.0051
11422W        W28269  12.635  17.281  14.814 -0.1182  0.0513  0.3152
11423W        W28270   4.526   1.199  11.953 -0.3308 -0.0218  0.1740
11424W        W28271   6.263  11.288  11.081  0.1095 -0.4397 -0.1520
11425W        W28272   5.020  11.148   4.603 -0.0698 -0.1965 -0.1946
11426W        W28273  18.412  17.070  12.576  0.0617  0.0564  0.1139
11427W        W28274  12.151   1.082   4.269  0.2451 -0.1539  0.1291
11428W        W28275   4.977   9.624  10.202 -0.1291 -0.1832  0.0528
11429W        W28276  15.592  10.647  13.147 -0.1226 -0.4227 -0.0879
11430W        W28277   3.907   0.573  10.708  0.0561  0.2233  0.0644
11431W        W28278  18.601  13.062  12.321  0.0907  0.0018  0.2251
11432W        W28279   3.340   2.549  11.425  0.0251 -0.0708 -0.3607
11433W        W28280  13.708   7.704   0.457  0.0497 -0.2506 -0.0391
11434W        W28281  17.293  14.125   3.041 -0.1560  0.0273 -0.0775
11435W        W28282  13.598   7.845  11.322 -0.0656  0.0534  0.4619
11436W        W28283   0.848   3.335   3.884  0.1234 -0.1614 -0.0618
11437W        W28284  10.449   8.381   2.404 -0.2365 -0.0388 -0.0498
11438W        W28285   2.846  18.128  12.317  0.0427  0.2161 -0.0625
11439W        W28286   9.788   7.436   1.048  0.1468 -0.0487 -0.0354
11440W        W28287   4.768  17.456   4.128 -0.2901  0.1423  0.1707
11441W        W28288  18.754  13.433   2.496 -0.0384  0.1157  0.0797
11442W        W28289  17.342  12.054   3.009 -0.0445  0.1302  0.0754
11443W        W28290  18.870  10.508  11.121  0.1303 -0.0236 -0.2747
11444W        W28291   3.328  13.475  12.264 -0.1858 -0.1106  0.3672
11445W        W28292  15.097   4.217   0.148  0.0186  0.1942 -0.2363
11446W        W28293   1.707   3.295   2.572  0.3796  0.2782 -0.1595
11447W        W28294   7.548   8.077  14.893  0.0532  0.1521 -0.0370
11448W        W28295  12.735  14.670   5.325 -0.2037 -0.0304 -0.0836
11449W        W28296   3.209   9.208  14.897 -0.0085  0.2462 -0.0428
11450W        W28297  18.079   3.933  13.764 -0.1503 -0.0062  0.2223
11451W        W28298   7.932   5.556  14.668 -0.3970 -0.2529  0.0512
11452W        W28299  18.639  14.872  12.384  0.1596 -0.0229  0.0161
11453W        W28300   7.090   8.479   3.246 -0.2048 -0.0486  0.0007
11454W        W28301  15.968  12.421   2.818 -0.1974 -0.0925  0.1886
11455W        W28302  13.582   8.398   1.764  0.1508  0.0227  0.1544
11456W        W28303   7.566  16.257   0.737  0.1891  0.0083 -0.0266
11457W        W28304  14.876   4.458  14.781  0.0350  0.1149  0.0850
11458W        W28305  16.049  14.700  13.150 -0.3076 -0.1194 -0.3208
11459W        W28306  16.906  17.273  12.359  0.0878 -0.1396  0.2730
11460W        W28307  17.316  17.225   4.428  0.0103 -0.2110  0.1968
11461W        W28308   9.992  12.891  13.017 -0.0269 -0.1172 -0.1508
11462W        W28309   2.705   5.190   3.117  0.0968  0.1048 -0.4105
11463W        W28310   8.915  15.396   3.765  0.1424  0.0320 -0.1507
11464W        W28311   4.844   0.406   4.463  0.4351 -0.0408 -0.0554
11465W        W28312  19.040   0.072  12.213 -0.1091 -0.3805  0.3702
11466W        W28313   7.300   4.231  13.748 -0.2175  0.0684  0.0649
11467W        W28314  18.050  16.210   0.665 -0.2171  0.0701 -0.0741
11468W        W28315   9.216   4.430   3.740 -0.0278 -0.3059 -0.3174
11469W        W28316   8.027  17.908  11.048  0.0692 -0.1948  0.0763
11470W        W28317   9.404   5.912   5.091  0.2979 -0.0903 -0.0256
11471W        W28318   2.669   6.785  11.112  0.0488 -0.2167 -0.0936
11472W        W28319   2.302   2.803   3.182 -0.4328 -0.3022 -0.0134
11473W        W28320  13.902   4.980   3.419 -0.2823  0.2655 -0.0604
11474W        W28321   6.422  18.687  12.489  0.1995 -0.2433  0.2591
11475W        W28322   2.237  13.501   1.309 -0.1225 -0.0103 -0.1520
11476W        W28323  11.702  18.732   3.166 -0.1668  0.0618  0.1791
11477W        W28324  12.920  17.671   4.001 -0.1558  0.1032  0.0266
11478W        W28325   0.143   4.407   3.062 -0.1168  0.2776 -0.1925
11479W        W28326   1.569  15.205  14.382  0.2068 -0.1427  0.0569
11480W        W28327  11.971  19.122   0.698 -0.3963  0.3536  0.1586
11481W        W28328   6.930  13.974   4.559  0.0911 -0.1001 -0.1392
11482W        W28329  16.242   2.204  11.099 -0.1908  0.1253  0.4005
11483W        W28330   3.548  18.052  13.161  0.1277  0.1834  0.0226
11484W        W28331  10.805  15.213   0.962 -0.0281 -0.2751  0.3893
11485W        W28332   2.166   5.329   1.837  0.0607 -0.3470  0.1492
11486W        W28333  13.216   6.397  13.963 -0.0963 -0.2131  0.0410
11487W        W28334   8.183  18.772  10.720  0.3081 -0.0816  0.1595
11488W        W28335   3.298   1.688   3.081 -0.0509  0.0833  0.1295
11489W        W28336   9.019   2.352  10.784 -0.0914  0.4582 -0.0337
11490W        W28337  13.498   8.162   4.651  0.3471  0.0232  0.1803
11491W        W28338  15.493   1.273  11.523 -0.3072  0.0140  0.1578
11492W        W28339   2.936  15.424   0.789 -0.2419  0.1244 -0.0300
11493W        W28340   8.460  10.797   1.599 -0.0711  0.3458  0.0178
11494W        W28341   3.930   1.819  12.679  0.0572  0.1443 -0.4061
11495W        W28342  11.017  19.105  13.602 -0.4102 -0.0175 -0.1783
11496W        W28343  10.816   8.256   1.424  0.0043  0.0147 -0.0273
11497W        W28344   1.583  13.421   1.634  0.2010 -0.2827  0.1422
11498W        W28345   8.206  12.740   2.075  0.2546 -0.0037 -0.1214
11499W        W28346  11.525  10.277  11.647 -0.0430 -0.3604 -0.0085
11500W        W28347  14.047  12.537   4.936 -0.1160 -0.0167 -0.0775
11501W        W28348   3.878   0.695   4.539 -0.2744  0.1118  0.3495
11502W        W28349   7.175   8.326   4.098  0.1157  0.1336  0.2923
11503W        W28350  13.243  12.400   1.925 -0.0890 -0.1244  0.1981
11504W        W28351  18.686   6.213   9.906  0.0949 -0.1455  0.1059
11505W        W28352   0.319   1.508   0.289  0.0864 -0.0769  0.0205
11506W        W28353  15.470  15.054   1.135 -0.2792 -0.0026 -0.2383
11507W        W28354   0.970   0.816   3.117  0.2847 -0.0199 -0.1508
11508W        W28355   2.392  12.009  14.587  0.4255  0.0286 -0.3345
11509W        W28356   6.961  10.524  12.885  0.1378  0.0283 -0.0901
11510W        W28357  12.511  17.708   1.539  0.0186  0.0303 -0.0845
11511W        W28358   1.774  16.432   4.284  0.3565  0.1197 -0.0509
11512W        W28359   2.282   0.002  10.649  0.2683 -0.0254 -0.0970
11513W        W28360  16.619   5.069   5.346  0.0125 -0.0671  0.0137
11514W        W28361  17.175  12.670  13.597 -0.0118 -0.1004  0.2224
11515W        W28362  16.615   6.406   2.977 -0.2032  0.0265 -0.1091
11516W        W28363   7.989   2.146  10.620  0.0674 -0.2510 -0.1201
11517W        W28364   1.136   0.901  11.235 -0.1140 -0.1219 -0.1111
11518W        W28365  12.705  14.690   1.065  0.2203  0.0237 -0.1147
11519W        W28366   1.143   8.228   9.079  0.0510 -0.2200 -0.0434
11520W        W28367   3.674  13.916   1.795 -0.0088 -0.2352  0.0850
11521W        W28368  16.025  13.877  14.495 -0.0181  0.0993  0.2231
11522W        W28369  11.311   9.164   2.219  0.1927  0.0080 -0.1970
11523W        W28370  13.897  11.104  11.039  0.0697 -0.3052 -0.0811
11524W        W28371   1.462   4.314   3.728 -0.0645 -0.2956 -0.1412
11525W        W28372   8.329  15.822  11.766  0.2075 -0.0888 -0.0118
11526W        W28373   2.934  12.000   1.804 -0.3227  0.3495 -0.1145
11527W        W28374   9.078   4.617   9.881  0.3995 -0.0732  0.2550
11528W        W28375   3.084  11.961  10.529  0.2492 -0.2078 -0.0077
11529W        W28376   7.550  13.300  14.090 -0.4213 -0.2121  0.0885
11530W        W28377  14.566   9.017  11.362  0.3140 -0.0325 -0.2336
11531W        W28378  17.468  15.269  13.038  0.3022  0.0058 -0.0497
11532W        W28379  12.553  17.451  13.805  0.0777 -0.4047  0.0470
11533W        W28380  12.779  13.659  14.942  0.3250  0.2510  0.3212
11534W        W28381   5.342   0.171   0.726 -0.0281  0.0174 -0.0283
11535W        W28382  11.715  10.803   5.522 -0.1335  0.3947 -0.0047
11536W        W28383  18.084  19.042  12.320  0.0074 -0.1138 -0.1249
11537W        W28384  17.368   0.564  14.819 -0.1231  0.0005 -0.0693
11538W        W28385  10.100  18.167  12.511 -0.0697 -0.0891  0.2380
11539W        W28386  15.429  11.877  10.773  0.0912  0.0935  0.2688
11540W        W28387   9.079   2.270  14.795  0.0999  0.2441  0.1319
11541W        W28388   1.651   0.663  11.150 -0.2077  0.1589  0.0444
11542W        W28389   6.929   2.029  14.417 -0.0728  0.0244 -0.2994
11543W        W28390  17.222   0.942   1.658  0.0753 -0.0869 -0.4533
11544W        W28391  19.246  17.402   4.310 -0.3595 -0.1023 -0.1493
11545W        W28392   4.469   3.798   0.979  0.4054 -0.2662 -0.1452
11546W        W28393  13.795  15.401  13.945 -0.0005  0.3297 -0.0347
11547W        W28394  14.776   7.473  13.628 -0.2005 -0.0447  0.0710
11548W        W28395  14.968   1.715  11.903  0.1790  0.3681 -0.3888
11549W        W28396  13.092  14.018   0.145 -0.2327 -0.2089  0.0471
11550W        W28397  18.641   7.447  14.998  0.2607 -0.2622  0.0040
11551W        W28398   2.320  13.402   0.776  0.1792  0.0929  0.1618
11552W        W28399   4.137   0.724  11.603  0.3041 -0.0306 -0.2861
11553W        W28400   2.095   5.307   5.298 -0.2235 -0.4402  0.4345
11554W        W28401   7.452  19.150   2.503  0.1415  0.1471 -0.0322
11555W        W28402  15.270   6.360  14.826  0.5697 -0.0184  0.0091
11556W        W28403   5.429  19.058   3.508  0.0657 -0.0536  0.2384
11557W        W28404  17.866  10.621   5.373 -0.1701  0.2916  0.1332
11558W        W28405   7.595  11.565   0.413 -0.0196 -0.3109  0.2134
11559W        W28406   8.418  11.088   9.858 -0.0750  0.1051  0.0274
11560W        W28407   0.744   0.927   5.122 -0.0432 -0.1093  0.0948
11561W        W28408   3.924  17.037   3.276  0.0559 -0.0530  0.0728
11562W        W28409   6.407  12.732  11.197 -0.0880  0.1066  0.0215
11563W        W28410  16.180   2.864   5.361  0.1319 -0.0952  0.1218
11564W        W28411  10.278   6.075   1.758  0.0844 -0.0666  0.2617
11565W        W28412  14.069  18.138   4.847  0.0551 -0.0864  0.0807
11566W        W28413   6.845  11.238   2.501  0.0133 -0.2002 -0.2110
11567W        W28414   5.913   5.892  13.075 -0.0468  0.2605  0.0425
11568W        W28415   7.179   6.766   2.929 -0.0846 -0.1218 -0.3362
11569W        W28416  18.444  13.718   2.212 -0.2209  0.0846  0.0483
11570W        W28417   0.449   4.761  14.199  0.0772  0.5173 -0.3178
11571W        W28418  18.291  12.722   4.004 -0.1868  0.1498  0.2712
11572W        W28419   0.570   1.160   1.540 -0.0197  0.2362  0.1447
11573W        W28420  15.958  13.950  11.150  0.0219 -0.1516  0.1080
11574W        W28421   9.782  17.544  13.892 -0.0290  0.0414 -0.0805
11575W        W28422  11.952   3.674  14.632  0.1149  0.0850  0.0091
11576W        W28423  10.012   1.868  14.621  0.5149 -0.1115  0.1283
11577W        W28424  16.139  14.623  10.048  0.1634  0.2612 -0.0693
11578W        W28425   1.052  17.284   0.670 -0.1127 -0.0595  0.2194
11579W        W28426   9.717   6.120  14.894 -0.0140  0.2576 -0.0672
11580W        W28427   9.434   8.154  14.723 -0.0774  0.1166  0.1093
11581W        W28428  18.718   0.886   4.317  0.4093  0.0614  0.0296
11582W        W28429   5.223   0.286  12.869  0.1164  0.0052  0.3313
11583W        W28430   1.913   5.433   2.979 -0.4259 -0.0144 -0.0219
11584W        W28431  14.300  18.560   0.747  0.1827  0.0320 -0.1219
11585W        W28432   3.810   9.098  13.037  0.1779 -0.3981  0.0026
11586W        W28433  18.384  19.092   2.775 -0.1110 -0.0168  0.0626
11587W        W28434  13.582  13.955   3.591  0.0421 -0.5531  0.3395
11588W        W28435  18.836  17.808   3.797 -0.0185 -0.0213  0.0249
11589W        W28436  17.127   6.866   0.363  0.1180  0.2304  0.1042
11590W        W28437  11.732   1.863  11.387 -0.2150 -0.0065 -0.4172
11591W        W28438   5.519   4.052   2.443  0.0700 -0.2262  0.1484
11592W        W28439   2.904  15.225  13.582  0.0795  0.2239 -0.2734
11593W        W28440  12.151   5.909   3.835  0.0497 -0.2009  0.0117
11594W        W28441  13.485  12.641  14.853 -0.1746  0.2792  0.0866
11595W        W28442   8.757  17.632   9.980  0.2371  0.1602  0.0165
11596W        W28443   0.731   6.993  13.079 -0.1856 -0.2966 -0.2594
11597W        W28444   3.044   8.749   4.203  0.1078  0.0244  0.2684
11598W        W28445  15.176  11.620   4.372 -0.0980  0.3120  0.2019
11599W        W28446   5.187   7.536  10.742 -0.1754  0.2010 -0.1893
11600W        W28447   2.085  10.317   3.848 -0.2787  0.0471 -0.3254
11601W        W28448  19.119  16.058   0.121  0.0445 -0.1460 -0.1439
11602W        W28449   1.026  11.095   3.340  0.0830  0.0193  0.0131
11603W        W28450   6.141  19.207  13.878  0.4168 -0.0628 -0.1397
11604W        W28451  10.842  17.850  12.892  0.0510 -0.1104  0.1932
11605W        W28452   9.150  17.899   5.085  0.0434  0.1101  0.1922
11606W        W28453  13.946  17.098  12.834 -0.0397  0.4286 -0.0083
11607W        W28454   5.285  17.022  14.533 -0.0273  0.2075  0.1301
11608W        W28455  18.387   4.437   1.227  0.1577  0.2499  0.0675
11609W        W28456  11.594   9.331   5.352  0.1141  0.2768 -0.0022
11610W        W28457  11.831  15.559   0.000 -0.0813  0.1348 -0.1537
11611W        W28458   7.044  12.501   3.519  0.2963 -0.1617  0.4455
11612W        W28459   8.218  12.946  14.972 -0.1205  0.2660 -0.0998
11613W        W28460   9.688   7.903   1.288  0.2636  0.0587  0.3988
11614W        W28461  13.450   2.239   1.253 -0.2283 -0.4455  0.2255
11615W        W28462  12.686  11.581   3.405 -0.0460  0.0411 -0.2413
11616W        W28463  11.043   6.338  13.921 -0.0296  0.1531  0.3861
11617W        W28464  16.438   7.568   2.722 -0.0286  0.0820  0.0266
11618W        W28465   0.722  11.780  14.716  0.0981  0.2176  0.0098
11619W        W28466  14.618   6.649  14.286  0.0188  0.3770 -0.4014
11620W        W28467   4.465  18.220  12.323  0.0340  0.0972  0.1362
11621W        W28468  10.196  17.492  14.596  0.1042  0.1003  0.0410
11622W        W28469   9.345   9.179   3.276  0.1795  0.0760  0.0794
11623W        W28470  17.357  11.083  10.259  0.0333 -0.3404 -0.2666
11624W        W28471   0.395  15.578  11.488 -0.0021 -0.0827  0.2025
11625W        W28472   5.699   0.501   2.003 -0.1390 -0.1529  0.1267
11626W        W28473  16.175  19.257   3.979  0.2327 -0.2331  0.0658
11627W        W28474  14.950   0.432  13.912  0.2309 -0.2394  0.2387
11628W        W28475   8.712   6.604  10.475  0.0919 -0.1938  0.0839
11629W        W28476  14.814   1.002  10.377  0.2013  0.0048 -0.0666
11630W        W28477   5.932  12.802   4.397  0.1926  0.0790  0.0661
11631W        W28478  13.420   8.174   2.152 -0.0808  0.1204 -0.0152
11632W        W28479   3.258   0.940   1.944 -0.1340 -0.0833 -0.1207
11633W        W28480   0.744  14.185  11.249 -0.0058  0.1981 -0.0218
11634W        W28481   8.789   9.893   0.562 -0.0506  0.0934 -0.0796
11635W        W28482   4.186   0.837  12.150 -0.0981 -0.0330  0.0441
11636W        W28483  13.576  18.764  12.480 -0.1556  0.0265 -0.4249
11637W        W28484  10.296  10.719   1.496 -0.5086  0.2304  0.1257
11638W        W28485   5.939   3.095   2.977 -0.3390 -0.1948 -0.0082
11639W        W28486   8.188   1.170   0.270  0.2963 -0.2424  0.0632
11640W        W28487  18.323   3.821   9.609 -0.1929  0.3112  0.1180
11641W        W28488   1.672   8.416  11.172  0.0189 -0.0603  0.0745
11642W        W28489  15.571  19.274   0.751  0.2460  0.0311 -0.1144
11643W        W28490   6.776   1.983   3.268  0.2200  0.1370 -0.0965
11644W        W28491  15.271   1.939   4.272  0.0924  0.1022 -0.0778
11645W        W28492   7.074  14.232  11.001  0.0708  0.1825  0.2405
11646W        W28493   6.073  13.275  14.969  0.1159 -0.2164 -0.3684
11647W        W28494  18.689   3.162   2.643  0.1283  0.2084 -0.4321
11648W        W28495  11.143  14.874  12.595  0.1022 -0.0486 -0.4433
11649W        W28496  16.056   6.686  14.896 -0.1841  0.1795  0.0169
11650W        W28497  17.754  14.375   5.539  0.0130 -0.2137  0.3873
11651W        W28498  19.000  14.166  11.118 -0.2363  0.0584 -0.3826
11652W        W28499  17.708  17.199  14.591 -0.2460 -0.1547  0.0147
11653W        W28500   5.769  17.989   1.847 -0.1939  0.0893  0.1708
11654W        W28501   5.506   4.462   2.112 -0.0584  0.0380  0.1013
11655W        W28502   0.470   7.226   0.682  0.0004  0.5098  0.0879
11656W        W28503  17.945  18.630   1.821 -0.1739 -0.1693  0.1290
11657W        W28504  18.688  12.192   0.940  0.0823 -0.1361 -0.1216
11658W        W28505   9.952   9.472  13.840  0.0733 -0.0744  0.2545
11659W        W28506  12.789  19.084  10.849  0.4056  0.0901 -0.0730
11660W        W28507  18.613   7.793  13.928 -0.1400  0.0515 -0.0510
11661W        W28508   9.974  12.556  10.820 -0.3840 -0.3385 -0.0590
11662W        W28509  18.190   9.693   2.779  0.1086  0.1334  0.2231
11663W        W28510  10.546  16.621   4.418 -0.0020  0.5749 -0.2439
11664W        W28511  10.643   1.370   0.947  0.1388 -0.0588 -0.1106
11665W        W28512   5.479  10.771   2.782  0.2469 -0.0778  0.0469
11666W        W28513  18.630  13.896  10.664  0.1667 -0.1983 -0.1240
11667W        W28514   3.444  15.248  10.831 -0.2461  0.2186  0.1159
11668W        W28515  10.043  17.028  14.279 -0.0639 -0.1654 -0.1155
11669W        W28516   6.931  10.492  11.038 -0.5648 -0.2549 -0.2568
11670W        W28517   4.163   8.127  11.610  0.0881 -0.2170 -0.0344
11671W        W28518   7.339  16.516  11.318  0.1274 -0.0205 -0.0435
11672W        W28519   9.254   0.828  13.857  0.1103 -0.3138  0.0621
11673W        W28520   7.497   4.827  14.186 -0.0046  0.2344 -0.2155
11674W        W28521   9.708   9.240  12.271 -0.0439  0.0664 -0.2130
11675W        W28522  18.782  15.625   3.557 -0.2838 -0.1481  0.0440
11676W        W28523   5.526  10.090   0.539  0.0058 -0.2117  0.2678
11677W        W28524  18.327  15.254   1.807  0.0107  0.0605  0.3501
11678W        W28525   0.003  18.819   2.929  0.0263 -0.0037  0.0534
11679W        W28526   8.858   1.631   2.757  0.1234  0.2089 -0.1363
11680W        W28527  12.301  17.806   2.036  0.1012 -0.1304 -0.1429
11681W        W28528   8.484  16.479  13.390  0.3891 -0.1388  0.1853
11682W        W28529  11.543  11.248  13.636 -0.2162 -0.2408  0.3410
11683W        W28530  18.032  13.688   3.752 -0.1706 -0.1245 -0.1345
11684W        W28531  18.513   9.932  13.759 -0.3015 -0.0784  0.0029
11685W        W28532  16.146   8.244   1.208 -0.3096  0.2228 -0.3116
11686W        W28533   4.508   8.489  12.026 -0.0435  0.1684  0.4447
11687W        W28534  14.216  13.059   1.974  0.0196 -0.0375  0.2267
11688W        W28535  11.736   7.869   2.432  0.1706 -0.1632 -0.1094
11689W        W28536  13.757   6.842   2.596 -0.0643 -0.0789 -0.2527
11690W        W28537   0.706  13.565  12.055  0.1601 -0.3422  0.0875
11691W        W28538  17.905  11.473   1.079  0.0331  0.0995  0.1585
11692W        W28539   2.967   4.659  15.016 -0.0595 -0.2084 -0.1052
11693W        W28540   9.472   7.370  13.626  0.2932  0.3576  0.2356
11694W        W28541  10.629   3.684  14.951 -0.0666 -0.2414  0.1111
11695W        W28542   7.503  12.127   3.472  0.0354  0.0825  0.0712
11696W        W28543  14.520   9.064  13.681 -0.0887  0.0400  0.3218
11697W        W28544   2.205  18.768  13.424 -0.0576  0.1252 -0.0309
11698W        W28545  17.095   2.979  12.625  0.2421  0.4089  0.0174
11699W        W28546   3.444  16.877  14.364 -0.2905 -0.3222 -0.1014
11700W        W28547  17.037   7.648  14.811 -0.3304  0.1558 -0.1610
11701W        W28548   8.208   2.676  13.513 -0.0379  0.0075  0.0931
11702W        W28549   4.795   7.424   3.763 -0.4034 -0.4345 -0.0567
11703W        W28550   4.759  17.754  14.295 -0.0124  0.0552 -0.3113
11704W        W28551  19.253   4.859   2.692 -0.2885  0.0475 -0.1259
11705W        W28552   6.750   3.516   4.657  0.3930 -0.0431  0.3480
11706W        W28553   7.781  15.405   2.422 -0.2458  0.2521  0.2512
11707W        W28554  11.507  14.840  14.056  0.0291  0.2010 -0.1276
11708W        W28555  17.460   6.443  14.505 -0.1022 -0.2748 -0.3810
11709W        W28556   8.330  17.864  13.325 -0.0625  0.1363 -0.2968
11710W        W28557  15.907  19.049   3.432 -0.2023  0.0949  0.4947
11711W        W28558   6.118   5.207   0.744  0.2352 -0.3624  0.1907
11712W        W28559   6.384  17.092   0.922 -0.2804  0.1992  0.1553
11713W        W28560   5.757  17.702  12.507  0.0352  0.2919  0.1085
11714W        W28561  18.061  12.423  12.794 -0.1393 -0.1982 -0.0551
11715W        W28562   2.752  17.889   0.100 -0.1098 -0.2394 -0.0029
11716W        W28563  16.879  10.202  10.654 -0.0239 -0.0986 -0.0486
11717W        W28564  13.271  18.097   3.579  0.3187  0.1296 -0.0429
11718W        W28565  15.518  14.816   2.870  0.1715 -0.0267  0.3647
11719W        W28566  19.156   4.974  11.850 -0.1104  0.3191 -0.1932
11720W        W28567   5.650  18.813  14.534  0.3771  0.1766 -0.0534
11721W        W28568  16.576   8.858   2.441  0.1944  0.0833 -0.1428
11722W        W28569  18.778  13.000  14.068 -0.0582 -0.2411 -0.4011
11723W        W28570   7.202  10.677   0.648  0.1379  0.0574  0.0444
11724W        W28571  10.583   3.474   0.401 -0.1714  0.0405  0.0007
11725W        W28572  17.535  15.972  14.015  0.0630  0.2292  0.0507
11726W        W28573   2.127  17.938  12.811  0.2747 -0.2499 -0.1832
11727W        W28574   1.170  13.104  14.358  0.1919 -0.2498 -0.3030
11728W        W28575  12.775  18.093  12.576  0.0084 -0.3418 -0.0640
11729W        W28576   9.414  11.576  12.490 -0.2180  0.0295 -0.1069
11730W        W28577   1.796   1.676   4.514 -0.0248 -0.4434 -0.1510
11731W        W28578  18.965  11.924   1.207  0.1061 -0.1087  0.2704
11732W        W28579   5.004   6.926  13.142  0.2091  0.0273 -0.3612
11733W        W28580   8.288  12.223   1.245 -0.1698 -0.1258 -0.0384
11734W        W28581  13.575  12.572  12.338  0.2313  0.2254  0.0494
11735W        W28582   8.657  10.374   1.831 -0.2027 -0.0491  0.1340
11736W        W28583  14.493  15.491   3.306  0.0610  0.0919  0.0077
11737W        W28584  11.230  15.047   4.893 -0.0476  0.1473 -0.1724
11738W        W28585  12.017   6.922  14.703  0.1481  0.1702  0.5357
11739W        W28586   8.710  17.431   2.528 -0.0925 -0.0933  0.1231
11740W        W28587   5.043   9.421   3.608  0.1734  0.2786  0.0676
11741W        W28588   3.884   4.650  14.945  0.2441 -0.0446 -0.0959
11742W        W28589  11.776  14.527   2.823 -0.1449  0.1507  0.0559
11743W        W28590  17.917  10.456  10.750 -0.2829 -0.1043 -0.4015
11744W        W28591  13.040  13.622   4.266 -0.2186 -0.1262  0.2261
11745W        W28592   2.526  16.295   0.882  0.0538 -0.1293  0.0037
11746W        W28593   8.743  17.653   4.807 -0.2426  0.0389  0.0152
11747W        W28594  13.032   0.719   0.302 -0.3624 -0.1585 -0.0924
11748W        W28595  12.657   2.817   0.784 -0.0433  0.4035  0.2053
11749W        W28596   7.268  12.094   3.018 -0.2485 -0.0011 -0.0984
11750W        W28597   3.381   7.333   0.502 -0.0706 -0.1174  0.0531
11751W        W28598  15.607  14.779   3.872  0.2783  0.2718  0.0779
11752W        W28599   3.730   9.197   5.492 -0.1032  0.0463 -0.3074
11753W        W28600  11.430  13.402   1.044 -0.1385  0.0141  0.0193
11754W        W28601   9.088   2.604  12.729  0.1297  0.1445 -0.1471
11755W        W28602  16.466  10.418   2.607  0.0954  0.1088  0.3256
11756W        W28603   2.806  13.633  12.911  0.1183  0.1337  0.1784
11757W        W28604  17.571  12.148   3.585  0.2132 -0.0941  0.2224
11758W        W28605  12.140   8.557   4.828 -0.1950 -0.1415 -0.2173
11759W        W28606  11.908   4.591  10.357  0.2114  0.0178 -0.5080
11760W        W28607  11.603   4.139   0.271 -0.0605 -0.3156  0.4233
11761W        W28608  14.219  13.798  14.559  0.2589  0.0745 -0.0870
11762W        W28609   2.116  17.023  13.263 -0.2994 -0.1149  0.0100
11763W        W28610  14.295  15.448   3.854  0.1075  0.2220 -0.0712
11764W        W28611  12.200  17.621   4.476 -0.1551  0.1944  0.0082
11765W        W28612  10.766  12.049  10.789 -0.0133 -0.4764 -0.1579
11766W        W28613   2.773  15.066   3.835 -0.0885  0.0557 -0.3036
11767W        W28614   9.244   6.504  10.542 -0.1161 -0.0192 -0.0655
11768W        W28615   3.195   5.653  14.473  0.1790 -0.0647 -0.1938
11769W        W28616   6.738   8.588   4.928  0.1142 -0.2702 -0.0938
11770W        W28617  17.540  10.503   3.168 -0.0358 -0.0053 -0.0627
11771W        W28618  15.412   0.082  13.842 -0.1813 -0.0296  0.2505
11772W        W28619  12.895   1.902   2.006  0.1344 -0.0352 -0.3235
11773W        W28620  15.296  13.339   5.074  0.1784  0.2831  0.1609
11774W        W28621   3.559  19.067   1.594  0.0027 -0.0776 -0.2121
11775W        W28622   4.275   7.324   2.048 -0.1112 -0.0520  0.1466
11776W        W28623   0.195   4.707  14.618  0.1135 -0.2212 -0.1497
11777W        W28624  17.881  11.540  13.083  0.0016 -0.4061 -0.4806
11778W        W28625   2.419   3.144   0.548 -0.2942 -0.2479 -0.2207
11779W        W28626   6.709   1.331  12.194  0.1671  0.1067 -0.1526
11780W        W28627   1.852  12.132   1.696  0.1338 -0.0058 -0.0697
11781W        W28628  14.662   2.519   3.991  0.1837 -0.1417  0.1976
11782W        W28629   4.358   5.745  12.850 -0.0284  0.1701 -0.0748
11783W        W28630   3.575   1.418  11.136 -0.0430 -0.1647  0.1409
11784W        W28631   0.567  13.642   1.865  0.2208 -0.2338 -0.0875
11785W        W28632   3.509   7.582   2.554 -0.0464  0.0420  0.0531
11786W        W28633   2.102   9.963   0.908  0.3840  0.0459  0.2685
11787W        W28634  18.077   2.437  12.937  0.0242 -0.2375 -0.4079
11788W        W28635   5.261  13.772  14.012  0.1893  0.2854 -0.0018
11789W        W28636  16.272   4.454   4.026  0.1651  0.0099 -0.0408
11790W        W28637   8.387   0.938   4.025  0.6044  0.4604  0.0331
11791W        W28638   3.942  18.986  12.090 -0.1024 -0.1803 -0.2946
11792W        W28639  16.974  19.015   4.913 -0.2675 -0.0935  0.2822
11793W        W28640  15.345   7.870  14.466 -0.1445 -0.0839  0.2173
11794W        W28641  17.228  18.220   2.134 -0.0991 -0.2499  0.1394
11795W        W28642  10.403   2.659  12.472 -0.1863  0.2408 -0.3770
11796W        W28643  16.690   4.135   0.206  0.1183 -0.0906 -0.0531
11797W        W28644   4.583   0.010   3.127  0.0175  0.0250 -0.0754
11798W        W28645   8.339   7.575  12.975  0.0453 -0.0835  0.1213
11799W        W28646  16.246  13.935  12.639 -0.0221 -0.2997 -0.1025
11800W        W28647  13.461  10.721  12.168 -0.0168 -0.1999 -0.0963
11801W        W28648   4.592   8.050  11.208  0.0617 -0.2916 -0.2349
11802W        W28649   3.216  15.090   4.060 -0.1344 -0.3498  0.3566
11803W        W28650   5.098   9.810  12.894 -0.1193 -0.2298  0.0323
11804W        W28651   0.242  14.260  12.430  0.1572 -0.1468  0.1000
11805W        W28652   7.392   0.222  13.538 -0.1927  0.1095 -0.0193
11806W        W28653  14.322   7.399   3.323  0.0417 -0.0185  0.1556
11807W        W28654   2.994  17.202  14.941 -0.1543  0.0220  0.4328
11808W        W28655  15.892  17.870   0.819  0.1737 -0.0291  0.0755
11809W        W28656  17.905   0.327  11.342  0.0255  0.2534 -0.1510
11810W        W28657  12.276  11.533   3.094 -0.3299 -0.0160 -0.1422
11811W        W28658  13.144  19.235  14.546  0.1707 -0.0904 -0.1874
11812W        W28659  16.051  11.379  10.441  0.1576  0.1905  0.1104
11813W        W28660  17.500   1.587  13.465  0.0944 -0.1939 -0.0273
11814W        W28661  18.233   6.755  12.755 -0.1176 -0.3083 -0.0919
11815W        W28662   3.441   1.366  14.114 -0.1369 -0.1778  0.0834
11816W        W28663  17.192   6.889  11.397 -0.5352 -0.0216 -0.2375
11817W        W28664   3.598   0.131  10.824  0.1126  0.0726 -0.3336
11818W        W28665   0.750   7.468   2.563 -0.0774 -0.1259  0.2530
11819W        W28666  18.839   2.196   3.789 -0.0201 -0.2557 -0.1628
11820W        W28667   5.930   6.157   1.699  0.0180 -0.1295 -0.1129
11821W        W28668  10.955  11.781   3.792  0.2555  0.3128  0.2126
11822W        W28669   0.594   5.702   4.281  0.4612 -0.1897  0.4935
11823W        W28670   5.480   2.977   4.128 -0.1629  0.0699  0.0317
11824W        W28671   4.554  10.616   3.847  0.1374  0.2849 -0.0778
11825W        W28672  13.108  11.812   3.443  0.0294  0.2487  0.1614
11826W        W28673  14.709  16.199  12.248 -0.1309  0.4192 -0.0990
11827W        W28674   3.972   6.901   2.956 -0.0815 -0.1796 -0.2521
11828W        W28675   5.334   6.477  12.577 -0.1731 -0.0418 -0.0322
11829W        W28676   8.288   5.833  14.449 -0.1914 -0.3264 -0.1139
11830W        W28677   1.677  15.571  10.730  0.2845 -0.1522 -0.0086
11831W        W28678  16.398  14.052   3.311  0.0436 -0.2178  0.2058
11832W        W28679   3.019   3.261   5.547  0.0518  0.1042  0.1247
11833W        W28680   6.189  12.572  13.692 -0.1461 -0.3597  0.0264
11834W        W28681   3.883   7.370   3.042  0.1341 -0.0351  0.4511
11835W        W28682  13.282   2.646   0.864 -0.2648  0.1369  0.1883
11836W        W28683  13.880   6.829  10.865 -0.1283 -0.0010 -0.4383
11837W        W28684   0.887   9.221   1.929  0.1333 -0.1804 -0.2341
11838W        W28685  14.059   1.322   2.501  0.0482  0.0021 -0.2107
11839W        W28686   1.173   9.982  12.361  0.0391 -0.0916  0.0030
11840W        W28687  14.972  11.719   1.719  0.0350  0.1060  0.1793
11841W        W28688  10.189  13.734   3.666  0.4799 -0.0567 -0.1770
11842W        W28689   0.093   6.474   5.394 -0.1293 -0.2931  0.1651
11843W        W28690  10.855  13.641   3.640 -0.4498  0.1404 -0.2691
11844W        W28691   4.343  12.884  10.976  0.0913  0.1406  0.2846
11845W        W28692  17.164   0.365  10.189 -0.0334 -0.0946  0.3071
11846W        W28693   9.182   4.211   2.012  0.0400  0.1791 -0.2383
11847W        W28694  18.796  15.492   2.091  0.0098  0.2272 -0.2003
11848W        W28695   1.978   2.414  13.973 -0.4119  0.1294  0.0624
11849W        W28696  17.703   7.945   3.096  0.0570 -0.0818 -0.0635
11850W        W28697  12.213  18.306   0.857  0.0388  0.0250  0.2074
11851W        W28698   3.366  13.511  13.024 -0.1403  0.1198  0.0559
11852W        W28699  16.553  14.980  13.778  0.4418  0.0502  0.1734
11853W        W28700  15.477   0.372  12.028 -0.1181  0.0855 -0.0643
11854W        W28701  12.659   2.952   1.317 -0.1503 -0.1226 -0.0707
11855W        W28702   8.818   4.995   0.881 -0.5535  0.1631  0.0543
11856W        W28703   2.927  17.049   4.745 -0.1277 -0.0932  0.0799
11857W        W28704   6.939   7.186   2.854 -0.2289 -0.1029 -0.0237
11858W        W28705   6.855   5.671   0.265 -0.3023 -0.2654  0.0635
11859W        W28706   6.157  12.286  14.227 -0.0597  0.1017  0.0110
11860W        W28707   8.090   3.645  14.486  0.4532  0.0917  0.2337
11861W        W28708  11.941   6.248   1.208  0.0463  0.0017  0.0234
11862W        W28709   2.065   9.391   0.129 -0.1638 -0.3236 -0.1044
11863W        W28710  19.270  17.029   2.664  0.1505  0.0858 -0.0539
11864W        W28711  14.450  10.402  14.770  0.2089  0.1353 -0.2171
11865W        W28712   2.186   0.515  14.984  0.1752 -0.1647  0.2017
11866W        W28713  15.778   1.138   5.704 -0.0440 -0.0978 -0.2777
11867W        W28714  17.158  11.427  12.451 -0.2486  0.3381 -0.1457
11868W        W28715   4.680   6.498  14.988  0.3834  0.2317  0.4935
11869W        W28716  11.554   3.957   3.173 -0.1692 -0.2745 -0.0679
11870W        W28717   2.745  15.507   9.473  0.0167  0.0414  0.0096
11871W        W28718   0.869   9.056   2.858 -0.1140 -0.1459  0.0516
11872W        W28719  15.356  16.919   1.528 -0.1596  0.0385  0.0939
11873W        W28720  15.011   8.223  13.266 -0.1296  0.2778  0.1826
11874W        W28721   3.732  11.105  14.307  0.0363 -0.1648  0.2201
11875W        W28722   6.129   2.119  14.781 -0.0487  0.0459  0.3228
11876W        W28723   3.770  14.336  11.030  0.1492 -0.2448 -0.1431
11877W        W28724  12.665  14.485   1.528  0.0943 -0.2404  0.2273
11878W        W28725   1.003   9.731  14.108  0.3410 -0.1827 -0.2467
11879W        W28726   6.953  17.892  13.931  0.0021  0.2929  0.1200
11880W        W28727  12.539  15.761   0.488 -0.0475 -0.0135  0.3534
11881W        W28728  14.233   8.546   2.036  0.1735  0.0604 -0.3098
11882W        W28729  14.438  13.009   3.929  0.0500 -0.0879 -0.0693
11883W        W28730  14.151  19.088  13.920  0.2710 -0.0963 -0.2437
11884W        W28731   0.741  10.300   1.284  0.0020 -0.3817  0.0742
11885W        W28732  17.343   3.187   5.050 -0.1671 -0.1668  0.2833
11886W        W28733   3.997  12.025   2.832  0.1302  0.0063  0.0693
11887W        W28734  10.567  19.078   6.131 -0.0823 -0.2799 -0.0816
11888W        W28735  13.329   0.971   4.265  0.0280 -0.1608  0.1350
11889W        W28736  14.680  13.412  13.719 -0.1030  0.0691  0.0411
11890W        W28737  18.339  15.053  13.772 -0.2659  0.4267  0.1812
11891W        W28738   1.982  14.560  12.869  0.4682 -0.0985  0.0227
11892W        W28739   3.727   8.535   2.416  0.0019 -0.2682 -0.1147
11893W        W28740  16.476   6.040  10.693 -0.0171 -0.1580 -0.3262
11894W        W28741   8.195   7.761   1.465 -0.2849 -0.2569 -0.1673
11895W        W28742  17.641   7.051  10.822 -0.0592  0.0020  0.0909
11896W        W28743  14.528   0.165   5.231 -0.1722 -0.1248  0.0016
11897W        W28744  10.470   7.691   5.124 -0.0030 -0.0732  0.1349
11898W        W28745   3.700  18.468  11.927  0.1633 -0.1000 -0.1132
11899W        W28746   4.196  14.902   1.799 -0.1394  0.2435 -0.1552
11900W        W28747   1.837   5.915  11.356  0.0442  0.1940 -0.0749
11901W        W28748   8.549  13.518  12.333  0.1148  0.0576 -0.1052
11902W        W28749   2.423   6.903  13.541  0.3879  0.1278 -0.1801
11903W        W28750  17.577  15.331   0.846  0.0529 -0.2041 -0.1098
11904W        W28751   9.949  15.880   3.028  0.1675  0.0315  0.0681
11905W        W28752  12.805   1.475   5.871  0.2172 -0.1069  0.0544
11906W        W28753  14.582  11.524   3.162  0.0536 -0.1414  0.0516
11907W        W28754   3.331   4.202  14.222  0.1875  0.2556  0.0238
11908W        W28755  10.474   7.506  13.996 -0.0663 -0.1975  0.3004
11909W        W28756  16.904   6.385  14.461 -0.0832 -0.3510  0.1368
11910W        W28757   9.357  16.058  13.289 -0.0062 -0.1284  0.0913
11911W        W28758  18.781   8.871  13.702  0.0223 -0.3386  0.0936
11912W        W28759   0.634   8.282   2.281  0.2145 -0.1349 -0.0477
11913W        W28760   9.120   7.832   0.977  0.2872 -0.2678 -0.1896
11914W        W28761  14.552   7.855   4.208  0.0276  0.2493 -0.0745
11915W        W28762   5.245   0.913  13.777 -0.2655 -0.3462 -0.0082
11916W        W28763   3.699   5.782  11.238  0.3608 -0.4081  0.2873
11917W        W28764  10.783   4.207   2.201  0.2840  0.3417 -0.3717
11918W        W28765  10.508  14.696  13.976 -0.4388  0.0604  0.0563
11919W        W28766  16.828   0.163  12.003  0.1869  0.3475  0.2517
11920W        W28767  11.122  13.838   0.489 -0.2639  0.0764  0.0038
11921W        W28768  18.322  12.001  10.347 -0.0141 -0.0271  0.0922
11922W        W28769  10.901  17.879  11.352  0.3976 -0.1070  0.3136
11923W        W28770   7.954   9.007   2.750 -0.0109 -0.0298 -0.0691
11924W        W28771  18.057   9.223  12.811 -0.2100  0.2313 -0.1904
11925W        W28772  14.564   8.143  11.047  0.3716 -0.0075  0.0784
11926W        W28773  11.968   1.089  11.098  0.0675 -0.6268  0.0715
11927W        W28774  13.771  12.475  14.458 -0.0071 -0.1198  0.0663
11928W        W28775  18.065  16.821   0.037  0.0699 -0.0764  0.3136
11929W        W28776   6.090  14.348   4.765  0.0763  0.1307 -0.2819
11930W        W28777   2.761  15.315   2.153 -0.3471  0.2287 -0.0746
11931W        W28778   5.394   2.378  10.645  0.1190  0.3248 -0.2739
11932W        W28779   2.276  16.210  14.316  0.1154 -0.1855  0.3805
11933W        W28780  15.563   9.044   0.437 -0.1138 -0.2539 -0.0461
11934W        W28781  11.822   6.357   4.199 -0.0389 -0.0747  0.2061
11935W        W28782  12.364   5.541  13.441 -0.0428 -0.5208  0.0746
11936W        W28783   9.903  14.899   4.999  0.4009  0.0489 -0.0679
11937W        W28784  11.442  18.120  12.818  0.1831  0.0355 -0.1395
11938W        W28785   2.517   1.744  11.781 -0.3361  0.1014 -0.0427
11939W        W28786   5.639   6.032   3.699 -0.1284  0.0535  0.2231
11940W        W28787  15.016  19.092   2.085 -0.0675  0.1997 -0.0200
11941W        W28788  17.400  14.717   5.421 -0.0531  0.2501  0.1587
11942W        W28789   2.946   9.870  12.707  0.1658 -0.2451 -0.0821
11943W        W28790   3.530   9.732  11.504  0.1427  0.1506  0.0736
11944W        W28791  16.801  11.247  11.522 -0.1863 -0.1746 -0.0205
11945W        W28792  10.172   3.879   4.033  0.0902 -0.0400  0.0496
11946W        W28793   1.393   6.744   2.378 -0.1884  0.1211 -0.0178
11947W        W28794   7.733  15.810   0.030  0.0373  0.0865  0.0724
11948W        W28795   7.658  16.790   9.808  0.2819 -0.1489  0.0346
11949W        W28796  17.042   0.803   3.301  0.0018  0.0328  0.2069
11950W        W28797   5.743   3.604  14.656 -0.2198 -0.4335  0.1702
11951W        W28798  14.968  12.611   4.368  0.1009 -0.0746 -0.1175
11952W        W28799   2.841  18.247  14.539  0.1951  0.0933  0.0669
11953W        W28800   5.250   4.779   4.525 -0.0292 -0.0651  0.0474
11954W        W28801   0.798   1.932  12.055  0.0333  0.1847  0.4039
11955W        W28802   0.523  11.763   4.987 -0.1108 -0.1933  0.1266
11956W        W28803  13.377  13.701   9.701 -0.2275 -0.2568 -0.2008
11957W        W28804   5.034   1.742   0.444 -0.1114  0.3056 -0.0284
11958W        W28805   2.679   7.935  10.641  0.0158 -0.1408 -0.0152
11959W        W28806  11.863   8.820   3.022 -0.0744 -0.0374  0.0038
11960W        W28807  18.341  11.871  10.938 -0.3496 -0.2149 -0.0298
11961W        W28808  18.156   5.654   5.089 -0.1381  0.1229 -0.0678
11962W        W28809  12.061  11.356   1.504 -0.0876  0.1798  0.0300
11963W        W28810   1.588   5.051   9.347 -0.1190  0.0528 -0.0369
11964W        W28811   4.542   0.006   4.603 -0.0112  0.0064  0.3058
11965W        W28812   6.721  18.017  10.631 -0.4255  0.2213 -0.1904
11966W        W28813   1.913  15.299  13.949 -0.3611  0.2881 -0.3215
11967W        W28814   8.671   9.064   4.832  0.1407 -0.1511 -0.1107
11968W        W28815   2.516   9.697   3.533  0.1496  0.1810  0.0670
11969W        W28816  17.992   7.892   2.718  0.1422  0.1015  0.3219
11970W        W28817   6.706   9.219   4.165  0.0181 -0.1845 -0.3405
11971W        W28818   5.378   0.304  11.378  0.1984  0.1136  0.2531
11972W        W28819  16.622   1.827   5.591  0.1722  0.0735 -0.0421
11973W        W28820  12.345  16.230  11.373  0.2375 -0.2573 -0.1160
11974W        W28821  13.306  12.355   3.005 -0.2071  0.0566  0.2247
11975W        W28822  14.603   8.942   4.020 -0.3522 -0.1288  0.1922
11976W        W28823   2.165   1.740   2.357  0.3297  0.0956  0.1910
11977W        W28824   0.779   1.657  14.122 -0.0778  0.3900 -0.1621
11978W        W28825  16.918  15.465   3.066 -0.2583 -0.0884  0.0739
11979W        W28826  12.264   8.112  10.259  0.0996 -0.0418 -0.1659
11980W        W28827   3.863   8.692   4.117  0.0518  0.1990 -0.0264
11981W        W28828  12.915  10.051   1.653 -0.0324 -0.1433  0.0257
11982W        W28829  17.001   1.318  13.502 -0.2048 -0.3390 -0.2582
11983W        W28830   8.344   6.386   4.302 -0.1223  0.2757 -0.1932
11984W        W28831  12.708   8.135  10.505 -0.1369  0.3939 -0.0138
11985W        W28832   4.227  11.609  10.551 -0.1169 -0.0939  0.0990
11986W        W28833   3.650  13.251   4.737  0.1545  0.1934  0.0158
11987W        W28834   7.249   7.524   3.029 -0.0224  0.1096 -0.1278
11988W        W28835  15.772   5.957   1.560  0.2952  0.3908  0.1254
11989W        W28836  18.314   0.543   2.833  0.0642 -0.3795 -0.1175
11990W        W28837  16.059   7.913   9.319 -0.2302  0.0188 -0.1769
11991W        W28838   8.521  16.152   1.326  0.2642 -0.2066 -0.0630
11992W        W28839   1.635  12.766   5.306 -0.1483 -0.0547 -0.3122
11993W        W28840   5.201  12.830  14.305 -0.0957  0.2652  0.1120
11994W        W28841  13.855   8.222   9.969  0.2595  0.0469  0.1052
11995W        W28842  10.543  18.191  12.794 -0.2255 -0.1889  0.3622
11996W        W28843  14.764   4.748   2.925  0.0651  0.0719  0.1930
11997W        W28844   5.142  13.838   3.799 -0.0095 -0.1486 -0.0443
11998W        W28845  17.276  14.247   0.186  0.0441 -0.0163  0.0085
11999W        W28846   6.247  14.839  11.344  0.0094 -0.2488  0.4927
12000W        W28847   0.819  18.885  11.026 -0.0388  0.0855  0.3064
12001W        W28848   3.669  18.666   0.848  0.0947  0.2130  0.5757
12002W        W28849  11.546  12.120  10.180 -0.0993 -0.5253 -0.0412
12003W        W28850   3.358  10.585  11.859 -0.0309 -0.0264 -0.2108
12004W        W28851  16.170   6.338   2.682  0.2672 -0.0379 -0.1600
12005W        W28852  13.905  15.696   1.302 -0.1239  0.3369  0.0286
12006W        W28853  12.004  12.352   4.403 -0.2320 -0.2990  0.1572
12007W        W28854   9.313   4.148  11.880 -0.4413  0.4682 -0.0733
12008W        W28855  17.568  10.272   5.092 -0.1582 -0.1066 -0.3876
12009W        W28856  14.071   6.549  11.261 -0.0552 -0.0696  0.0818
12010W        W28857   8.786   2.092  12.760 -0.1785 -0.2174 -0.0235
12011W        W28858  18.012  11.290  11.294 -0.0053  0.0466  0.0223
12012W        W28859  13.507  10.961  13.431  0.0728 -0.2591 -0.0133
12013W        W28860   5.094  17.454  11.269 -0.1936  0.0286  0.0652
12014W        W28861   9.276  17.796   4.534  0.0929  0.0559  0.4056
12015W        W28862  15.724   7.253   2.317 -0.3434  0.2406  0.0817
12016W        W28863   7.190  14.519  11.480 -0.3373  0.2003  0.1874
12017W        W28864   0.686   2.723  11.633 -0.0922 -0.0463  0.1052
12018W        W28865  19.278  12.947  11.296  0.0674  0.4767  0.1128
12019W        W28866   1.808  16.392   2.030 -0.0079 -0.0865 -0.1196
12020W        W28867   6.822  13.167  13.846 -0.1194  0.0679 -0.1619
12021W        W28868  18.468  14.665  14.694  0.2265  0.1369  0.2302
12022W        W28869  16.804   9.898  13.722  0.1608  0.3591  0.2274
12023W        W28870  13.433  17.629   1.386  0.0386  0.3879 -0.2569
12024W        W28871   7.355   9.916  10.274 -0.0666  0.0355  0.1955
12025W        W28872   8.526  12.243   0.819  0.1251  0.1132  0.0580
12026W        W28873   9.820   4.812  10.275 -0.0029 -0.4555  0.2099
12027W        W28874   6.980  13.639  14.688 -0.4732 -0.0973 -0.0881
12028W        W28875  18.483  19.279   5.209  0.2573 -0.0632  0.1550
12029W        W28876   0.872   8.574   0.475  0.0068  0.1295  0.1111
12030W        W28877  18.639  14.085  13.036 -0.0819  0.1225  0.3683
12031W        W28878   9.702  10.436   2.443  0.2475 -0.1643  0.0860
12032W        W28879  10.806  17.441   4.471 -0.3191  0.1771 -0.0108
12033W        W28880  15.203   4.950   2.144  0.2144  0.0299  0.0544
12034W        W28881  11.560  10.310   0.828  0.1355 -0.2654 -0.2468
12035W        W28882  18.663   1.770   4.870 -0.1548  0.1453  0.2042
12036W        W28883   3.739   9.197  11.471  0.0311 -0.4142 -0.0063
12037W        W28884  17.446  13.084   3.230 -0.3354 -0.0385 -0.1251
12038W        W28885   8.229  13.484  10.734  0.2041 -0.7594  0.0482
12039W        W28886   3.218  11.162   0.189 -0.1430 -0.0841 -0.1930
12040W        W28887  10.457  16.316  12.199  0.0928  0.0114  0.2863
12041W        W28888  14.364  18.941  12.445 -0.1591 -0.1114 -0.1828
12042W        W28889   2.083  17.177   2.974 -0.0702  0.0204  0.0723
12043W        W28890  10.198  18.439   1.837  0.1465 -0.3587 -0.1414
12044W        W28891  11.890  18.908  11.259  0.1615  0.0825 -0.1852
12045W        W28892   9.426   5.786   4.221 -0.0158  0.1681 -0.0969
12046W        W28893   7.019  12.100   2.545 -0.3962 -0.0506  0.1787
12047W        W28894  15.886   3.474  14.520 -0.2797  0.1757  0.0513
12048W        W28895  17.883   2.235  14.900  0.2949  0.1991 -0.0083
12049W        W28896  16.091  15.327  12.787 -0.0005 -0.2136  0.0097
12050W        W28897  16.996  19.163   2.896  0.3696  0.2293 -0.1671
12051W        W28898  12.198   4.933  11.378 -0.0895 -0.1071 -0.2591
12052W        W28899   2.684   9.453   1.953  0.1003 -0.0813 -0.0397
12053W        W28900  16.092   2.705   2.883 -0.1165 -0.0951  0.1464
12054W        W28901  11.311  13.429  13.171 -0.0440 -0.0132  0.2088
12055W        W28902   8.043   8.574  14.432  0.0525 -0.1081  0.4071
12056W        W28903   6.662  13.338   2.983 -0.0650  0.0576  0.3301
12057W        W28904   9.820   2.437   4.128 -0.2077 -0.3011  0.0679
12058W        W28905   7.902   7.308  13.136  0.1637  0.0641  0.1720
12059W        W28906  18.044  13.374   2.291  0.1663  0.0700  0.0600
12060W        W28907  17.230  16.332   4.242 -0.1402  0.0255  0.1857
12061W        W28908  10.169  18.386   3.001 -0.1143  0.1041 -0.4181
12062W        W28909   1.370   9.243   4.058  0.0055 -0.1789  0.0720
12063W        W28910   8.075  10.986  13.663  0.1977  0.0528 -0.0709
12064W        W28911  12.889   7.102   0.979  0.0869 -0.0770 -0.0020
12065W        W28912   1.731  14.174  11.453 -0.1355 -0.0647 -0.0329
12066W        W28913  15.064   1.884  14.923 -0.4405  0.0371 -0.2135
12067W        W28914  12.297  18.332  13.511  0.1853  0.4200  0.2125
12068W        W28915  10.149  17.471   4.470 -0.1533 -0.2277  0.1006
12069W        W28916   3.560   7.375  15.013  0.0372  0.0368 -0.1516
12070W        W28917  13.373   7.061  12.871  0.0540 -0.1367  0.0357
12071W        W28918  12.172  16.943   3.282 -0.1085  0.1500 -0.1656
12072W        W28919  15.287   4.381  13.432  0.0749  0.0085 -0.0806
12073W        W28920   6.387  18.562   3.485 -0.1045  0.2837 -0.0410
12074W        W28921   0.010  18.526  11.883  0.0350  0.1538 -0.3230
12075W        W28922   1.538  12.915  11.069 -0.0558 -0.1186  0.1979
12076W        W28923  14.314   7.214  12.309 -0.1177 -0.4937  0.0290
12077W        W28924  10.711   5.025   2.407  0.1913 -0.1125 -0.0030
12078W        W28925  10.537  15.559  11.449 -0.0728  0.0620 -0.1454
12079W        W28926   4.908  12.121   4.079  0.1074  0.2037 -0.3836
12080W        W28927   4.918  16.821  14.874 -0.0678 -0.0697 -0.0746
12081W        W28928   4.306   2.385   3.433 -0.0499 -0.0736 -0.0745
12082W        W28929  10.361  10.596  13.226  0.2493  0.0995 -0.3099
12083W        W28930   0.635  13.189   4.022  0.3113 -0.0074  0.2173
12084W        W28931   8.527  12.284   2.073 -0.1155  0.1383 -0.3008
12085W        W28932   4.721   0.781   2.255 -0.0649  0.2258  0.5007
12086W        W28933  19.162  11.087  11.928  0.1040  0.0468  0.2479
12087W        W28934  11.064   2.689  11.352 -0.1404  0.2631  0.0690
12088W        W28935  15.280   8.050   0.262  0.1444 -0.2703  0.4033
12089W        W28936   2.322  13.476  11.061 -0.0812  0.3220 -0.1453
12090W        W28937   7.481  18.202  12.823  0.0172 -0.2940  0.1486
12091W        W28938   6.784  15.169  12.282  0.1755 -0.1645 -0.1273
12092W        W28939   4.782  11.580  10.668  0.0435  0.1958 -0.2055
12093W        W28940   8.860  18.003  14.437 -0.0701 -0.3155 -0.0499
12094W        W28941  11.176  11.610   5.131 -0.4045  0.2991  0.1596
12095W        W28942  12.438   6.094  13.533  0.1626 -0.0844  0.3172
12096W        W28943  17.743  10.917  11.757 -0.0601 -0.2071 -0.0083
12097W        W28944   0.317   4.500   0.089  0.2110 -0.0173  0.0274
12098W        W28945   1.562   6.210  11.650 -0.0645 -0.3214  0.1821
12099W        W28946   9.223   8.183  12.918  0.0511  0.0691  0.0335
12100W        W28947   3.944   8.554  10.438  0.2010  0.0644  0.1508
12101W        W28948   0.593   4.356   3.739 -0.2087 -0.0910  0.1237
12102W        W28949  12.189   7.786   0.728 -0.0864 -0.0942  0.1348
12103W        W28950  10.164  18.077  13.967 -0.1624 -0.4395  0.1669
12104W        W28951  11.490   3.570   1.611  0.0073  0.0244  0.2928
12105W        W28952   9.924   3.793   2.740  0.0487 -0.1194 -0.0935
12106W        W28953   0.820   0.220   1.110  0.3516  0.2204 -0.4531
12107W        W28954  16.999  16.874   0.390 -0.0921  0.1977 -0.3226
12108W        W28955   4.160   2.003   5.660  0.3590  0.1278  0.1986
12109W        W28956  11.891  13.291   2.831  0.0479  0.2325 -0.0396
12110W        W28957   3.095   6.177   0.875 -0.0491  0.2302 -0.1409
12111W        W28958   5.454   3.192  14.655 -0.1770  0.1664  0.0788
12112W        W28959  13.896   7.510  11.571 -0.2214 -0.1489  0.0797
12113W        W28960   9.513   6.072  14.177  0.1930 -0.0311  0.2637
12114W        W28961  16.343   7.619   4.056  0.0161  0.3926 -0.0388
12115W        W28962   1.012   8.896  12.301  0.0511 -0.1221  0.1920
12116W        W28963  18.963   9.047   1.335 -0.1577 -0.0072  0.0519
12117W        W28964   8.431  15.220  14.707 -0.0217 -0.7187  0.2762
12118W        W28965   5.554   1.029   1.088 -0.1179  0.0282  0.0556
12119W        W28966   7.208  15.005  11.445  0.2182 -0.0033  0.1162
12120W        W28967   3.410  10.344   3.511  0.2230 -0.0786 -0.1408
12121W        W28968  13.163   9.216   1.602  0.2178 -0.2021  0.1720
12122W        W28969  13.716  18.218  12.656  0.4587 -0.3782  0.2617
12123W        W28970  10.354   8.389  11.711 -0.0822  0.0345 -0.0474
12124W        W28971   6.876   8.276   3.658  0.2483 -0.0545  0.2244
12125W        W28972  16.693  12.235  12.221  0.1123 -0.1303 -0.2368
12126W        W28973  18.882   7.620   5.156 -0.2293  0.0656  0.1100
12127W        W28974   1.922   0.295  13.692  0.1308 -0.0340 -0.1142
12128W        W28975   2.893  18.645  11.776  0.0805 -0.0496 -0.1550
12129W        W28976  15.679   6.102   0.936  0.0050  0.1313 -0.0645
12130W        W28977   3.883   2.579   2.877 -0.3688 -0.1393  0.3186
12131W        W28978   0.502   1.511   0.822 -0.0646  0.3235 -0.1156
12132W        W28979  12.979   5.485   2.689  0.0847 -0.0161 -0.1730
12133W        W28980  17.912   7.614   2.197 -0.3196 -0.1751  0.0637
12134W        W28981   5.611  10.837  11.314  0.0420  0.3314  0.0713
12135W        W28982  19.060   4.770   4.837  0.1337 -0.1955 -0.1899
12136W        W28983  18.898  17.989   0.218  0.0221  0.1634 -0.0427
12137W        W28984  18.078   3.175  13.435 -0.0189 -0.2351  0.1798
12138W        W28985   5.859   2.313  13.176  0.3383 -0.0627  0.2241
12139W        W28986   5.882   7.624   2.135  0.1030 -0.1399  0.2262
12140W        W28987  17.591  11.283   3.262  0.1511  0.0645 -0.1784
12141W        W28988   8.306   8.921  13.470  0.3081  0.0902 -0.3602
12142W        W28989   8.548   6.129   4.711 -0.0346  0.0205 -0.2337
12143W        W28990  17.569  18.073  13.643  0.0870 -0.0063 -0.2851
12144W        W28991   5.379   3.329   2.901 -0.5171 -0.1308  0.1854
12145W        W28992   0.158  10.988   3.604  0.1417  0.1609  0.0988
12146W        W28993  16.836   2.119  11.597 -0.0477 -0.0982  0.0612
12147W        W28994  11.308  10.985  14.708  0.0497 -0.1096 -0.0687
12148W        W28995  18.780   6.598   4.128 -0.4015  0.2906  0.2976
12149W        W28996   1.414   4.863   1.814  0.1400  0.0040  0.1556
12150W        W28997  10.080   3.188   3.380  0.1047  0.5046 -0.1595
12151W        W28998   5.626  12.411  14.243 -0.2293  0.1242  0.1491
12152W        W28999   7.880   7.322  12.256  0.4612  0.1003 -0.2899
12153W        W29000  15.018  14.355  14.507 -0.1474  0.1872 -0.0198
12154W        W29001  16.343  18.354   4.422 -0.2744 -0.1420  0.0077
12155W        W29002   7.831  18.682   3.160 -0.2409 -0.3855 -0.1858
12156W        W29003   1.651  12.924  12.827 -0.2878  0.0860 -0.1125
12157W        W29004  11.095  15.015  14.791 -0.0164  0.0226 -0.1049
12158W        W29005  18.887   6.966  13.999 -0.0631 -0.0450  0.1047
12159W        W29006  10.900   8.335   0.157  0.2226 -0.3170 -0.2300
12160W        W29007  17.132  13.644  11.109 -0.0198 -0.1519  0.3445
12161W        W29008   9.002   0.908  10.884 -0.1071 -0.4920 -0.0317
12162W        W29009   6.005  15.211  14.713 -0.0933  0.1876  0.1652
12163W        W29010   1.203   8.268   4.673  0.3157  0.5829 -0.0252
12164W        W29011   7.983  14.146   0.437  0.1636 -0.0299 -0.0014
12165W        W29012  17.044  13.555   1.306  0.3152  0.2521  0.1039
12166W        W29013  16.141  11.618  13.818  0.0315  0.2063  0.1989
12167W        W29014  13.858   7.059   4.737  0.4599  0.2097  0.0229
12168W        W29015  12.569   2.253  12.374  0.2692 -0.1718  0.1718
12169W        W29016  12.205   4.372  14.042  0.1363 -0.0336 -0.1284
12170W        W29017  17.919   6.519  13.043 -0.1007  0.3851  0.1974
12171W        W29018  16.710   1.669   4.782  0.1378  0.1798 -0.0342
12172W        W29019   2.398   4.253   4.117  0.3414 -0.0125 -0.1264
12173W        W29020  16.352  13.433  15.020  0.0716  0.3859  0.1380
12174W        W29021  10.617   8.599  10.356  0.0705  0.1168  0.1706
12175W        W29022   0.115  18.484   5.169 -0.0197 -0.1112 -0.1914
12176W        W29023   0.809   8.207   4.004  0.1258 -0.0190  0.1579
12177W        W29024   3.318   3.972  12.220 -0.0803 -0.0222  0.2255
12178W        W29025   2.633  11.256  10.445 -0.1396  0.1608  0.1368
12179W        W29026   6.930  11.456   0.788 -0.0920 -0.3092  0.1440
12180W        W29027  15.290  14.648  11.944 -0.0074 -0.2532  0.2728
12181W        W29028  11.519   5.545   3.251  0.2343 -0.1201 -0.1573
12182W        W29029  16.252   3.008  13.925 -0.2328  0.0021 -0.0080
12183W        W29030   3.848   8.238  11.225 -0.2932 -0.0999  0.0952
12184W        W29031   7.962   3.254   0.282  0.0253 -0.3754 -0.2451
12185W        W29032  18.363   4.152   4.403 -0.0456 -0.3716 -0.1539
12186W        W29033   9.268   4.906   1.191  0.0857 -0.0044  0.0530
12187W        W29034  10.784  13.906   4.466  0.2603 -0.0066  0.1276
12188W        W29035  17.834  15.689  12.156  0.1295  0.3559 -0.1542
12189W        W29036  11.583   7.377  12.199 -0.0459 -0.1791 -0.2650
12190W        W29037   1.379  13.665   4.302 -0.0139  0.1540 -0.1490
12191W        W29038   2.526  17.898   1.462  0.2916  0.4744  0.2629
12192W        W29039  10.405   9.897   1.422  0.1474  0.0063 -0.1524
12193W        W29040  11.245   6.728   3.708  0.2596 -0.3926 -0.0100
12194W        W29041  15.075   4.853   1.329  0.2879  0.0932  0.1616
12195W        W29042  17.605  13.347  11.306  0.0709 -0.2491 -0.3806
12196W        W29043   6.022  10.020   4.523 -0.1285 -0.2365 -0.1576
12197W        W29044  10.087   6.219   0.370  0.2692 -0.5090  0.0440
12198W        W29045   3.076  18.151  12.771 -0.1061 -0.1175 -0.0321
12199W        W29046  14.328  13.997  10.976 -0.0447  0.0857 -0.0441
12200W        W29047   2.975   2.315  10.222  0.0844  0.0569  0.2819
12201W        W29048   3.624  13.168   4.083  0.5494 -0.0760 -0.1038
12202W        W29049   7.301   6.040  14.705  0.1414  0.1681 -0.0083
12203W        W29050  14.628  11.250  10.455 -0.0776 -0.1469 -0.1535
12204W        W29051  11.452  16.288   4.322  0.0716  0.0600  0.0562
12205W        W29052   4.951  15.194   4.279 -0.0656 -0.0345  0.4622
12206W        W29053  16.685  13.015   4.815  0.3438 -0.1743  0.0161
12207W        W29054   2.942  16.018  11.477  0.1358 -0.0847  0.3010
12208W        W29055  11.171  10.693  14.271  0.0423 -0.3363 -0.0598
12209W        W29056  19.032   5.376  10.301  0.2807  0.0589  0.5892
12210W        W29057   8.487   8.546  12.165  0.0574  0.4744  0.0731
12211W        W29058  11.639   2.011  13.998 -0.4416 -0.1499  0.4369
12212W        W29059   0.257  16.815   3.005 -0.0048  0.0777 -0.2251
12213W        W29060   4.748  11.813   3.651 -0.1027  0.0322 -0.0889
12214W        W29061  11.861  16.429  14.516  0.3911 -0.0926 -0.1176
12215W        W29062  16.317   2.386   0.542 -0.2054  0.4841  0.2383
12216W        W29063  15.901   9.074  14.833  0.0421 -0.2205 -0.1033
12217W        W29064  16.389   1.052   1.144 -0.0152  0.0973  0.0179
12218W        W29065  17.669  12.532  11.548 -0.1134 -0.2995  0.0140
12219W        W29066   0.275   8.372   1.729  0.0581 -0.2435 -0.1158
12220W        W29067   8.258  17.158   3.127  0.1686 -0.4181 -0.1485
12221W        W29068   3.314   3.939   0.065  0.4387 -0.1543 -0.0071
12222W        W29069  11.302  13.627  10.229  0.2200  0.0276 -0.1834
12223W        W29070  15.419   4.970  12.116  0.2019 -0.0296 -0.3762
12224W        W29071   7.266   8.863  14.266  0.0974  0.2442 -0.0658
12225W        W29072   0.791   5.871   3.844  0.2396 -0.0358 -0.1548
12226W        W29073   7.128  18.025  12.491  0.1418 -0.1898 -0.0461
12227W        W29074   8.900  16.732   4.048 -0.2206 -0.1343  0.3494
12228W        W29075  17.693  16.678  13.451  0.1085  0.1236  0.0093
12229W        W29076   5.976  17.195   1.175 -0.2846  0.0107  0.1632
12230W        W29077   5.424   4.229  11.256 -0.0347  0.0094  0.1998
12231W        W29078  10.709  15.194  10.457 -0.1046  0.2446 -0.3128
12232W        W29079  19.052   8.746   9.764  0.0414 -0.3326  0.1140
12233W        W29080  17.422  16.665  12.285  0.1673  0.0325  0.0128
12234W        W29081  12.992   0.996   1.094  0.0411 -0.0190  0.2044
12235W        W29082  17.513   1.050  11.724  0.1152  0.1447 -0.0862
12236W        W29083   7.953  13.252   1.342  0.1068 -0.1445  0.0608
12237W        W29084   8.040   5.296   3.425 -0.0521 -0.0062  0.0245
12238W        W29085  17.330   3.135   2.181 -0.3655 -0.0680 -0.0463
12239W        W29086   4.821  11.516   3.055  0.3260  0.0843 -0.2785
12240W        W29087  16.877   2.818   5.133  0.0995 -0.1680  0.0014
12241W        W29088   4.281  12.843   0.270 -0.0150  0.0175  0.4334
12242W        W29089  18.354   8.503  11.093  0.0358  0.0466 -0.0499
12243W        W29090   6.946  11.331  14.077  0.2787  0.0460  0.2944
12244W        W29091   5.921   1.942   2.307  0.0562 -0.0241 -0.1791
12245W        W29092  12.355  16.567  12.188  0.1075 -0.2955  0.0470
12246W        W29093  18.385  11.677   1.164 -0.3728 -0.2658  0.0084
12247W        W29094  16.432  11.148  11.123  0.0418 -0.0363 -0.0379
12248W        W29095  16.751  10.397  13.637 -0.2706  0.2116  0.0434
12249W        W29096  10.876  10.712  11.773 -0.2877 -0.1676  0.1496
12250W        W29097   1.632  13.393  10.132 -0.1364 -0.1062  0.3750
12251W        W29098   3.195  18.298  12.001  0.1379 -0.0538  0.3453
12252W        W29099  12.555   8.813  14.512  0.2766  0.1066 -0.1068
12253W        W29100   2.643  10.851   1.528  0.1156 -0.1169  0.0099
12254W        W29101   8.536  11.512  10.644 -0.3141 -0.0175 -0.1127
12255W        W29102  17.555   9.264   1.555  0.2533 -0.1890  0.3696
12256W        W29103  14.010  19.233  13.440  0.1541 -0.1833  0.1577
12257W        W29104   8.758  11.821  11.317 -0.0082  0.0599  0.1073
12258W        W29105  19.048  14.703  13.475 -0.1011  0.1396 -0.0226
12259W        W29106   6.942  16.249   4.826  0.3105 -0.1932  0.0685
12260W        W29107  14.199  16.419  11.471 -0.4040  0.1512  0.3057
12261W        W29108   0.079   7.002  13.967 -0.1186  0.0556 -0.2666
12262W        W29109  15.925   9.184  12.408 -0.0487  0.0144 -0.1220
12263W        W29110  10.572   4.610   1.454 -0.2707  0.0478  0.3709
12264W        W29111  11.644  14.234   2.383 -0.3260  0.1551 -0.0173
12265W        W29112  10.222  15.175   5.736  0.1051 -0.1138  0.0947
12266W        W29113  18.536   3.774  14.034  0.0346  0.1019  0.2169
12267W        W29114  12.859  15.153  14.875  0.0965  0.2031  0.0134
12268W        W29115  13.176   6.969   1.368  0.5014 -0.1033  0.0622
12269W        W29116  10.261  17.829   0.591  0.1978 -0.2532  0.2265
12270W        W29117   5.001   3.797   3.363 -0.0150  0.0141 -0.0788
12271W        W29118  15.761   7.792   4.594 -0.0050 -0.3920 -0.1165
12272W        W29119   6.292   4.889   0.159 -0.2725  0.1442 -0.2011
12273W        W29120   4.856   8.537   3.122  0.1250  0.0810  0.2680
12274W        W29121   3.421   9.954  10.609  0.0437  0.0644 -0.3319
12275W        W29122  11.588   0.600  12.916  0.0416  0.5422 -0.3586
12276W        W29123   3.421   1.836   4.502 -0.0327 -0.0846  0.1867
12277W        W29124   6.756   9.635  10.811  0.0117 -0.1892  0.1519
12278W        W29125   0.151   8.725   5.179 -0.0972  0.0618 -0.1700
12279W        W29126  18.274   8.226  13.246 -0.3324  0.1073 -0.1622
12280W        W29127   8.956  18.463   3.938 -0.1042 -0.0696  0.4623
12281W        W29128   0.757   3.401   0.431 -0.0612 -0.1361 -0.0263
12282W        W29129   2.963   0.874  13.521  0.1227 -0.0837  0.2092
12283W        W29130  10.900  18.859  10.426  0.1850  0.2683 -0.0892
12284W        W29131  19.124   4.255  13.653  0.1201  0.1329 -0.3402
12285W        W29132   0.332  13.145   9.612 -0.1088 -0.0069 -0.1112
12286W        W29133  12.075   9.467   5.357 -0.0751 -0.0706 -0.0401
12287W        W29134  13.361   5.391   4.854  0.3224 -0.0404 -0.2448
12288W        W29135  11.873  12.548   1.097  0.1999 -0.1844  0.0765
12289W        W29136   0.599   6.429  10.402 -0.1551 -0.0896 -0.2670
12290W        W29137   0.369   1.193   3.725  0.4030 -0.0146 -0.1256
12291W        W29138   3.846   8.539   0.396  0.0128 -0.3712  0.3816
12292W        W29139  11.893   8.389   1.130  0.0805  0.2483  0.1801
12293W        W29140  17.293  12.578   1.119  0.0869  0.2899  0.5004
12294W        W29141  14.207   5.740  12.518 -0.1414 -0.6324  0.2446
12295W        W29142  11.780  11.068   0.006  0.0162  0.1403  0.0183
12296W        W29143   8.674   6.779   3.125  0.0781 -0.1106  0.0581
12297W        W29144   4.451  11.380  14.675  0.0706  0.1601 -0.1664
12298W        W29145   9.442   9.785  14.190 -0.2081  0.2793 -0.1998
12299W        W29146  10.877  14.412   0.380  0.3787  0.0300  0.0782
12300W        W29147   7.764   6.663   4.307  0.1744  0.3855  0.0600
12301W        W29148  10.808  18.135  14.645  0.0154  0.0250  0.4265
12302W        W29149  14.801   7.171  11.385  0.1712  0.3689  0.0277
12303W        W29150  11.154  14.086   2.364  0.0371 -0.1881 -0.1021
12304W        W29151  11.184   9.146  11.825  0.2518 -0.0496  0.1553
12305W        W29152  18.986  14.217  12.674 -0.3011 -0.0716 -0.0629
12306W        W29153   5.982   7.512   2.609  0.1612  0.0058 -0.2792
12307W        W29154  11.432  14.476  11.932  0.0931  0.1619 -0.1219
12308W        W29155  15.565   8.701  14.361 -0.0835 -0.0685  0.2231
12309W        W29156  19.063  16.983   4.801 -0.2192 -0.0173  0.0689
12310W        W29157   1.608  17.325   1.958 -0.3225 -0.1294  0.1713
12311W        W29158   1.075  16.247  14.220  0.0611  0.0134  0.3515
12312W        W29159  10.888  16.177  14.176 -0.0849  0.0263 -0.1931
12313W        W29160   8.026  13.361  13.841  0.2902  0.0655 -0.0607
12314W        W29161   8.172  12.959  13.139  0.1167 -0.1163  0.1443
12315W        W29162   9.477  16.138   5.152 -0.4666  0.2544  0.1195
12316W        W29163   5.665  18.821   1.725 -0.1076  0.2681 -0.2099
12317W        W29164   4.095   6.520  13.744  0.0852  0.3012 -0.1998
12318W        W29165   8.938   9.339  11.991 -0.0905  0.0045  0.1623
12319W        W29166  13.156   5.010  11.640  0.1157  0.1911 -0.2151
12320W        W29167   3.049  11.202  10.002  0.0091 -0.1014  0.4820
12321W        W29168   7.448   2.481  12.628  0.2241 -0.2164  0.0083
12322W        W29169  17.279  11.501   3.895  0.1774 -0.1258  0.2323
12323W        W29170  17.428   3.035  11.253 -0.2969 -0.2363 -0.1066
12324W        W29171  18.415   1.898   1.067  0.1661  0.0324 -0.0459
12325W        W29172   2.912   3.720  12.132 -0.2235 -0.1873  0.2632
12326W        W29173   9.531  13.319   0.677 -0.2545  0.0013 -0.2758
12327W        W29174   1.714  13.554   1.069 -0.1763  0.1691 -0.0767
12328W        W29175   4.226  15.504   2.350 -0.2819  0.0604  0.2705
12329W        W29176  16.211   9.964   4.594  0.1211 -0.2427  0.1039
12330W        W29177   8.640   9.773  10.363  0.1709 -0.0049  0.1513
12331W        W29178   5.211  13.814   1.419  0.0189  0.1464 -0.2499
12332W        W29179  16.801   4.472  13.533  0.5617  0.2193  0.4486
12333W        W29180   4.742  17.114  14.122 -0.1090  0.0722  0.2867
12334W        W29181  10.761   0.825  13.473 -0.0694 -0.0837 -0.1500
12335W        W29182   1.414  12.599   4.599 -0.0929 -0.1796 -0.1031
12336W        W29183  12.837  12.669  10.094 -0.2055  0.1671  0.3054
12337W        W29184  10.546  14.257  13.084  0.1724 -0.4129  0.0861
12338W        W29185  17.295   2.915  13.187 -0.1976  0.1272  0.0034
12339W        W29186  16.296   2.110   2.853 -0.1621  0.0519 -0.1874
12340W        W29187   5.236   2.793  13.772 -0.2027  0.4402 -0.4145
12341W        W29188   4.862   0.107   1.563 -0.0851 -0.3455 -0.2211
12342W        W29189  18.622   8.780   4.634 -0.4202  0.3195 -0.1766
12343W        W29190  16.898  19.073   3.402 -0.0094 -0.3289 -0.0187
12344W        W29191   6.760  10.846   0.863 -0.0305  0.0129 -0.0229
12345W        W29192  13.584   1.746  13.876 -0.2275 -0.2780 -0.3601
12346W        W29193   4.540   9.478   1.845  0.1569  0.1855 -0.1541
12347W        W29194  10.913   3.255  13.602 -0.1033  0.1060  0.2258
12348W        W29195  14.341   1.272  11.284  0.2692  0.1158 -0.2008
12349W        W29196   7.192  11.082  14.595 -0.0805  0.0861  0.1241
12350W        W29197   0.821  15.514   3.287 -0.2566  0.0261 -0.0397
12351W        W29198   1.609  14.810   0.592  0.2203 -0.1569 -0.0083
12352W        W29199   7.824  18.674  11.492 -0.3386  0.1132  0.0827
12353W        W29200  12.225  17.398  14.189  0.1567 -0.0794 -0.2656
12354W        W29201   2.498  17.871  11.504 -0.0721  0.6038 -0.1523
12355W        W29202  14.906   9.378  11.536 -0.1763  0.1251 -0.0964
12356W        W29203   5.135   6.574  14.465 -0.0418  0.0065  0.0365
12357W        W29204  12.452   7.251   2.804  0.2930 -0.1335 -0.1081
12358W        W29205   2.746  13.985   2.476  0.0833  0.1492 -0.1021
12359W        W29206   1.983   3.711  12.274  0.0981  0.1041  0.1285
12360W        W29207  12.940  15.188  10.809  0.1632  0.2747 -0.0282
12361W        W29208   3.534   5.635   5.183  0.0651  0.1988 -0.4787
12362W        W29209   1.641   3.090  13.034  0.3083 -0.1242  0.4870
12363W        W29210  14.016  16.811   4.270 -0.0438  0.2827  0.1406
12364W        W29211  12.271  11.539   5.547 -0.2149  0.0841  0.2727
12365W        W29212   3.501  10.671   0.043  0.0491 -0.0276  0.0421
12366W        W29213   8.945  10.952  14.106  0.2007 -0.0043  0.1648
12367W        W29214   4.103   1.087   1.600  0.0506  0.1254 -0.0686
12368W        W29215   0.043   1.414  13.273 -0.2208 -0.0865  0.1414
12369W        W29216   0.326  10.273   5.010 -0.1230  0.3008 -0.1600
12370W        W29217  17.436   6.818   2.026 -0.3201  0.1848 -0.1155
12371W        W29218  13.571   8.700   5.629  0.3475  0.2239 -0.2496
12372W        W29219   8.657   3.563  11.435 -0.1678 -0.1800 -0.1067
12373W        W29220   0.604  15.118  14.541  0.3436 -0.0179  0.1852
12374W        W29221  13.653   7.928   2.745 -0.0309  0.0215 -0.3193
12375W        W29222  11.150  18.267  11.626  0.0966  0.1399 -0.1574
12376W        W29223   5.459  11.191  13.566 -0.4674  0.1639  0.2080
12377W        W29224  11.487  11.295   3.336 -0.1887  0.0630  0.3258
12378W        W29225   1.843  18.392   0.755 -0.0557  0.0340 -0.0461
12379W        W29226  15.100  10.277  13.587  0.0970  0.0434 -0.0265
12380W        W29227   1.530   6.197   5.061  0.3690  0.0560 -0.1977
12381W        W29228  19.195   6.884   3.987  0.0957  0.0758 -0.1802
12382W        W29229  17.776   8.487  12.840 -0.3189  0.1770 -0.1056
12383W        W29230  17.501  15.602  11.703  0.0384 -0.1169 -0.0483
12384W        W29231   1.654  16.030   0.471 -0.0281 -0.0059  0.1012
12385W        W29232   3.639  14.725  13.433  0.1141 -0.0372  0.0681
12386W        W29233   3.332  18.177   1.655  0.1094 -0.1749 -0.1313
12387W        W29234   3.697  17.093   0.982  0.1677  0.2605  0.3159
12388W        W29235   0.584  19.085   1.479 -0.1944  0.2396  0.1185
12389W        W29236   3.759   1.038  14.439  0.2509  0.0194  0.0624
12390W        W29237   1.071   0.114  12.877  0.0127  0.1309 -0.1021
12391W        W29238   6.066  11.483   3.330  0.1112 -0.2693 -0.2908
12392W        W29239  15.528   5.018  11.214 -0.1454  0.0670  0.1889
12393W        W29240   8.636  18.841   0.364 -0.1369  0.3428  0.0479
12394W        W29241   3.332  18.783  14.393 -0.0271  0.1180 -0.1531
12395W        W29242  10.529   8.019  12.488 -0.0037  0.0884 -0.2179
12396W        W29243  17.181  12.426   0.657 -0.0087 -0.3959  0.1743
12397W        W29244  14.430   2.220   3.559  0.0483 -0.1191  0.1157
12398W        W29245  13.524   2.887   5.576  0.2116  0.3958  0.1012
12399W        W29246   9.575   7.991   2.522  0.0107 -0.2590  0.0941
12400W        W29247  16.463   7.556  10.509  0.2055  0.1332 -0.3408
12401W        W29248   5.122  15.142  14.680  0.1664 -0.0223 -0.2074
12402W        W29249  18.318   2.708   4.807  0.3164  0.0562 -0.1168
12403W        W29250  10.134  15.277  14.161 -0.1552  0.1917 -0.1842
12404W        W29251   5.452  18.639  13.471 -0.3360 -0.2517 -0.1539
12405W        W29252   7.714   7.527  13.855  0.0007  0.0279  0.1739
12406W        W29253  10.830  19.237  14.826 -0.1443  0.1132 -0.0639
12407W        W29254   3.625  10.095  13.240  0.2538 -0.1646  0.1042
12408W        W29255  10.481  13.752  11.845 -0.1294 -0.0253  0.1089
12409W        W29256   3.044  18.648   3.972 -0.3265  0.2718 -0.1074
12410W        W29257   1.161   8.739   1.849 -0.1180  0.1171  0.0439
12411W        W29258  10.127  18.980  12.044  0.0321 -0.0119  0.1202
12412W        W29259  16.939  17.310   2.906 -0.3491  0.1945  0.0431
12413W        W29260  16.708   1.645   1.180  0.1284  0.1665  0.1578
12414W        W29261  10.714  18.142  13.293  0.2084 -0.2694 -0.2732
12415W        W29262  10.244   3.586   1.486 -0.1798  0.1096  0.1513
12416W        W29263   2.400  17.180  12.489  0.0112  0.3086 -0.1882
12417W        W29264  10.466   0.899   0.852  0.0099  0.4482 -0.2154
12418W        W29265   3.282  16.135  12.654  0.1525 -0.2255  0.2343
12419W        W29266   3.827  15.274  13.743 -0.1112 -0.1799  0.0250
12420W        W29267  18.715   4.005  12.201  0.1114 -0.3227  0.0821
12421W        W29268  12.586  12.768  12.509  0.0403  0.1770  0.1850
12422W        W29269  17.545   0.048  11.056  0.3049 -0.2532  0.1426
12423W        W29270  18.787  12.226   0.148 -0.3526 -0.1202 -0.0008
12424W        W29271   2.421  18.300   1.799  0.1670 -0.0448 -0.2835
12425W        W29272   2.153   5.909  13.586  0.0794 -0.0035 -0.0513
12426W        W29273  13.055   2.759  12.866 -0.4354 -0.0670  0.2179
12427W        W29274   3.614  18.413  11.126 -0.1837 -0.2529 -0.0552
12428W        W29275  16.842   8.343   3.122 -0.2507 -0.2194  0.2765
12429W        W29276  12.685  13.469  12.357  0.1512  0.2623 -0.2327
12430W        W29277  13.968   4.529   1.058 -0.0848 -0.4917 -0.0152
12431W        W29278  18.570   6.089   2.023  0.0132 -0.0694  0.0657
12432W        W29279  14.580  11.605  12.216 -0.3795  0.2752  0.0272
12433W        W29280   1.368   7.460   0.233  0.1124 -0.1346 -0.2196
12434W        W29281  10.424  11.524   3.201  0.0215  0.1605  0.0637
12435W        W29282   5.311   0.352   1.736  0.3091 -0.1104 -0.1399
12436W        W29283  17.587  19.014  13.929 -0.0055  0.1164 -0.1560
12437W        W29284   2.075   6.939  13.888  0.1370 -0.1059 -0.1700
12438W        W29285   0.831   5.394   0.836 -0.1680 -0.1421  0.0857
12439W        W29286   1.690   9.151   3.138 -0.2776  0.2642  0.2327
12440W        W29287  13.152  10.856  12.494  0.0253  0.1644  0.1615
12441W        W29288  12.050   9.418  13.826 -0.0472  0.0238 -0.0728
12442W        W29289  11.573  11.347   1.485  0.1814 -0.0953 -0.0697
12443W        W29290  10.990   8.217  13.938  0.0434 -0.5214 -0.0700
12444W        W29291   5.185  16.456  13.633  0.1576 -0.3107  0.1368
12445W        W29292   9.152  16.717  11.740  0.0770  0.1359  0.2302
12446W        W29293   2.924   7.636   0.473  0.2342  0.2577  0.0610
12447W        W29294  12.595   1.472   0.167  0.1499 -0.1498 -0.1072
12448W        W29295   7.736   6.059   1.706  0.2689  0.0562 -0.1491
12449W        W29296  12.706  12.127   1.146  0.0976 -0.0351 -0.1251
12450W        W29297   8.101  14.821  12.812 -0.0791  0.0627 -0.1302
12451W        W29298   0.016  15.382   4.849  0.2048  0.0569  0.0946
12452W        W29299   1.997   6.339   4.103 -0.1647  0.1226 -0.0460
12453W        W29300  17.362   1.751  12.882  0.3121  0.1923  0.0396
12454W        W29301   8.168  18.864  11.907  0.3161 -0.0240 -0.0350
12455W        W29302   2.297  18.659  11.809 -0.1202 -0.0498 -0.0377
12456W        W29303  17.029   3.775  12.943 -0.1742  0.0161 -0.1774
12457W        W29304  14.426  13.222   2.904  0.2395  0.1959  0.0451
12458W        W29305   5.783  19.065  13.574  0.0057 -0.0837 -0.0134
12459W        W29306  10.469   7.677  10.701 -0.0067 -0.1590  0.2531
12460W        W29307   3.482  13.719   5.696  0.1502  0.0984 -0.2797
12461W        W29308   2.923   8.148  13.307 -0.1876  0.1656 -0.2537
12462W        W29309   4.596  15.910  12.012  0.3579 -0.1520  0.1613
12463W        W29310  11.950   4.273   3.083 -0.2031 -0.4575  0.1357
12464W        W29311   9.622  15.367   4.947  0.0020  0.1685  0.2323
12465W        W29312   0.341  16.784   2.013 -0.2958 -0.4169  0.1780
12466W        W29313  10.228  11.920  12.764  0.0467  0.2838  0.0659
12467W        W29314   1.075  17.116  10.823  0.2917  0.0582 -0.1216
12468W        W29315  18.869   4.255   2.175 -0.1560 -0.0603 -0.1333
12469W        W29316   4.872  11.176   3.660 -0.0569  0.2056 -0.0432
12470W        W29317  17.826   5.061  14.113 -0.3735  0.0088 -0.2127
12471W        W29318   9.223  11.990  12.004 -0.1515 -0.1586  0.1012
12472W        W29319   4.452   1.765   4.376  0.1706 -0.0136  0.0766
12473W        W29320  17.928   2.867   3.002  0.0278 -0.0641  0.1521
12474W        W29321  11.869  18.576   0.410  0.0943 -0.2116 -0.0193
12475W        W29322  15.470   2.323   1.976 -0.1307 -0.2297  0.1422
12476W        W29323   0.974  15.091   3.043  0.3018 -0.0765 -0.1452
12477W        W29324  10.455  16.660  11.275  0.1766  0.0043  0.0582
12478W        W29325  11.487   8.506  12.448  0.3422  0.0682  0.1119
12479W        W29326  11.907  15.921   0.462  0.2847  0.0269  0.1162
12480W        W29327   0.341   0.225   1.364  0.0638 -0.0804 -0.1043
12481W        W29328   8.031   5.966   8.790 -0.3841 -0.1760  0.3008
12482W        W29329   6.076  18.544  14.619  0.1871 -0.1385 -0.0733
12483W        W29330  13.022   4.775  14.405 -0.1579  0.1802 -0.0294
12484W        W29331  17.136  14.222   1.870  0.0959  0.1175  0.2704
12485W        W29332   7.094  13.518  14.154  0.1890  0.0632 -0.1773
12486W        W29333   9.144   0.815   0.033 -0.2729  0.0436  0.0770
12487W        W29334  17.405  11.462   5.743 -0.1628  0.2255  0.2592
12488W        W29335  16.960  14.166   9.819  0.0216 -0.0388 -0.0764
12489W        W29336  16.917   9.490   5.071  0.3688 -0.0088 -0.2464
12490W        W29337   1.514  16.147   1.660  0.1441  0.2585  0.0813
12491W        W29338  14.190  15.037   4.249  0.0775 -0.0846  0.2137
12492W        W29339  14.263   2.054   0.601  0.2181 -0.5437  0.0862
12493W        W29340   7.693  15.829   1.793  0.1212  0.1373  0.3591
12494W        W29341  13.955   3.418   1.613  0.2591 -0.1112  0.0871
12495W        W29342  10.056   6.426   1.478  0.0131  0.3111 -0.0784
12496W        W29343   1.625  18.246   2.340  0.0466 -0.0673  0.1540
12497W        W29344   7.175   7.554  11.600 -0.1745 -0.1681  0.0310
12498W        W29345   2.805   6.605   0.297  0.1702 -0.2995 -0.0059
12499W        W29346   0.187   5.700  14.556 -0.3926  0.2778  0.1797
12500W        W29347   6.603   5.523  11.655 -0.2685 -0.2542 -0.0577
12501W        W29348   5.432   1.021  12.378  0.0016 -0.1694  0.0131
12502W        W29349  17.390   1.274  13.119  0.1137 -0.1997 -0.0448
12503W        W29350   7.684   0.549  10.547  0.2103  0.3522  0.1189
12504W        W29351  10.392  11.461  11.394 -0.3826 -0.1634  0.3583
12505W        W29352  15.713   8.678   2.967  0.1511  0.2640  0.0664
12506W        W29353  17.215  15.854   4.068  0.2293 -0.0057 -0.0012
12507W        W29354  17.101  18.734  12.449 -0.1464  0.3472 -0.0175
12508W        W29355  12.022   5.061   1.178 -0.2731  0.1637  0.1748
12509W        W29356  16.530   0.704  11.440 -0.1558  0.0544 -0.0305
12510W        W29357  10.737   1.267   1.530  0.2442 -0.2304  0.0908
12511W        W29358   7.010  11.034  12.899 -0.1305 -0.1294  0.0415
12512W        W29359  16.855   3.169  13.145  0.2007 -0.0929  0.1204
12513W        W29360  15.162   3.265  14.883  0.1601  0.1535  0.0126
12514W        W29361   7.236   5.980   1.601  0.1029  0.3260  0.1111
12515W        W29362  15.766  15.981  12.160  0.0133  0.0663  0.1254
12516W        W29363  16.051   4.023   0.910  0.0183 -0.1994 -0.1634
12517W        W29364  13.247  19.259  10.341 -0.1669 -0.0371 -0.2010
12518W        W29365   1.842  13.367  10.999 -0.1134  0.0292 -0.0205
12519W        W29366  18.112   8.245   3.022 -0.0857  0.0315  0.0022
12520W        W29367   2.818  13.576   0.694  0.0080  0.2967  0.3175
12521W        W29368  16.729  13.068   0.111 -0.0329  0.0786 -0.0514
12522W        W29369  16.602   7.182  10.842  0.4337 -0.2042  0.0304
12523W        W29370   9.052  11.704   2.499  0.2387 -0.0607  0.1191
12524W        W29371  18.514   1.362   4.614 -0.2540  0.1337 -0.4928
12525W        W29372  17.308  16.070  14.953 -0.0039 -0.1267  0.2175
12526W        W29373  19.017   4.851   0.970 -0.0222 -0.1201  0.2619
12527W        W29374   1.449  16.056   2.218  0.2796 -0.0164 -0.0797
12528W        W29375  18.004  16.149  10.720 -0.0482  0.3860 -0.0032
12529W        W29376  13.728   0.522   5.097  0.1350 -0.3683 -0.1245
12530W        W29377  17.794   0.215  14.013 -0.1828 -0.0226  0.0777
12531W        W29378  18.184   1.766  12.759  0.0906  0.0006  0.0745
12532W        W29379   3.354   7.781  14.694 -0.3631  0.0678 -0.3968
12533W        W29380   8.317  10.925  12.885 -0.1888  0.0462 -0.1643
12534W        W29381  10.431  18.760   1.445 -0.0121 -0.0598  0.5404
12535W        W29382  18.061   6.457  14.122  0.3442 -0.0172 -0.0296
12536W        W29383  10.172   9.533   3.264  0.0370  0.0588 -0.1117
12537W        W29384   0.969  16.608  11.592 -0.2794  0.2853 -0.1726
12538W        W29385   4.221  13.694   2.795 -0.0007 -0.2373 -0.0560
12539W        W29386  13.426  19.075  13.323 -0.2844  0.0194 -0.0814
12540W        W29387  14.773   8.291  10.634  0.2378 -0.2523  0.1128
12541W        W29388  15.607   5.944   0.491  0.2867  0.1146 -0.4016
12542W        W29389   3.970  19.065  11.142  0.0650  0.2077 -0.1880
12543W        W29390  15.337  13.630   2.542 -0.2691  0.0564 -0.0890
12544W        W29391  10.417   0.844  14.296  0.0791  0.0746  0.0700
12545W        W29392  17.144  17.440   3.953  0.0522  0.0860  0.4230
12546W        W29393   7.378   1.294   3.147  0.2189  0.2866  0.1755
12547W        W29394  13.122  10.518   1.772  0.0810 -0.1869  0.2631
12548W        W29395  13.028  17.248   4.563  0.1372  0.1415  0.3234
12549W        W29396  19.019  19.048   2.063  0.0444 -0.4251 -0.0307
12550W        W29397   6.474   4.411   4.544 -0.4168 -0.1323 -0.2546
12551W        W29398  13.448  16.751   3.446 -0.1399 -0.0251 -0.0829
12552W        W29399   5.624  12.516  13.758  0.0252  0.0171 -0.1225
12553W        W29400  12.200   0.870   5.030 -0.0717 -0.0911  0.0265
12554W        W29401  12.058   4.148   1.188  0.2074  0.0913 -0.2384
12555W        W29402   4.155  13.363  10.969 -0.0711  0.2006 -0.2735
12556W        W29403  12.311   6.733  12.052  0.2259  0.0928  0.1000
12557W        W29404   1.580   0.607   0.891  0.1893  0.2556 -0.3108
12558W        W29405  19.058   1.360  14.862 -0.0602 -0.0527  0.0889
12559W        W29406  17.368   9.862   2.408  0.1205  0.3505  0.3171
12560W        W29407  16.182   8.919   3.340  0.0320 -0.2242 -0.0757
12561W        W29408  10.899  16.464  12.484 -0.1398  0.0757  0.0278
12562W        W29409   2.132  17.412  13.556  0.2225 -0.5125 -0.4653
12563W        W29410   5.746  10.438   3.219  0.0249 -0.1317 -0.1330
12564W        W29411  14.337  10.142   1.337  0.1044 -0.1460 -0.0350
12565W        W29412   4.670   5.686  11.269  0.0459 -0.3307 -0.1008
12566W        W29413  11.341  18.464   1.543 -0.3849  0.1825  0.0455
12567W        W29414   6.991   7.175  10.679  0.1468 -0.1142 -0.0665
12568W        W29415   6.327  16.858   0.459 -0.1212  0.1221  0.0216
12569W        W29416  12.668   5.204  11.275  0.2000  0.0861  0.1734
12570W        W29417   7.787   4.981   2.334 -0.1868 -0.1542  0.0610
12571W        W29418  11.691  11.534   3.702 -0.2500 -0.1963  0.1047
12572W        W29419  10.141  17.047  14.778  0.1986 -0.0221 -0.0375
12573W        W29420   6.768  18.788   0.433  0.0701  0.0568 -0.2342
12574W        W29421   0.266   3.554   0.479 -0.0259 -0.0679  0.0853
12575W        W29422  16.753  16.070  12.266  0.2362  0.2600 -0.4757
12576W        W29423  11.713   2.634  13.182  0.0791 -0.1797 -0.1234
12577W        W29424  10.572   5.030   4.784  0.3166 -0.1309  0.0279
12578W        W29425   1.973  18.094   3.299  0.2992 -0.1481  0.3606
12579W        W29426  13.098   9.403  13.272  0.0102  0.1656  0.2075
12580W        W29427  18.917  15.256   4.541  0.0430 -0.2221 -0.0828
12581W        W29428  11.013   9.131   2.664 -0.0537  0.0274  0.2832
12582W        W29429  14.483   6.947   4.647  0.1078 -0.0594  0.2730
12583W        W29430  12.224   5.429  11.478  0.0576 -0.2223  0.2667
12584W        W29431  18.356   3.538   1.052 -0.3298 -0.1792  0.1817
12585W        W29432  18.008  13.198   3.288 -0.0692  0.1144  0.2712
12586W        W29433   6.140   6.151   4.662  0.2714  0.1175 -0.0877
12587W        W29434   2.386  14.215  14.213 -0.1971  0.0365  0.0058
12588W        W29435   2.979   6.453   1.909 -0.1452 -0.0336 -0.2443
12589W        W29436  18.301   6.861   1.568 -0.1444 -0.2425 -0.2842
12590W        W29437  11.052  14.846  11.738  0.0705  0.1115 -0.2725
12591W        W29438   5.371   3.235   0.274  0.0285  0.0051 -0.4208
12592W        W29439  17.337   6.221  12.268 -0.2405 -0.1881 -0.0869
12593W        W29440   1.838  11.673   4.308 -0.1076  0.0411 -0.4239
12594W        W29441   8.720   0.102   4.325 -0.0487  0.2689 -0.0964
12595W        W29442  13.972   9.177   0.033  0.2972  0.1537 -0.1084
12596W        W29443   2.782  15.181  12.129  0.1155  0.1267 -0.2620
12597W        W29444   7.590   4.884  10.482 -0.0664  0.1878  0.1250
12598W        W29445  11.046  14.520  13.259  0.0454  0.0245 -0.1104
12599W        W29446  14.001   2.708  11.085 -0.0491  0.4759 -0.2375
12600W        W29447  14.917  17.980   5.450  0.1892  0.0432  0.1001
12601W        W29448  12.782   7.196   2.278 -0.0480  0.2544 -0.0279
12602W        W29449  15.509  11.014  10.202  0.0194  0.0182  0.1449
12603W        W29450   9.922   3.961  13.484  0.2970 -0.2662  0.0568
12604W        W29451  10.420   2.716   3.213  0.0496  0.3380 -0.3580
12605W        W29452   9.035   6.518   3.518 -0.1521 -0.0198 -0.1173
12606W        W29453  16.066  10.320  13.174  0.0737 -0.0146  0.0480
12607W        W29454   7.072   3.179   4.463 -0.3118 -0.1493 -0.1008
12608W        W29455   2.695   7.200   0.340  0.1468 -0.0500  0.0039
12609W        W29456   7.285   2.771   1.438 -0.1033  0.2384  0.0039
12610W        W29457   1.323   5.259   1.532  0.2872 -0.1032  0.0682
12611W        W29458   8.507   8.948   3.635 -0.1530 -0.0482  0.0253
12612W        W29459   0.487  18.618   0.015  0.1240 -0.2166 -0.0354
12613W        W29460   5.859   4.196  14.721  0.1225 -0.1450  0.2267
12614W        W29461  15.783   7.416  11.135  0.1708 -0.0283  0.0596
12615W        W29462  12.601  11.792  12.529  0.0887 -0.2356 -0.1440
12616W        W29463  14.694   4.356   3.572  0.1203  0.3628  0.2563
12617W        W29464   2.638  14.678  14.271 -0.2861 -0.2430 -0.1728
12618W        W29465   4.287   3.572   0.220  0.3182  0.3168 -0.3671
12619W        W29466   1.860  16.567  11.275 -0.0765  0.1163 -0.1063
12620W        W29467  15.227  12.812  10.414  0.0058  0.0192 -0.0456
12621W        W29468  10.900   5.042  10.896 -0.0745  0.2720 -0.1789
12622W        W29469   1.903  17.360  11.747  0.1428  0.0662  0.2339
12623W        W29470   1.252  12.215  14.037  0.0139  0.1053 -0.3381
12624W        W29471  17.237   3.443   4.540 -0.0631  0.4966  0.0467
12625W        W29472   2.036   1.571   5.018  0.1263 -0.0364  0.0774
12626W        W29473  19.198   3.560   1.563 -0.2421  0.1415  0.1502
12627W        W29474  11.903  17.861   2.464 -0.3552  0.2875  0.0102
12628W        W29475   1.250  16.902  14.111  0.0608  0.2391 -0.2220
12629W        W29476  14.059  11.199   0.236  0.0877  0.0677  0.0111
12630W        W29477  17.271   6.929   3.569  0.2804  0.2285 -0.0033
12631W        W29478   8.610   6.064   0.865  0.3854  0.3082 -0.0300
12632W        W29479  15.670   2.729  12.414 -0.3489  0.2257  0.2764
12633W        W29480  12.643   2.729   4.848 -0.3911  0.1468  0.0014
12634W        W29481  14.269  17.635  14.202  0.2436  0.1361  0.0377
12635W        W29482  15.311  17.848  13.763  0.1686 -0.1282 -0.0381
12636W        W29483  13.191   2.421   1.874 -0.2233 -0.0590  0.2416
12637W        W29484   5.934   5.062  14.871 -0.3592 -0.2318 -0.0192
12638W        W29485   2.776   4.508  12.802 -0.2180  0.2429  0.0148
12639W        W29486  14.215  18.806   2.900  0.0376  0.1923 -0.2164
12640W        W29487   5.828   3.190   2.052  0.3561 -0.1972 -0.2127
12641W        W29488  12.387   5.881   2.819  0.3346 -0.4445 -0.1477
12642W        W29489   8.331   7.926  10.196 -0.0886 -0.2318  0.1300
12643W        W29490   7.224   8.941  12.369  0.1436 -0.1237 -0.1648
12644W        W29491  18.992  10.711  11.616 -0.3959 -0.0930  0.3142
12645W        W29492   3.415  12.821   2.928  0.0486  0.0713 -0.0488
12646W        W29493  11.107   4.645  11.784 -0.0308 -0.0381 -0.0056
12647W        W29494   3.601  18.880  10.884 -0.0152 -0.2048 -0.2039
12648W        W29495   3.023  13.077  12.244 -0.2118 -0.1370  0.4511
12649W        W29496  15.465  17.190   5.431 -0.1735 -0.2861  0.0106
12650W        W29497   6.108   9.712   0.560 -0.3323 -0.1699 -0.3844
12651W        W29498  17.605   2.255   0.853  0.1314  0.2024  0.0374
12652W        W29499  16.435   5.405   2.837  0.1135  0.2800  0.2004
12653W        W29500   7.625   3.031  11.654 -0.2302  0.4573 -0.0091
12654W        W29501   5.512   5.116   0.115  0.0386  0.0257  0.2392
12655W        W29502   0.912   4.838   2.961 -0.2063 -0.4920  0.1758
12656W        W29503   0.462  15.205   4.251  0.1570 -0.0404 -0.4524
12657W        W29504   0.958   6.544   2.559 -0.3990  0.0052  0.4137
12658W        W29505  16.454   6.100   2.354  0.1106  0.0330 -0.1607
12659W        W29506   6.864   7.073   1.044 -0.0071  0.2036  0.1784
12660W        W29507  13.222  12.639   4.863  0.0017  0.3600 -0.0204
12661W        W29508  16.672  18.712   4.639  0.5976 -0.0868 -0.1106
12662W        W29509   5.291  10.105  14.697 -0.0395 -0.0396 -0.1434
12663W        W29510   6.288   5.282   4.323 -0.1980  0.0925  0.1909
12664W        W29511   7.420   0.032   3.124  0.0185  0.1392  0.1478
12665W        W29512  15.197  14.292   9.607 -0.2109 -0.2618  0.3315
12666W        W29513  17.263  14.569  10.098 -0.2728 -0.1103 -0.0936
12667W        W29514  15.351   1.370   2.326 -0.1729 -0.2042 -0.2091
12668W        W29515  16.481   8.113   9.604  0.0058 -0.0150  0.0101
12669W        W29516  12.868   3.073  11.064 -0.3636  0.1814  0.0177
12670W        W29517   4.316  13.942   3.367 -0.1193  0.0937  0.1556
12671W        W29518  10.125   3.638   3.202 -0.5072 -0.2819  0.1530
12672W        W29519   1.329   7.033   0.475 -0.1993 -0.2185 -0.2051
12673W        W29520  16.820  15.049  11.428 -0.1945  0.3993  0.2053
12674W        W29521   7.153   8.109  11.114 -0.1429  0.1366 -0.3857
12675W        W29522  13.201   7.664  14.132 -0.0470  0.0771 -0.2079
12676W        W29523   4.824   1.171   1.784  0.1933 -0.3499  0.0136
12677W        W29524  16.260  17.633   1.216 -0.2215 -0.4111 -0.1362
12678W        W29525  15.090  17.741  14.372  0.1811  0.2244  0.0068
12679W        W29526   6.651  13.815   1.501  0.0404  0.1176  0.3755
12680W        W29527   7.033  14.204   0.867 -0.0613 -0.0584 -0.1893
12681W        W29528  17.709   3.091   0.660  0.1954 -0.1098  0.0872
12682W        W29529   3.317   6.120  11.376 -0.0036 -0.0166 -0.2448
12683W        W29530   1.508   3.374   3.067 -0.2495  0.1636 -0.0158
12684W        W29531   9.743   5.008  14.980 -0.1117  0.1638 -0.3563
12685W        W29532  15.880  11.876   0.672  0.0153  0.1658 -0.0223
12686W        W29533  12.581   9.037  13.232  0.1010  0.4186 -0.0169
12687W        W29534  13.755  11.775   3.798  0.1163  0.0988  0.0825
12688W        W29535   2.534   2.792  11.136  0.2203  0.1005  0.0874
12689W        W29536  13.143   5.630   1.106  0.2931  0.0756  0.2248
12690W        W29537   9.624  11.030  12.574 -0.0259 -0.0277 -0.1413
12691W        W29538  15.229  13.580   2.050 -0.1222  0.2013  0.1540
12692W        W29539   5.423  18.697   3.838  0.1696 -0.1193  0.4291
12693W        W29540   6.865   1.890   4.335  0.3001  0.2736 -0.0026
12694W        W29541   2.209   8.035   0.503 -0.3778  0.0022 -0.1825
12695W        W29542  15.392  11.857   0.190 -0.0876  0.2412  0.0484
12696W        W29543   9.851   6.639  11.334 -0.1026 -0.0229  0.1600
12697W        W29544   8.060   7.766   0.647 -0.2824 -0.0922 -0.2205
12698W        W29545   7.986   2.074  12.348 -0.0782  0.1652 -0.0064
12699W        W29546   4.652  14.919   1.686 -0.0967 -0.1920  0.0396
12700W        W29547  11.955   0.121  11.164  0.2450 -0.0996 -0.0933
12701W        W29548  14.864  16.784   0.463  0.1474 -0.0452  0.3526
12702W        W29549  14.177   4.985  10.731 -0.0851  0.0474  0.0487
12703W        W29550  11.958   3.031   4.061  0.1115  0.1721 -0.0333
12704W        W29551   4.621   6.918  12.082  0.4077  0.0599  0.0781
12705W        W29552  15.217  10.800   3.326  0.3206 -0.0093  0.1957
12706W        W29553  15.431   1.281   0.593 -0.1901 -0.3621 -0.1707
12707W        W29554  17.169   7.819  12.651 -0.1330  0.1081 -0.0286
12708W        W29555   8.992   0.246   2.221  0.1115  0.1888 -0.0121
12709W        W29556  14.274   7.418   1.088  0.0910 -0.2039  0.3658
12710W        W29557   3.939  16.829  14.821 -0.2166  0.0947  0.0443
12711W        W29558   3.489  12.263  13.031  0.3812 -0.0344 -0.2870
12712W        W29559  12.504   5.748   4.590 -0.0594 -0.1104  0.0367
12713W        W29560   9.057  10.551   4.835 -0.1897 -0.1966  0.0209
12714W        W29561  13.631   4.774   4.467 -0.0949  0.1030 -0.0580
12715W        W29562   3.074  10.697  13.826 -0.0185 -0.0208 -0.2732
12716W        W29563   4.746  14.696  13.375  0.0746 -0.0976 -0.0617
12717W        W29564   3.273  18.688   2.940  0.3539 -0.0557 -0.0853
12718W        W29565   2.079   3.915   2.069 -0.1034  0.1872 -0.0257
12719W        W29566  10.605   0.473   5.063  0.0970  0.0663  0.1489
12720W        W29567  12.809   8.067  12.001 -0.0500  0.0439 -0.0595
12721W        W29568  18.032  10.047   2.001 -0.0514  0.4781  0.2109
12722W        W29569   2.557   1.057  13.289  0.0860  0.2725  0.1081
12723W        W29570  13.356   2.139   0.731 -0.2021 -0.1851  0.0336
12724W        W29571   6.385   3.546   3.215 -0.2430 -0.0604 -0.0743
12725W        W29572  18.446   4.343  13.966 -0.1299  0.1738 -0.0767
12726W        W29573  17.602  11.096  14.154  0.0282  0.1067  0.2886
12727W        W29574  11.298  12.130  10.703  0.1558 -0.0243  0.0497
12728W        W29575  18.040  16.679  13.010 -0.2306 -0.4510 -0.0160
12729W        W29576  12.267   4.486  12.292  0.2147 -0.0478 -0.0167
12730W        W29577  11.632  15.411  13.436  0.1455 -0.0078 -0.0587
12731W        W29578  13.413  12.104  14.653  0.0832  0.0302  0.1505
12732W        W29579   9.549  18.619  11.445 -0.3041  0.1026 -0.0313
12733W        W29580  14.711  11.045  11.286  0.0128 -0.0269  0.2092
12734W        W29581  13.977  17.335   5.595  0.3633 -0.0215  0.1764
12735W        W29582   7.591  11.326  10.751  0.1230  0.0133 -0.0408
12736W        W29583  14.113   4.882  14.171 -0.0178  0.1939 -0.1069
12737W        W29584  14.805  12.529  14.349 -0.0565 -0.0908 -0.3457
12738W        W29585  19.195  15.576   3.252  0.2949  0.3936  0.0326
12739W        W29586  13.524   9.137   0.966  0.2616  0.0105  0.0216
12740W        W29587   0.509  11.882  10.551 -0.2091 -0.0221 -0.3212
12741W        W29588   6.725   8.895  12.108  0.5816  0.3573 -0.0740
12742W        W29589   7.981  15.685   4.729  0.2396 -0.0265 -0.0740
12743W        W29590  15.358  14.118   2.721 -0.0072 -0.0434 -0.2345
12744W        W29591   3.548  18.513  13.963 -0.2989  0.0234 -0.1934
12745W        W29592  15.146   8.602  11.992 -0.0913  0.0602 -0.1282
12746W        W29593  19.229   9.486  13.407  0.3472 -0.0226 -0.1973
12747W        W29594   0.379  14.704  14.361 -0.0955  0.3101  0.0390
12748W        W29595  12.128  10.121   4.172 -0.2918 -0.0048  0.2615
12749W        W29596   2.068  15.833   0.209 -0.3675 -0.2340  0.3970
12750W        W29597  16.759   2.398  14.148  0.3003 -0.0243 -0.0719
12751W        W29598   4.674   8.035  11.827  0.0765 -0.1309  0.1890
12752W        W29599   9.575  15.383   0.192  0.1195 -0.0182 -0.0213
12753W        W29600   4.738  14.972   0.083  0.1496 -0.0389  0.2192
12754W        W29601   5.048  15.878   1.117 -0.1367 -0.2264  0.1315
12755W        W29602   6.204   4.403  14.964 -0.2669  0.0856  0.0888
12756W        W29603  14.339  13.566   0.014 -0.0852 -0.0149  0.2277
12757W        W29604  16.893  15.076   3.426 -0.0225 -0.2553  0.0549
12758W        W29605  15.068  12.751   9.926  0.1641  0.1363 -0.2139
12759W        W29606  11.203  11.603  10.836 -0.1351  0.0075 -0.1405
12760W        W29607  14.223  17.043   2.162  0.1635 -0.2294 -0.1611
12761W        W29608   1.554   0.377  11.980  0.3089 -0.1028 -0.0350
12762W        W29609  12.629  16.667  12.645 -0.2328 -0.4866  0.1420
12763W        W29610  11.255   1.521  12.987 -0.2762  0.4135  0.3444
12764W        W29611  14.002  17.058  14.230 -0.5117 -0.2486 -0.0934
12765W        W29612  14.840   4.918  14.883  0.1725  0.1671  0.2630
12766W        W29613   8.194  14.962   2.242  0.0418 -0.0957 -0.1150
12767W        W29614   5.183   4.820   1.586 -0.3531 -0.2020 -0.0657
12768W        W29615  14.647  17.607   3.060 -0.4624  0.0019 -0.0813
12769W        W29616  16.777  18.747   0.386  0.0453  0.2421 -0.1290
12770W        W29617  12.980  11.889  10.568  0.0544 -0.2708  0.1453
12771W        W29618  19.180   4.602   3.903  0.2882 -0.0275 -0.0799
12772W        W29619  17.623   4.429   4.823 -0.2695  0.3476 -0.1286
12773W        W29620  18.577   5.663  10.318  0.1926  0.1644 -0.3518
12774W        W29621  18.856   0.280  14.031 -0.3087  0.0397 -0.1390
12775W        W29622   9.768  17.278   1.752  0.2530  0.1887 -0.2515
12776W        W29623  12.428   6.869   0.393  0.0817 -0.0639 -0.4304
12777W        W29624   2.398  13.054   1.747 -0.0260 -0.3816 -0.0549
12778W        W29625   8.514   0.174   2.193 -0.0487 -0.2575  0.2342
12779W        W29626   5.218   9.293   0.227 -0.1020 -0.0532  0.1208
12780W        W29627  10.103   4.480  10.718  0.1817 -0.0864  0.2273
12781W        W29628  14.778   2.753   2.706  0.0968  0.0625 -0.2133
12782W        W29629   6.698   1.062  12.976 -0.0184 -0.0709 -0.2381
12783W        W29630  18.983   3.634  12.373  0.0251  0.2202 -0.0311
12784W        W29631  11.064   8.687  13.776  0.0037  0.3969 -0.0387
12785W        W29632  14.296   8.908   0.737  0.2586 -0.1342 -0.0806
12786W        W29633   2.688  15.124  11.027 -0.0285  0.0047 -0.1270
12787W        W29634   8.081   8.213   1.073  0.1046 -0.0576  0.4488
12788W        W29635  16.531   7.702  14.936 -0.2034 -0.0245 -0.0311
12789W        W29636   0.440   3.396  12.800 -0.0513  0.0837  0.3112
12790W        W29637  15.037   1.085  11.283  0.2704 -0.2084 -0.0123
12791W        W29638   5.936  11.576   5.004  0.0844  0.0195  0.3720
12792W        W29639   2.177   1.927  11.101  0.1911 -0.0367 -0.0436
12793W        W29640   9.346  16.014   4.389 -0.0956  0.1659 -0.1811
12794W        W29641  17.191   1.398   2.451  0.2163 -0.1364 -0.1179
12795W        W29642   3.821  15.683  12.035 -0.2165  0.1726  0.1721
12796W        W29643  13.659  10.989   4.417 -0.1716 -0.0466 -0.2452
12797W        W29644  12.411   4.826  12.606  0.1009 -0.1663 -0.4057
12798W        W29645   3.825  15.841  13.789  0.1204 -0.1393 -0.1837
12799W        W29646  10.432  16.818  12.388 -0.3062  0.0376 -0.1281
12800W        W29647  12.702  17.428  11.746  0.0220  0.0672  0.1362
12801W        W29648  18.479   4.817  10.616  0.2919 -0.1438  0.1715
12802W        W29649  14.299  13.263  14.633  0.0878  0.0977  0.2623
12803W        W29650  16.178  12.131  14.171  0.1691 -0.1267  0.0439
12804W        W29651   9.637   6.101   1.819  0.1940  0.1907  0.0759
12805W        W29652  17.579   4.919  12.672  0.1174 -0.2623  0.0971
12806W        W29653   8.809  14.697  11.240  0.1686 -0.2261 -0.1116
12807W        W29654   4.721   8.409   4.761  0.4674  0.1223  0.0367
12808W        W29655   8.714   5.849  13.134 -0.0351  0.0988  0.4106
12809W        W29656   9.226  17.501  12.226 -0.0791 -0.3587 -0.0638
12810W        W29657  14.999  15.091  10.803 -0.0810 -0.5432 -0.1307
12811W        W29658   4.438   0.123  14.387  0.2778  0.0113 -0.0349
12812W        W29659   6.797   5.348   3.212 -0.0625  0.1949  0.2875
12813W        W29660   1.549  14.290  12.831  0.1655 -0.3452  0.0906
12814W        W29661   0.061  14.743   0.053  0.0760  0.0936 -0.0300
12815W        W29662   1.926   4.339  13.603 -0.0264  0.0632 -0.1061
12816W        W29663  10.759   0.985  11.532  0.1270 -0.1385 -0.1554
12817W        W29664   2.731  12.453   3.541 -0.0595 -0.3180 -0.1567
12818W        W29665   8.724  11.226   4.220 -0.1304 -0.0850 -0.3022
12819W        W29666  18.243   3.807   0.298 -0.2004  0.0561  0.1665
12820W        W29667   6.110  16.262  11.966 -0.0554 -0.2362 -0.0843
12821W        W29668  13.302  13.948  10.614 -0.0723  0.1817  0.2227
12822W        W29669  18.415   2.092  12.404  0.1148  0.1711  0.2195
12823W        W29670  11.353   2.219  11.488  0.2572 -0.1709  0.2700
12824W        W29671  13.014   8.943   3.032  0.1329 -0.0253 -0.2195
12825W        W29672   4.324  10.456  14.425  0.2629 -0.0042  0.0789
12826W        W29673  15.737  15.381  12.374 -0.5094 -0.1316  0.1666
12827W        W29674   4.130   6.364  14.990  0.0662  0.1843  0.0843
12828W        W29675   8.344  18.108   2.958  0.2702  0.0441 -0.0599
12829W        W29676  12.816   2.827   0.223  0.0952 -0.1511 -0.2204
12830W        W29677   4.845   3.037  11.877  0.1759 -0.0556 -0.0769
12831W        W29678  13.540  15.685  11.811  0.0687 -0.2690 -0.2068
12832W        W29679  14.348   3.624   5.077 -0.1449 -0.2790 -0.1527
12833W        W29680   8.366  16.813   4.046 -0.3351 -0.0121  0.1931
12834W        W29681   0.399  11.642  11.381  0.2754 -0.3236  0.2334
12835W        W29682   9.684  10.704   4.082 -0.0100  0.1181  0.1093
12836W        W29683   7.672  14.217   4.975  0.1334 -0.0910 -0.0981
12837W        W29684  12.109   6.493   4.559  0.1849  0.1313 -0.2149
12838W        W29685   6.036   8.390  10.791 -0.2410 -0.3782 -0.0004
12839W        W29686   5.253  16.982  13.691 -0.0707  0.0907  0.2247
12840W        W29687   4.954  16.788   3.434 -0.2153 -0.0157  0.3763
12841W        W29688   5.633   8.936   3.351 -0.2810  0.0962  0.1160
12842W        W29689   7.688  18.196   0.832  0.1016  0.0122  0.0262
12843W        W29690  13.052   0.628   4.503 -0.0845 -0.3727 -0.1249
12844W        W29691  10.126  18.539   2.523  0.1438  0.1136 -0.0771
12845W        W29692   7.756   6.690  14.907 -0.1187  0.2329 -0.1162
12846W        W29693   2.773  11.211   2.075  0.0789 -0.0144 -0.3988
12847W        W29694   4.183  17.096   1.202 -0.1719 -0.0907  0.1971
12848W        W29695   2.834   4.532  14.255  0.0535  0.0774  0.0355
12849W        W29696  17.609  12.692  13.132  0.0864  0.4418  0.1227
12850W        W29697   4.888   4.290  11.973  0.0019  0.0088 -0.2157
12851W        W29698  10.143  10.758   2.478  0.0355 -0.2357 -0.1224
12852W        W29699  18.501   8.766   4.159 -0.0319  0.3827 -0.5211
12853W        W29700   0.695  12.677   4.397  0.3440  0.0936  0.0760
12854W        W29701  18.345  13.161   0.616 -0.1165 -0.3702 -0.0392
12855W        W29702  12.428   6.244  12.194  0.0523  0.1765  0.1234
12856W        W29703   2.069   8.694  13.149  0.1738 -0.1159  0.0750
12857W        W29704  17.109   3.189   3.912 -0.2491  0.0585  0.0097
12858W        W29705   4.541   6.025  13.220 -0.1383  0.2481 -0.0743
12859W        W29706   3.537   8.017   4.763 -0.2581  0.0199  0.0686
12860W        W29707  17.361   0.961   3.725  0.0137  0.0853  0.0702
12861W        W29708  11.079   6.958  10.710  0.6006  0.1707 -0.1743
12862W        W29709   4.455   8.290   4.320  0.1691 -0.0341 -0.3779
12863W        W29710   2.670   1.899  10.855 -0.0669  0.1492  0.0317
12864W        W29711  15.709  15.207   4.292  0.3382 -0.2530  0.1912
12865W        W29712  12.018  17.851   1.114  0.0537  0.0674 -0.4026
12866W        W29713  12.184  16.909   5.142 -0.1900  0.2019 -0.0553
12867W        W29714   4.088  17.727  10.913  0.1407  0.0128 -0.0438
12868W        W29715  12.175   8.624   3.374 -0.1168 -0.0058  0.4455
12869W        W29716   3.977  17.544  11.855 -0.1727  0.2756  0.1486
12870W        W29717  11.705  16.628  12.426 -0.0364  0.0348 -0.0095
12871W        W29718   8.357   7.151  10.224 -0.1602  0.0818  0.0187
12872W        W29719  13.934  11.370  10.466  0.0877  0.0744  0.0327
12873W        W29720   6.761  18.216   0.086  0.3292 -0.3017 -0.1333
12874W        W29721  19.098   5.375  13.398  0.2153  0.1152 -0.1529
12875W        W29722  13.935   3.121   1.180  0.0024  0.1451 -0.2259
12876W        W29723  18.083   4.081  11.666 -0.1227  0.2027 -0.1772
12877W        W29724  14.626   6.028   2.207  0.0188  0.0879  0.4919
12878W        W29725   0.009   5.607  13.816  0.0714  0.1594  0.0025
12879W        W29726  12.923  18.840  10.335 -0.1949  0.1367 -0.2002
12880W        W29727   7.021  10.711  14.952 -0.1260 -0.1461 -0.1754
12881W        W29728  11.307   1.854   2.285  0.0746  0.1389 -0.1421
12882W        W29729   0.186  14.563   3.947  0.1880 -0.2112  0.0456
12883W        W29730   5.226  18.653   1.761  0.0992 -0.0439  0.0934
12884W        W29731  18.324  14.196   1.541 -0.1664 -0.0994 -0.1338
12885W        W29732  12.451   8.297   2.326 -0.2664 -0.0818 -0.2552
12886W        W29733  18.235   6.596  12.321 -0.1966  0.2038  0.4826
12887W        W29734   8.458   3.652  10.868  0.0460 -0.0005  0.1231
12888W        W29735   9.191  12.086   2.118  0.3179 -0.1248  0.0638
12889W        W29736  14.478   1.121   0.243 -0.1138 -0.0356 -0.0146
12890W        W29737  15.206   7.420   3.119  0.0591  0.4779 -0.1664
12891W        W29738   8.259   2.323  11.070 -0.1575  0.0083  0.2810
12892W        W29739  10.235   6.190  14.900 -0.0684 -0.0449  0.1026
12893W        W29740   2.201   1.898  13.048  0.0389  0.2602  0.2097
12894W        W29741   7.474   0.653  14.777 -0.2385 -0.0220 -0.0572
12895W        W29742   3.211  18.070   4.149  0.1163  0.1047 -0.1458
12896W        W29743  13.330   9.388   3.172 -0.0568 -0.2769  0.2900
12897W        W29744   3.741  12.013  14.973  0.5340  0.0910 -0.0023
12898W        W29745  11.330  14.370  12.908 -0.2882 -0.1190  0.1059
12899W        W29746  18.802   3.209  13.779  0.3178 -0.0198 -0.0476
12900W        W29747  15.268  18.407   0.090  0.1756  0.0949 -0.1836
12901W        W29748  16.600   1.763  11.146  0.1187 -0.0787  0.0067
12902W        W29749   0.245  14.911  11.042 -0.3040 -0.0192 -0.0300
12903W        W29750  12.933  12.910  14.203  0.1537 -0.2624 -0.0989
12904W        W29751   2.531   1.757   0.767  0.2329  0.4096  0.0182
12905W        W29752  19.119  17.589  12.267  0.1420  0.1378 -0.0034
12906W        W29753   1.668   5.457  11.351 -0.0433 -0.0871  0.0167
12907W        W29754   6.512  10.661   0.071  0.0924  0.0138  0.0421
12908W        W29755   5.612   3.276  12.803 -0.0073  0.0404  0.1654
12909W        W29756   9.635   7.089  11.165  0.0999  0.1011 -0.0491
12910W        W29757  12.854  14.309   0.482  0.0631 -0.2303  0.3575
12911W        W29758   5.412   5.594   3.949 -0.2168  0.1964 -0.1806
12912W        W29759   2.130  14.375  10.621 -0.3083  0.0239 -0.1386
12913W        W29760   4.689  10.289  14.239 -0.1066 -0.0178  0.5670
12914W        W29761  13.437   8.122  13.781  0.2454 -0.0660 -0.1044
12915W        W29762   2.293   9.539   1.577  0.3143 -0.0486  0.2384
12916W        W29763   8.893   7.262  11.627 -0.0344  0.3417  0.0295
12917W        W29764  15.702   0.898   4.863  0.0932 -0.4477 -0.0352
12918W        W29765  10.520  10.731  12.174 -0.0209  0.1392  0.2969
12919W        W29766  18.133   7.809   4.000 -0.2093 -0.0857  0.0716
12920W        W29767   7.688   9.298  14.215 -0.1402 -0.1478 -0.1611
12921W        W29768   6.405  18.898  11.698  0.0123  0.0219  0.0684
12922W        W29769  19.117   6.903  10.252  0.1293 -0.1837  0.0018
12923W        W29770   4.107   2.999  11.198 -0.0529 -0.1559 -0.1300
12924W        W29771  17.193  14.461  10.986 -0.3662 -0.1514 -0.1499
12925W        W29772  16.721   8.922   3.354  0.0352 -0.2071 -0.0115
12926W        W29773   8.065   1.826   0.235  0.1543  0.1999 -0.1171
12927W        W29774   6.359  13.049   3.542 -0.0353 -0.0372  0.3596
12928W        W29775   9.753   3.718   0.690  0.1228 -0.1454 -0.0329
12929W        W29776   6.786  13.392   0.577 -0.0769  0.1843 -0.1713
12930W        W29777  18.354   5.492  14.432 -0.3175 -0.0193  0.1679
12931W        W29778   2.693  16.514   9.539 -0.2180  0.0096 -0.1159
12932W        W29779  18.535  12.078   2.093 -0.1339 -0.2410 -0.3305
12933W        W29780   9.675   4.190   9.230 -0.0871  0.0582 -0.1942
12934W        W29781   2.042  15.655   3.708 -0.0894 -0.3040  0.1041
12935W        W29782   4.046   1.653   1.476  0.1019 -0.0033 -0.0151
12936W        W29783   4.561   2.039  11.795 -0.2019 -0.0884  0.0546
12937W        W29784   4.946   7.777   0.252  0.1070 -0.0588 -0.1514
12938W        W29785  11.338   6.629  13.184  0.0211 -0.3463 -0.0029
12939W        W29786   1.960   0.932  11.926  0.3634 -0.0618 -0.2193
12940W        W29787   5.571  14.388  12.128 -0.1182  0.0410 -0.1165
12941W        W29788   2.242   0.431   0.535  0.0391  0.0463 -0.1649
12942W        W29789  10.538  14.458   3.139  0.1764  0.3050 -0.1701
12943W        W29790   1.085  13.449  11.746 -0.2377  0.1350 -0.2871
12944W        W29791  17.099   6.254   4.994  0.1814  0.0512  0.2074
12945W        W29792  18.571   2.803  11.235  0.0161 -0.2192 -0.1165
12946W        W29793  11.824   9.857  14.163  0.1470  0.0041 -0.2522
12947W        W29794   5.826   9.809   3.222 -0.0714 -0.0810  0.1247
12948W        W29795   4.554   2.504   3.963 -0.1468  0.2895  0.3405
12949W        W29796   3.340   2.445   1.364  0.0359  0.2272  0.0137
12950W        W29797   2.262   0.153  12.643  0.1137 -0.3035 -0.1616
12951W        W29798  13.901  19.281  14.931  0.0917  0.0792 -0.1253
12952W        W29799  10.808   1.009   0.023  0.1341  0.0107  0.3118
12953W        W29800   9.148   9.262  10.455 -0.0112 -0.0218  0.2047
12954W        W29801  13.114  11.071   0.546 -0.1747  0.3117 -0.1730
12955W        W29802  10.374   5.490   0.991  0.1415 -0.0229 -0.3577
12956W        W29803   2.888  15.437   4.777 -0.0103  0.2175  0.0708
12957W        W29804  13.321  18.496   5.164  0.2204 -0.0856 -0.2077
12958W        W29805  12.289  18.863   5.689  0.1765  0.0480 -0.1779
12959W        W29806   8.526   5.742  12.297  0.1080  0.2974 -0.0057
12960W        W29807   9.699  16.407  13.419  0.2451 -0.2431 -0.5599
12961W        W29808   5.334   9.011   3.842  0.0618  0.3252  0.2140
12962W        W29809   0.094  13.189   3.842 -0.2210 -0.1298 -0.0388
12963W        W29810   8.991   5.469   3.783 -0.3064  0.1873  0.3429
12964W        W29811  17.399  17.982  12.760 -0.1034 -0.0653  0.1501
12965W        W29812  16.046   5.101  10.544 -0.0120  0.3494 -0.0709
12966W        W29813   0.351   6.147  12.127 -0.2372  0.0273 -0.0348
12967W        W29814   8.995  14.748   3.287  0.1202  0.4080  0.2108
12968W        W29815   7.623   5.997   2.337  0.2814 -0.2369 -0.0290
12969W        W29816   1.168  14.433  13.972 -0.0976 -0.2122 -0.0138
12970W        W29817  10.376   2.766   2.713  0.1369  0.1947  0.0073
12971W        W29818  13.374  17.162  13.459  0.1753 -0.2392 -0.1898
12972W        W29819   5.603   0.718  11.568  0.0074 -0.1091 -0.1556
12973W        W29820   4.206   0.753   1.075  0.1071 -0.1352  0.1274
12974W        W29821   1.763   8.069  10.145  0.0603  0.0280 -0.2831
12975W        W29822  15.660   1.465   3.953 -0.1529  0.0660  0.1229
12976W        W29823  11.432  18.965   1.210 -0.1617 -0.0796  0.1547
12977W        W29824   4.574  18.826   0.659  0.2241 -0.3803 -0.0063
12978W        W29825  12.056  17.901  13.577  0.0644  0.0105 -0.0972
12979W        W29826   9.972   1.692   4.585 -0.3932 -0.0436  0.0865
12980W        W29827   2.857  14.935   0.339  0.0494 -0.0314  0.1599
12981W        W29828  13.488  10.071  10.132  0.2687 -0.2562  0.0266
12982W        W29829   3.706  14.861  11.078 -0.1288 -0.0098  0.0022
12983W        W29830  12.344  10.050   4.605 -0.0108  0.2228  0.0428
12984W        W29831  10.687   5.819   4.936  0.1283  0.1069 -0.1061
12985W        W29832   3.841   9.711   0.249  0.1382  0.1304  0.1478
12986W        W29833   5.519  13.877   9.356 -0.1610  0.0781 -0.1284
12987W        W29834   7.051   3.952   2.024  0.3993  0.0659 -0.0448
12988W        W29835  13.490   5.467   1.931  0.0642 -0.5362  0.3876
12989W        W29836   9.709  10.347   0.427  0.0006 -0.1993  0.2192
12990W        W29837   6.872   6.596   0.247  0.0352  0.0706 -0.0159
12991W        W29838   7.661   6.772  12.298  0.0004 -0.4100  0.1061
12992W        W29839   3.851  15.049  14.267 -0.6476  0.2378  0.0755
12993W        W29840   2.456  10.736  12.564  0.0595 -0.1741  0.0522
12994W        W29841  12.157   1.545  10.769  0.0648  0.1467 -0.0492
12995W        W29842  16.040  12.600   1.207 -0.4077 -0.0641  0.2265
12996W        W29843  17.971  15.732   5.535 -0.0943 -0.1321 -0.2212
12997W        W29844  17.491   3.913  12.899 -0.2263 -0.0272 -0.0084
12998W        W29845   4.968   9.706   2.065 -0.2804  0.0676  0.1132
12999W        W29846   6.975  13.479   2.525 -0.2523 -0.2921  0.3081
13000W        W29847   7.656  11.628   4.812  0.1400  0.2201  0.0722
13001W        W29848   3.830   9.231   1.833  0.1844  0.1259  0.0476
13002W        W29849  14.510  12.250  10.878 -0.0739  0.2142 -0.2258
13003W        W29850  12.844   2.166  14.484 -0.0701 -0.0175 -0.1029
13004W        W29851  18.079   6.837   1.030  0.1177  0.2370  0.2617
13005W        W29852  15.514   6.013   0.013 -0.0538 -0.0728  0.2019
13006W        W29853   2.865   5.502  11.935 -0.0376  0.0472  0.1274
13007W        W29854   8.522  11.245  13.548  0.2990 -0.0172  0.0536
13008W        W29855  17.342  17.790  13.284 -0.1348  0.0922 -0.0256
13009W        W29856   2.669  17.394   0.302 -0.2375 -0.1649 -0.1808
13010W        W29857  12.696  11.496  13.336  0.0470 -0.1279  0.1779
13011W        W29858  17.392   2.808   3.191 -0.3021 -0.0696 -0.2872
13012W        W29859  17.676   2.116   5.319  0.0283  0.0812 -0.1089
13013W        W29860   5.738  12.756  14.930  0.0516 -0.1766  0.0736
13014W        W29861   4.828   2.509   4.518 -0.0208  0.1753  0.0446
13015W        W29862  12.372   6.141   4.284  0.1093 -0.1081  0.1662
13016W        W29863   7.927  10.561   2.711 -0.0342  0.2321 -0.2436
13017W        W29864   4.463   5.163  11.303  0.2517 -0.0996 -0.2513
13018W        W29865  14.296  11.998  13.721 -0.0919  0.1682 -0.1365
13019W        W29866  14.391  12.407  12.556 -0.0941  0.2616 -0.0229
13020W        W29867  11.053   2.701   3.209 -0.0845 -0.1349 -0.2139
13021W        W29868  14.678   0.530   1.980  0.1813 -0.0351 -0.1750
13022W        W29869  16.257   1.810   1.292  0.1071 -0.2131  0.0680
13023W        W29870   2.701  15.132  11.523  0.1971  0.1817  0.0503
13024W        W29871   3.374  14.097   0.405 -0.0511  0.2257 -0.0892
13025W        W29872  12.585  12.960   1.291 -0.1280  0.0814 -0.1206
13026W        W29873  15.200   1.736   1.298  0.2127 -0.0771  0.0174
13027W        W29874  10.705   6.753   3.582  0.0744 -0.1053 -0.1980
13028W        W29875  17.105   3.613  12.453 -0.3518 -0.1386 -0.1551
13029W        W29876   9.293  13.742  11.448 -0.0887  0.1349  0.3008
13030W        W29877   3.559  14.940  11.538  0.0020 -0.0649 -0.2167
13031W        W29878   7.483   0.571   1.374 -0.0839 -0.1939  0.1388
13032W        W29879  11.266   6.314  12.804  0.0807 -0.1748 -0.0355
13033W        W29880   1.673   9.768   0.780  0.1485 -0.1069 -0.5574
13034W        W29881   7.866  10.208  13.919  0.1372 -0.0473  0.0670
13035W        W29882  15.063   5.308  13.954 -0.2586 -0.1445 -0.4865
13036W        W29883  13.142  17.653   2.657 -0.3143 -0.0847 -0.0980
13037W        W29884  13.728   9.823  12.257 -0.2746  0.1228 -0.1106
13038W        W29885   4.606  14.073  12.124 -0.3053  0.0572  0.1063
13039W        W29886   1.498  18.759   2.442  0.0386  0.1473  0.1529
13040W        W29887  16.505   3.855   2.521 -0.2293 -0.0328 -0.1212
13041W        W29888   4.224  10.629   1.678 -0.0431  0.1321  0.0327
13042W        W29889   2.209   0.350   1.050 -0.1306 -0.4183  0.0843
13043W        W29890   6.733   9.618  12.530 -0.1300  0.3955 -0.1606
13044W        W29891  13.558   3.812  13.684  0.0522 -0.0043 -0.0347
13045W        W29892  12.047   8.594  11.024  0.0800 -0.2739  0.1516
13046W        W29893  18.364  11.369   0.761 -0.2336 -0.1652  0.0802
13047W        W29894   1.970   2.885   2.609 -0.2975 -0.0728 -0.0824
13048W        W29895  18.233  17.241  10.986 -0.2774  0.0215  0.0170
13049W        W29896  18.920   0.831  13.915 -0.0388  0.1847 -0.1372
13050W        W29897  13.037   1.113  11.078 -0.3877 -0.3185  0.1649
13051W        W29898  18.836   5.207   4.601  0.1813  0.3378  0.1467
13052W        W29899  11.740   8.138  11.069  0.0428  0.0491  0.1237
13053W        W29900   7.193   4.994  11.803  0.2405 -0.1468  0.2677
13054W        W29901   5.933  14.029  10.629  0.0431  0.4033 -0.1559
13055W        W29902  14.892   2.968   3.998  0.0652  0.0204 -0.0935
13056W        W29903   6.987   1.123  12.535  0.0107  0.1976  0.2337
13057W        W29904  12.590   3.753   1.823 -0.3187 -0.2414  0.4865
13058W        W29905  16.443  12.337   4.221 -0.2243  0.1765  0.1890
13059W        W29906   0.484  10.596   3.553  0.5660 -0.1869  0.0100
13060W        W29907   0.732  16.492   4.567  0.0840  0.1933 -0.0340
13061W        W29908   4.341   8.978  14.431 -0.0718  0.2030  0.2809
13062W        W29909   2.395   4.118  14.354  0.2719 -0.1901 -0.3025
13063W        W29910   3.740  14.196  12.014  0.0279  0.1990 -0.3510
13064W        W29911   9.141  12.107   1.561  0.3615 -0.1085  0.3623
13065W        W29912   3.213  18.750  13.635  0.1962 -0.2788  0.0288
13066W        W29913  13.094  12.883  14.917  0.1841  0.0570  0.0032
13067W        W29914  18.368  18.289  13.805  0.2049 -0.0388  0.1662
13068W        W29915  19.104  16.973   0.336  0.2071 -0.1702  0.2652
13069W        W29916   2.413   4.791  12.310 -0.1426 -0.2718  0.0878
13070W        W29917   2.540   4.052   0.144  0.2238 -0.1718  0.2499
13071W        W29918  12.698   8.488   4.520 -0.1679  0.3146  0.1650
13072W        W29919   2.535   2.144  11.432  0.0629  0.0681  0.1567
13073W        W29920   4.321   4.967  14.696 -0.5855  0.1247  0.3364
13074W        W29921   1.023   3.604  12.933  0.1556  0.0657  0.2296
13075W        W29922  13.105  18.991   4.506 -0.0323 -0.1673 -0.0452
13076W        W29923   5.870   8.443  13.554 -0.0240 -0.1757  0.0984
13077W        W29924   9.019  13.476  14.813  0.2049 -0.0033  0.0031
13078W        W29925   7.560   7.969  12.326 -0.0434  0.0811  0.0567
13079W        W29926  15.649  18.004   4.739  0.2756  0.1559 -0.2300
13080W        W29927   7.022  15.111   4.124  0.0825  0.0156  0.2676
13081W        W29928   6.220   6.073   0.522  0.0302  0.0386 -0.2627
13082W        W29929   9.197  17.962   2.729  0.1242  0.1451  0.2317
13083W        W29930   5.151   7.289  12.814 -0.0946  0.2013  0.1868
13084W        W29931  17.454  19.114   0.782 -0.1126  0.1010 -0.1065
13085W        W29932  18.694   3.666   0.611  0.0675  0.0349  0.1480
13086W        W29933   4.389  13.782  13.042 -0.2362  0.1100 -0.1148
13087W        W29934   2.107   5.157  12.520  0.3654 -0.0564  0.1391
13088W        W29935  12.876   1.423  13.320  0.1301 -0.0888 -0.0561
13089W        W29936  17.093  11.781   1.503  0.0402 -0.0954 -0.0625
13090W        W29937   3.265   8.996  13.638  0.2227 -0.5307  0.1003
13091W        W29938  15.587  11.562   3.123  0.0033 -0.0192  0.1675
13092W        W29939   6.585   0.178  10.674  0.0841  0.1856  0.0411
13093W        W29940   9.615   9.430  10.506 -0.2377 -0.1631 -0.1666
13094W        W29941   7.976   4.434   3.121  0.2016 -0.2068 -0.0839
13095W        W29942   9.594   0.794  12.742  0.2391  0.0721 -0.0638
13096W        W29943  10.028  11.309   3.533  0.1467  0.0126  0.3430
13097W        W29944   9.343  16.230   3.320 -0.4000 -0.1566 -0.0874
13098W        W29945   5.021   8.830  10.395 -0.1010 -0.0009  0.2027
13099W        W29946   0.879  19.116  11.955 -0.2843 -0.2213 -0.3089
13100W        W29947  11.579   2.288  14.661  0.2042 -0.2965  0.2149
13101W        W29948  18.606   6.164  10.421 -0.3401 -0.0731 -0.0907
13102W        W29949   5.986  14.248  15.001  0.1888  0.1398 -0.0698
13103W        W29950  18.570  10.636  12.981  0.0901  0.1688  0.0993
13104W        W29951  16.374   1.753   1.848  0.0126  0.0233 -0.0121
13105W        W29952   4.190   1.718   0.615  0.2075  0.1517 -0.0724
13106W        W29953   5.290   8.795   2.166 -0.1624  0.3019 -0.2567
13107W        W29954   2.751   5.246   4.647 -0.1251  0.2718 -0.0970
13108W        W29955   4.782  12.778  13.210  0.2026  0.3476 -0.1585
13109W        W29956  13.754  13.162   0.570  0.0858  0.3964  0.1591
13110W        W29957  17.125   6.195  13.114 -0.4777 -0.1899 -0.2512
13111W        W29958  15.404  18.860  13.880  0.0895  0.0771  0.1097
13112W        W29959   9.205   7.751  13.152 -0.2678  0.0503 -0.3984
13113W        W29960   5.093   4.412   1.818  0.2763  0.0085 -0.3620
13114W        W29961   7.409  17.427   0.073  0.2399 -0.0380 -0.0436
13115W        W29962   4.876  13.109   0.137  0.3488  0.0124 -0.2095
13116W        W29963  11.597   1.418  11.204 -0.2103  0.1351  0.0909
13117W        W29964  16.688  10.638  10.991  0.0587  0.0382  0.1081
13118W        W29965  10.050   9.421  12.666 -0.1569  0.0694 -0.2049
13119W        W29966   6.305  14.448  14.511  0.1781  0.1727 -0.0586
13120W        W29967  17.130   0.196  10.626 -0.0840 -0.0313  0.1938
13121W        W29968   7.942  11.824   2.085 -0.0143 -0.1508  0.1675
13122W        W29969   2.006  11.130  12.353 -0.0320  0.2938  0.1137
13123W        W29970   2.693  13.904   9.858  0.0340  0.0691 -0.2761
13124W        W29971  18.531   7.530   4.779 -0.1442 -0.2446  0.1261
13125W        W29972   6.703  10.816  14.548 -0.2585 -0.1365  0.1299
13126W        W29973   4.170  16.739   0.257  0.2238  0.2090  0.2439
13127W        W29974   2.504   2.863   4.839 -0.2545 -0.1662  0.0731
13128W        W29975   1.819   1.469  14.206  0.2336 -0.2009  0.1096
13129W        W29976   8.199   6.723  11.639  0.0078  0.4898 -0.1775
13130W        W29977   6.844  13.611  11.239 -0.1350 -0.0309  0.1064
13131W        W29978  18.390  16.456  14.211 -0.1660  0.1586  0.1307
13132W        W29979   2.749   6.510   4.264 -0.3104 -0.1916  0.0107
13133W        W29980  11.465   5.069  12.081 -0.1135  0.1728  0.1784
13134W        W29981   3.760  16.004  14.652  0.2671 -0.0197 -0.0741
13135W        W29982   6.407   6.913   3.959  0.0734  0.1654 -0.0778
13136W        W29983   7.864   9.824  11.095 -0.0314 -0.1695  0.1197
13137W        W29984   8.001   3.108  12.242 -0.1740  0.0659 -0.2547
13138W        W29985  14.979  13.049  14.466 -0.2656  0.1432 -0.2488
13139W        W29986   9.286   9.810   3.204 -0.0282  0.2112 -0.0732
13140W        W29987  17.648   3.674  12.466  0.6217 -0.0480  0.0728
13141W        W29988  13.226   2.829   2.235 -0.0278  0.1685  0.2716
13142W        W29989  14.193  11.840   0.605 -0.0169  0.0848  0.2175
13143W        W29990  11.555   8.579  10.911 -0.2992 -0.1912 -0.1974
13144W        W29991  10.144   2.812   1.055 -0.0883 -0.1173  0.0251
13145W        W29992   6.382  15.908   4.016  0.1617  0.2603 -0.1249
13146W        W29993   9.864   2.035   1.270  0.0205 -0.0378  0.0463
13147W        W29994   1.154   8.408  11.304  0.0131  0.3333 -0.0400
13148W        W29995  11.646  18.760  12.296  0.1056  0.1060 -0.4531
13149W        W29996   5.431  19.263  14.698  0.1815  0.2093 -0.0200
13150W        W29997   6.996   2.862   0.506 -0.2028  0.2117  0.1531
13151W        W29998  13.668   0.802   3.858  0.4215 -0.1902  0.0257
13152W        W29999  13.604   8.214   0.475  0.0124  0.1047 -0.1151
13153W        W30000   6.448  11.713  14.101  0.0971 -0.2210  0.0766
13154W        W30001  15.822  18.884   5.039  0.1349  0.0879 -0.2422
13155W        W30002  17.680  14.447  14.344 -0.0040 -0.1957  0.0952
13156W        W30003   6.244  12.437  13.214  0.1447  0.0098  0.0136
13157W        W30004   5.037   7.996  10.898 -0.1285 -0.2677 -0.0504
13158W        W30005  16.782  17.017   2.519  0.1827 -0.3492 -0.1341
13159W        W30006  18.434  10.362   3.771  0.1340 -0.1862 -0.1149
13160W        W30007  11.505   3.440  11.554 -0.0538  0.1743  0.2835
13161W        W30008  10.167   0.185   3.944  0.0925  0.1416  0.1757
13162W        W30009  11.608  11.724  10.548 -0.0096 -0.0802  0.0411
13163W        W30010  16.024  18.100   1.233  0.0857 -0.1750  0.2389
13164W        W30011   5.272  11.724  13.530 -0.3478 -0.0823 -0.2408
13165W        W30012  13.892  14.223   3.216  0.2685 -0.0531  0.1917
13166W        W30013   1.585  12.139   4.307 -0.1079  0.2681  0.0087
13167W        W30014  13.008  15.940   0.423  0.2852 -0.0809  0.0301
13168W        W30015  13.533  18.814   2.237 -0.2095 -0.3857 -0.0882
13169W        W30016   3.362  10.394   1.779  0.0707  0.1713  0.1804
13170W        W30017  18.018  15.743   3.990  0.0322  0.0446  0.1092
13171W        W30018  17.656   7.333   4.549 -0.2446  0.4001 -0.2197
13172W        W30019   6.393   2.664  10.595  0.0580  0.2239 -0.1151
13173W        W30020   4.688  19.272  12.463 -0.2086  0.0066  0.0197
13174W        W30021  10.631  10.980   2.572 -0.1207  0.0343  0.0293
13175W        W30022  16.178   4.781   4.427 -0.3632  0.0004 -0.0123
13176W        W30023   9.018  16.065   2.961 -0.1822  0.0534 -0.0667
13177W        W30024   1.598   0.387   3.539 -0.2965 -0.3411 -0.0770
13178W        W30025  10.825   3.003  12.029 -0.2351  0.0472 -0.1551
13179W        W30026   2.863  13.046   0.687  0.3187 -0.2753  0.0039
13180W        W30027  17.105   8.366   0.162 -0.1988  0.0680  0.1153
13181W        W30028   7.201   7.551  10.981  0.0588 -0.3399  0.0896
13182W        W30029  11.208   1.744   5.122 -0.2942 -0.0410  0.1031
13183W        W30030  10.923   9.323   4.575 -0.2646  0.1911  0.1354
13184W        W30031   7.810   0.235   1.700  0.0983 -0.1331  0.1144
13185W        W30032   2.616  15.482   3.515  0.4363 -0.2479 -0.0839
13186W        W30033  11.571   5.336   3.648 -0.1849  0.1308  0.1113
13187W        W30034  11.264  16.895  13.146 -0.2215  0.0252 -0.2459
13188W        W30035  11.765  16.539   2.660 -0.0888  0.0790  0.0463
13189W        W30036  10.535   3.427  13.087  0.0219 -0.1161 -0.0547
13190W        W30037  11.497  16.729  14.605  0.0654 -0.0170 -0.0627
13191W        W30038   5.272   8.954   9.382  0.2061 -0.0373 -0.1727
13192W        W30039   4.986  16.301  13.223 -0.2223 -0.2613  0.4152
13193W        W30040   1.106  17.279   4.066  0.2630 -0.0547 -0.2038
13194W        W30041   2.310  11.765  11.861  0.2683 -0.0618  0.2606
13195W        W30042  15.004   6.904  13.026  0.1545 -0.3191  0.0818
13196W        W30043   8.736   8.166  12.881 -0.2283 -0.1329 -0.1514
13197W        W30044  11.442  16.808  10.911 -0.2251  0.0150 -0.1637
13198W        W30045  14.835   0.791   2.992 -0.1830  0.1450  0.0287
13199W        W30046   1.686  11.357   2.573 -0.1412  0.0257 -0.0708
13200W        W30047  12.313   5.892   2.072 -0.0835 -0.1058  0.2532
13201W        W30048   4.009  12.272   0.922  0.2858 -0.1938 -0.2700
13202W        W30049  16.855  18.109  11.742 -0.1258  0.0277  0.2467
13203W        W30050   1.968   7.011  10.702  0.0032 -0.1396  0.1857
13204W        W30051   2.155  18.582   3.232  0.0248  0.0336 -0.4904
13205W        W30052  18.015   0.759  13.350  0.2613  0.0554 -0.1507
13206W        W30053  12.285   1.309   3.012 -0.1302 -0.0279  0.1642
13207W        W30054  12.233  12.951   2.208  0.2604 -0.0577  0.3632
13208W        W30055   4.573  15.161   3.907  0.1920 -0.1505 -0.0771
13209W        W30056   2.696  16.872   0.239 -0.2327 -0.4688 -0.0429
13210W        W30057  17.642  14.170  14.777 -0.3000  0.1662  0.0189
13211W        W30058  10.387   5.145  10.775 -0.1436 -0.1222  0.0056
13212W        W30059  16.441   6.412   1.490 -0.2176 -0.0038 -0.1130
13213W        W30060   7.204   7.931   0.506 -0.1691  0.0548  0.0321
13214W        W30061  11.966   5.660  10.203  0.1289 -0.2990 -0.0533
13215W        W30062   3.900   1.030  11.324  0.0041 -0.0300 -0.0894
13216W        W30063   8.392  13.053   1.262 -0.1598  0.3129 -0.1122
13217W        W30064  12.742   5.734   2.364  0.3848 -0.0466 -0.2265
13218W        W30065  10.409   9.850  10.934  0.1483 -0.0129 -0.1125
13219W        W30066   5.732  17.274  14.415  0.0249  0.1099  0.1296
13220W        W30067   3.031   1.169  11.209  0.1211  0.3435  0.1267
13221W        W30068   7.513   1.354   2.406 -0.1098  0.1200  0.2513
13222W        W30069  13.119   2.769   4.659 -0.0771 -0.3609  0.4464
13223W        W30070  14.485   2.828  14.168 -0.0828  0.0645 -0.1420
13224W        W30071  14.316  17.538  11.470  0.0517 -0.3881  0.2540
13225W        W30072   4.796   3.507  11.422 -0.5022 -0.0978 -0.1939
13226W        W30073   6.237  15.947   2.420 -0.5293  0.1540  0.0906
13227W        W30074   7.900   4.026   2.527  0.2833  0.1204 -0.5088
13228W        W30075   8.891  15.124  14.030 -0.1401  0.1474  0.0079
13229W        W30076  14.308   7.037   9.434 -0.3891 -0.0515 -0.1315
13230W        W30077  10.215   0.029  12.465  0.0119  0.0814 -0.1194
13231W        W30078  14.731  10.306   1.680 -0.0026 -0.2632  0.1405
13232W        W30079   5.099   7.632   2.819 -0.1698  0.1058  0.1236
13233W        W30080  17.832  15.035   0.058 -0.0565 -0.3236  0.3099
13234W        W30081  17.126  18.453  12.043 -0.1751 -0.0669  0.0764
13235W        W30082  10.855   6.038  12.918  0.0163  0.1371  0.1193
13236W        W30083   8.147  18.003  13.899 -0.0422  0.0247  0.2358
13237W        W30084  12.311  14.515   2.129  0.3192 -0.0984 -0.0440
13238W        W30085   0.859  11.249  11.092  0.1755  0.1149  0.2761
13239W        W30086   5.391   5.922  13.429 -0.1067  0.0752  0.0027
13240W        W30087  10.631   5.301  12.375  0.0091  0.0739  0.0627
13241W        W30088  12.563   1.479   1.775  0.2356 -0.0060 -0.2114
13242W        W30089   1.367   5.765  13.393 -0.2727  0.2871 -0.4255
13243W        W30090   5.066   6.689  12.167 -0.1050  0.1424 -0.3720
13244W        W30091   5.131   3.264  10.427  0.0148 -0.1510 -0.0446
13245W        W30092  15.986   4.397  10.584 -0.2964 -0.0193  0.3335
13246W        W30093  13.147   3.484  13.706  0.1328 -0.0452  0.0375
13247W        W30094   2.777  13.630  10.757  0.0561  0.3572  0.2769
13248W        W30095  14.092  10.073  10.957  0.1606  0.1916 -0.2385
13249W        W30096  14.811  18.272   2.254  0.1208 -0.2199  0.2850
13250W        W30097  17.115  12.920  13.061 -0.0960  0.0918  0.0697
13251W        W30098  11.096  12.028   0.779 -0.0159 -0.0459  0.3398
13252W        W30099  11.838  16.948  11.370  0.0275 -0.1631  0.1221
13253W        W30100   0.890   9.026  13.767  0.0091 -0.3073 -0.0997
13254W        W30101  16.841  11.053   2.151 -0.0553  0.0598 -0.0431
13255W        W30102   0.368  13.793   1.113  0.0537  0.3125  0.1558
13256W        W30103   2.418   5.313  10.436 -0.0503 -0.0004 -0.2309
13257W        W30104   2.012   9.124   1.660 -0.0172 -0.4583 -0.0451
13258W        W30105   4.162   1.282   0.217  0.0912 -0.0396 -0.0358
13259W        W30106  18.961  16.734  11.707  0.1588  0.1914 -0.0882
13260W        W30107  14.214  14.614  13.344 -0.0068 -0.2375  0.2605
13261W        W30108   3.698  18.219   4.030  0.0347 -0.1551 -0.2734
13262W        W30109  11.227   3.489   0.784 -0.0970 -0.0306  0.1730
13263W        W30110  19.009   2.037   1.092  0.3066  0.3461 -0.1190
13264W        W30111   8.494   8.886  11.808  0.0710 -0.0637 -0.4663
13265W        W30112  14.651   9.152  10.787  0.1497  0.1211  0.1739
13266W        W30113   8.253  10.735   1.139 -0.2909  0.0516  0.1682
13267W        W30114  11.714  17.658   4.185 -0.1029 -0.1703  0.1844
13268W        W30115   7.137  11.796  12.360  0.0691 -0.1322 -0.1035
13269W        W30116   4.983   1.733   3.517 -0.2746  0.2747  0.0999
13270W        W30117  15.303  15.433   0.748  0.1715  0.2459 -0.0335
13271W        W30118   7.376   5.193   2.119 -0.1423 -0.1737 -0.2670
13272W        W30119   2.989   7.724   5.336  0.0114  0.1578  0.0599
13273W        W30120   0.700   5.752  11.193  0.2732  0.1503  0.0709
13274W        W30121  17.781   5.006  14.994 -0.1175 -0.2998 -0.0120
13275W        W30122  10.625  10.487   1.212  0.1659  0.2463  0.0561
13276W        W30123   3.743  17.102  11.922 -0.1042 -0.1290 -0.0769
13277W        W30124   4.092  11.145  11.607 -0.1315 -0.1611  0.1156
13278W        W30125  17.964  12.325  13.232 -0.2191  0.0003  0.1397
13279W        W30126  13.109   3.017  14.507 -0.2217 -0.4526 -0.1114
13280W        W30127  11.116  11.818  11.825  0.3279 -0.1844 -0.0698
13281W        W30128   1.970   6.556  14.727 -0.1204 -0.1872 -0.0454
13282W        W30129  10.563   8.903   1.378  0.1028  0.0088  0.2756
13283W        W30130  12.267  14.554  14.283  0.1726  0.0135 -0.0447
13284W        W30131   2.371   4.133  12.961  0.0848 -0.0290  0.0534
13285W        W30132  17.838  10.734   4.337  0.1016 -0.0945 -0.2900
13286W        W30133  14.602   7.112   1.513 -0.0572  0.1700  0.0801
13287W        W30134   0.882   1.624  12.790 -0.0508 -0.1743  0.0688
13288W        W30135   5.848   9.987   9.086 -0.0279 -0.3674  0.0372
13289W        W30136   0.323  16.666   0.528  0.0523 -0.2185  0.0024
13290W        W30137  13.981  17.093   0.571  0.0938 -0.0214 -0.0368
13291W        W30138   2.688  15.403   1.378 -0.3246 -0.0771  0.4827
13292W        W30139  15.783  13.367   2.763 -0.1888 -0.1772  0.3662
13293W        W30140   6.616  18.219   1.979 -0.0030  0.0618  0.1674
13294W        W30141  19.257  11.454   0.223 -0.2812 -0.1769 -0.0717
13295W        W30142   9.410   7.566  12.543 -0.2448 -0.0469 -0.3451
13296W        W30143   7.735   3.011  10.475  0.0052  0.0954 -0.0985
13297W        W30144   0.722  12.018  13.470  0.2489  0.2703  0.1207
13298W        W30145  14.784   3.060   3.130 -0.0450 -0.0321 -0.0327
13299W        W30146  13.608   2.699  12.890 -0.0200  0.1967 -0.0534
13300W        W30147   9.320   2.430   4.203  0.0751 -0.4052  0.1077
13301W        W30148   5.273  11.178   0.101 -0.1644  0.2384 -0.1564
13302W        W30149  10.198  14.954  12.586  0.3373  0.0233 -0.0261
13303W        W30150   5.292  10.347   2.434  0.4156 -0.0363  0.2446
13304W        W30151  18.519   7.914   5.103 -0.0016  0.0830 -0.1523
13305W        W30152  11.351   5.423  13.775  0.0468  0.1216  0.2036
13306W        W30153  18.600  16.075   0.215  0.1389 -0.0263  0.2185
13307W        W30154  11.911  12.267   3.551 -0.2146 -0.1449 -0.1320
13308W        W30155   6.229   7.925   2.935  0.1192  0.0771  0.0339
13309W        W30156  18.949   8.583   4.194  0.1612  0.1024  0.2316
13310W        W30157  16.040   6.887   3.361 -0.2652 -0.1632  0.2257
13311W        W30158   1.529   8.402  14.265  0.2446 -0.1529 -0.0964
13312W        W30159  16.714  13.762  11.492 -0.0496 -0.2414 -0.3452
13313W        W30160   1.869   7.908  11.913  0.2407 -0.1083  0.2244
13314W        W30161  16.076  14.804  13.669 -0.2460 -0.0804 -0.0987
13315W        W30162  16.176   7.743  13.269 -0.0633  0.1868 -0.3771
13316W        W30163   3.263   0.790  11.813 -0.2699 -0.0699 -0.0483
13317W        W30164   8.993  17.798   0.268  0.2965 -0.0037  0.0746
13318W        W30165  13.678   7.476   3.838 -0.2608  0.1558 -0.2310
13319W        W30166   6.583  13.203   2.500 -0.3045  0.0652 -0.1332
13320W        W30167   3.215   5.144  12.350 -0.0804 -0.1632 -0.0717
13321W        W30168  11.048   8.601   2.284  0.1413 -0.2096 -0.0869
13322W        W30169  16.786  12.800  10.419  0.0045 -0.0690 -0.0403
13323W        W30170   9.686  15.158  11.660  0.0204 -0.0265 -0.3669
13324W        W30171  18.652  17.166  13.410  0.1790  0.1094 -0.2771
13325W        W30172   3.776   1.604   0.909  0.2850 -0.1650 -0.0234
13326W        W30173   6.380   2.681  13.968  0.2824  0.2385  0.2131
13327W        W30174  14.947  14.042   1.382  0.0504  0.1998 -0.0654
13328W        W30175  15.313  13.116   2.696 -0.2831 -0.2079  0.0128
13329W        W30176  16.511  16.397   3.368 -0.2523 -0.2701  0.0226
13330W        W30177   1.920   6.884   2.404  0.2394 -0.0412 -0.0504
13331W        W30178  14.988   4.366   4.773 -0.0368 -0.0260 -0.2794
13332W        W30179  10.296   3.644   4.640  0.1142  0.0382 -0.0478
13333W        W30180  11.911  11.802   0.191 -0.0967 -0.1228 -0.1322
13334W        W30181  18.628   7.987   0.668  0.0333  0.1164 -0.0616
13335W        W30182  12.720  10.323   3.503  0.1866 -0.1431  0.3353
13336W        W30183  12.060  18.051  14.999  0.2015  0.1151 -0.0609
13337W        W30184   4.519  13.671  14.681  0.3932  0.0035 -0.2152
13338W        W30185  11.075  17.389   4.031  0.1080 -0.0129  0.2330
13339W        W30186  13.450  15.032  10.646  0.0110 -0.1353 -0.1275
13340W        W30187  16.971   9.579   0.162  0.3893 -0.0179 -0.0034
13341W        W30188   7.370   2.948   5.363  0.0353 -0.0281  0.0231
13342W        W30189  12.382  18.170   5.737  0.0458 -0.0052 -0.2631
13343W        W30190  19.140   7.154  14.380 -0.2736  0.0242  0.1502
13344W        W30191  14.805  11.644   2.191 -0.2998 -0.1637  0.1238
13345W        W30192  16.143   1.344  13.426  0.0200  0.4795 -0.1769
13346W        W30193  16.116  16.896  14.250  0.1296 -0.3686  0.0136
13347W        W30194   0.673   3.342   1.103 -0.1886  0.0472  0.2315
13348W        W30195   6.242   9.515  10.942 -0.0970 -0.2198 -0.1066
13349W        W30196   1.580   1.144  11.076  0.3150 -0.0857  0.2544
13350W        W30197  18.919   5.690   0.736 -0.1465 -0.0291  0.0718
13351W        W30198  18.978  14.745   3.740 -0.2040 -0.1228 -0.1049
13352W        W30199  13.404   2.784  10.981  0.1329  0.0180 -0.0628
13353W        W30200  15.780   7.600   1.901 -0.0742 -0.0501 -0.2179
13354W        W30201  14.469   6.188  11.185 -0.1995 -0.2004  0.1639
13355W        W30202  17.186   2.191  14.487 -0.2879 -0.0171 -0.0480
13356W        W30203  12.095   4.504   4.383  0.2433 -0.1823  0.0828
13357W        W30204   5.141   1.838  13.562 -0.0172  0.1095 -0.1748
13358W        W30205   1.531  16.629  13.743 -0.1032 -0.0393  0.0318
13359W        W30206   5.699  16.112   3.211  0.2188  0.1913 -0.5249
13360W        W30207  18.900  17.454  13.687  0.0478  0.0962 -0.2434
13361W        W30208  17.918   7.543  12.966 -0.1226 -0.4614 -0.2707
13362W        W30209  18.493   6.229   3.230 -0.2346  0.0503  0.1362
13363W        W30210  17.275  12.608  14.229 -0.0138  0.0867 -0.1788
13364W        W30211   1.302  11.776   0.492 -0.2169 -0.0635 -0.1484
13365W        W30212  17.302   1.265  11.214 -0.3101 -0.2269  0.1631
13366W        W30213  10.178  10.384  10.223 -0.0713  0.2222  0.0049
13367W        W30214   6.622   2.073   0.607  0.2078  0.0758  0.1122
13368W        W30215   1.047  12.237   4.429  0.0583  0.0124  0.0856
13369W        W30216  13.030   2.296  12.698 -0.0275  0.0232  0.0294
13370W        W30217   2.622  18.827  11.414 -0.2142 -0.0995  0.1007
13371W        W30218   7.327  12.433   3.950 -0.2503 -0.2954  0.0135
13372W        W30219  15.840  18.162  14.304 -0.1501 -0.2811  0.2824
13373W        W30220   6.346   1.016  11.906 -0.1620  0.0177  0.2638
13374W        W30221  18.233   1.851   5.160 -0.0431  0.1103  0.2590
13375W        W30222  10.883   6.442  11.123  0.0020  0.0734  0.0889
13376W        W30223  19.014  14.693  10.476  0.0755 -0.4031  0.1518
13377W        W30224  13.841   6.241  11.895 -0.0904 -0.0239 -0.0894
13378W        W30225  13.944   4.062   1.129 -0.0108  0.0852 -0.0236
13379W        W30226  16.183   4.961   3.940 -0.1014  0.2868  0.1744
13380W        W30227  17.089  13.920   3.464  0.2226  0.0805  0.0066
13381W        W30228  16.450  11.574  14.364  0.0096 -0.4032  0.1589
13382W        W30229   0.809  17.034   4.632  0.0239 -0.1725  0.1774
13383W        W30230   2.880   3.477  12.629  0.1312 -0.0955 -0.0227
13384W        W30231   0.545   2.361  11.274 -0.0669  0.1857  0.2629
13385W        W30232   3.834   8.486   4.834 -0.0925  0.0753 -0.4155
13386W        W30233  11.845   4.368  14.489 -0.0797  0.0524 -0.5290
13387W        W30234   1.935  12.093   4.683 -0.1766  0.0024 -0.0055
13388W        W30235   8.617   2.297   3.476  0.1523  0.2918  0.0142
13389W        W30236   1.695   5.421   5.601  0.0853  0.4121 -0.0050
13390W        W30237   6.395  14.029   4.527 -0.3197 -0.1372 -0.0447
13391W        W30238   2.575   5.175   1.422 -0.1476  0.2570  0.0797
13392W        W30239  16.974  17.837   4.283  0.0777 -0.2172 -0.1089
13393W        W30240  12.838  13.301   0.674 -0.0427 -0.1744  0.2083
13394W        W30241   9.350   1.206   0.962  0.0676  0.0893 -0.0877
13395W        W30242  19.005  18.047  12.447  0.0234  0.1380  0.1749
13396W        W30243   4.689   4.208   4.567  0.0201 -0.0176 -0.2107
13397W        W30244  16.297  14.372  13.477 -0.0698 -0.3568 -0.0371
13398W        W30245  18.741   4.861   3.035 -0.1092  0.0118 -0.1429
13399W        W30246   1.690   6.738   4.389 -0.2038 -0.0964 -0.1306
13400W        W30247  11.703   6.044   2.017  0.0551 -0.3108 -0.2035
13401W        W30248  18.759   6.986   3.674 -0.2094  0.2321  0.2183
13402W        W30249  18.899  13.236   0.119 -0.1626  0.1921 -0.3200
13403W        W30250  12.142   7.862   3.965 -0.0523  0.1161 -0.1879
13404W        W30251   8.173   8.809   4.772 -0.1031  0.3777 -0.0610
13405W        W30252   6.100   4.431   1.750 -0.0829 -0.0693  0.4605
13406W        W30253  18.417   6.016  14.197 -0.1994  0.1270  0.1428
13407W        W30254  15.879   6.192  12.107 -0.1313 -0.2392  0.2011
13408W        W30255  16.812  11.902  13.148  0.0771 -0.1502 -0.3625
13409W        W30256  14.891  12.079   3.811  0.3019  0.1169  0.2761
13410W        W30257  18.768  14.444  14.381 -0.1142  0.3262 -0.2296
13411W        W30258  15.991  17.151   1.349  0.0977  0.2564  0.0572
13412W        W30259  17.828  13.359   2.822  0.0447  0.2029 -0.1105
13413W        W30260  10.623  12.691   0.361  0.0013  0.2332  0.1573
13414W        W30261   3.950  15.777  10.939  0.2005  0.3366 -0.0781
13415W        W30262   1.139  11.607  14.962  0.1710 -0.0243 -0.1175
13416W        W30263   3.256  12.277   2.799 -0.3768  0.2735 -0.0022
13417W        W30264   9.489  10.069   2.810  0.0140 -0.1407  0.1551
13418W        W30265  15.016  17.629  12.457 -0.1937  0.0264  0.0385
13419W        W30266   8.144   7.198  10.976  0.2494 -0.1333 -0.0839
13420W        W30267   8.770   3.995  11.232 -0.1449  0.1672  0.0819
13421W        W30268  11.881   0.437  13.267 -0.4547  0.2707  0.1680
13422W        W30269  10.228   4.136   3.039  0.0683 -0.2353 -0.4286
13423W        W30270  15.471   6.139  10.876 -0.1306  0.1407 -0.1903
13424W        W30271  17.349  15.737   2.934 -0.2557 -0.1739 -0.1817
13425W        W30272  14.149   2.596   3.697 -0.0469  0.0445 -0.1064
13426W        W30273   0.349   8.703  10.873 -0.4577 -0.1335 -0.2587
13427W        W30274  17.320  14.148  11.399  0.1521 -0.1438  0.2060
13428W        W30275  13.629   9.957   5.002 -0.1583 -0.0216 -0.0897
13429W        W30276   0.933   2.639  11.160 -0.0326  0.0573  0.2000
13430W        W30277  11.659   2.837  11.411 -0.2045 -0.4760 -0.2281
13431W        W30278   6.741   6.955  12.923  0.1843  0.3912 -0.0528
13432W        W30279   5.539  16.161  11.414 -0.0515 -0.0708 -0.0704
13433W        W30280   1.029  10.682  12.939 -0.3408  0.1832 -0.2616
13434W        W30281  11.879   7.349  11.244 -0.1566  0.4584  0.0432
13435W        W30282   2.876   4.098   4.159  0.0529  0.3698  0.4877
13436W        W30283   9.771   5.686  11.302 -0.2952  0.2136  0.2348
13437W        W30284  18.434  10.322   0.032  0.1983 -0.1269 -0.1274
13438W        W30285   7.550  10.088  10.741 -0.3188 -0.1363 -0.1774
13439W        W30286  17.528  18.792  12.145 -0.0986 -0.1611  0.0927
13440W        W30287  12.091  16.657  10.620 -0.1740 -0.0464 -0.6029
13441W        W30288   8.990   9.692  10.837 -0.2420 -0.0841 -0.0633
13442W        W30289   6.626   5.940  11.010 -0.1756  0.1461  0.0579
13443W        W30290  15.901   9.787   4.188  0.0641 -0.0134 -0.0603
13444W        W30291  17.893  17.666   1.643  0.0839 -0.2344 -0.0357
13445W        W30292  10.015   8.611   1.651 -0.0312 -0.3030  0.0306
13446W        W30293   4.595  11.446   4.765  0.1084 -0.2158 -0.1790
13447W        W30294   6.043   2.604   3.728 -0.2274  0.2311 -0.0809
13448W        W30295  16.948  12.157  13.603  0.2204  0.1544  0.0921
13449W        W30296   8.698   6.595   4.591  0.2310 -0.1777 -0.5022
13450W        W30297  12.945  10.698   0.884 -0.2830  0.1674 -0.2290
13451W        W30298  15.608  12.890   0.102  0.2001 -0.1373  0.0940
13452W        W30299  14.532   8.369  14.657  0.0583  0.1174 -0.2304
13453W        W30300   0.933   9.097  12.751 -0.0754  0.0571  0.0871
13454W        W30301   7.762   9.997   2.938  0.3032 -0.1348 -0.0889
13455W        W30302  19.040   6.162   0.689  0.0167  0.0083  0.1124
13456W        W30303   2.174  19.173  13.801  0.1165  0.2100 -0.6005
13457W        W30304   5.339   6.308   2.822 -0.1210  0.0771  0.0725
13458W        W30305  14.827  11.555   3.601  0.1643 -0.1447  0.0280
13459W        W30306  10.262   1.407  12.598  0.2666 -0.0909 -0.0180
13460W        W30307  11.682   2.867  10.847 -0.2188  0.0364  0.0093
13461W        W30308  18.234   0.258   0.319 -0.1552  0.0306  0.0090
13462W        W30309  11.096  14.179  14.597 -0.1116  0.0862  0.1654
13463W        W30310  17.110  11.715   0.620  0.1077 -0.3545 -0.1750
13464W        W30311   6.461   9.756   4.223 -0.1041  0.1165 -0.4542
13465W        W30312   8.433   6.269   9.718  0.1719  0.0290  0.0022
13466W        W30313   4.199  16.354   4.366  0.2543 -0.2681  0.0825
13467W        W30314   7.350  18.832   3.913  0.2285  0.2155 -0.1589
13468W        W30315   1.038  11.835   4.886 -0.0950 -0.1035  0.1630
13469W        W30316   8.903  15.170  14.504 -0.0338  0.0759 -0.1110
13470W        W30317   3.753  14.336   4.873  0.2840  0.0197  0.0759
13471W        W30318  12.092   7.897  12.863 -0.0206  0.1516 -0.0328
13472W        W30319  12.375   1.956   1.047  0.1433 -0.1466  0.2269
13473W        W30320   2.727   0.799   2.063  0.0602 -0.0080 -0.1928
13474W        W30321  14.197   3.507  12.032  0.1034 -0.0475 -0.0093
13475W        W30322   0.929  12.201   9.091 -0.1677  0.1177  0.2666
13476W        W30323   5.796  13.881  13.848 -0.0348 -0.0501 -0.0676
13477W        W30324   2.102  10.560  10.748 -0.0019  0.1221 -0.1242
13478W        W30325   5.819  11.717  11.886 -0.1743 -0.1486  0.0060
13479W        W30326  15.015   6.411   2.020  0.1410 -0.2164  0.1062
13480W        W30327   8.926   6.357   2.231  0.0139 -0.0581 -0.0079
13481W        W30328   9.015  13.135  11.084 -0.1142 -0.0662 -0.1325
13482W        W30329  14.553   6.696   0.260 -0.1072 -0.0576  0.2493
13483W        W30330  14.181   6.781  13.530  0.1606  0.1433 -0.0958
13484W        W30331   9.574   9.346   1.519  0.1539 -0.0787  0.1802
13485W        W30332   7.741  12.147   3.995  0.1381 -0.3761 -0.2148
13486W        W30333  13.066   4.969   2.572 -0.1860 -0.2916  0.2536
13487W        W30334   2.357   1.809   4.605  0.0818 -0.1420 -0.3471
13488W        W30335   3.113  18.967  11.463  0.2033 -0.2007 -0.3213
13489W        W30336   0.538   6.074   0.032  0.3141  0.0007 -0.2276
13490W        W30337  14.025   5.140   0.574 -0.1231 -0.1790  0.0206
13491W        W30338  11.659  18.164  14.468  0.1631 -0.0123 -0.1789
13492W        W30339  18.846   0.944  14.746  0.0734 -0.0938  0.1859
13493W        W30340  17.408  10.096  10.240  0.2386 -0.2102  0.0668
13494W        W30341   6.846   1.907  10.654 -0.3097  0.0325 -0.0399
13495W        W30342  15.082  11.060   1.289 -0.2034  0.0255 -0.0689
13496W        W30343  14.612   3.863   2.720 -0.2283  0.0033  0.3240
13497W        W30344   3.886   6.845  10.095  0.2856  0.1355  0.2329
13498W        W30345  11.130   6.194  13.327 -0.1443 -0.1489 -0.0821
13499W        W30346   2.456   7.847  14.601 -0.1369 -0.0383 -0.1825
13500W        W30347  12.698  18.062   3.711  0.0433 -0.0052  0.0117
13501W        W30348   5.719  10.002  12.237 -0.0826  0.1724  0.0160
13502W        W30349  14.158   3.630   2.902  0.0532  0.0341  0.0455
13503W        W30350   8.079   5.014   0.255 -0.0698 -0.0378  0.1042
13504W        W30351  12.498  16.187  13.461 -0.1100  0.2341 -0.0340
13505W        W30352   5.342  14.441   5.109  0.2320  0.0630  0.0818
13506W        W30353   5.992  18.255   3.410  0.3032 -0.0697  0.1111
13507W        W30354   7.746  18.311   2.102  0.0461 -0.0906  0.1539
13508W        W30355   6.315  10.835   1.444  0.2311 -0.1834  0.0438
13509W        W30356   5.347   8.064   2.723  0.1566  0.1264  0.0517
13510W        W30357   0.008  13.735   2.973  0.1447  0.0821  0.2239
13511W        W30358  12.735  15.932   1.988 -0.1769  0.0824  0.0951
13512W        W30359   5.842  13.784  11.553 -0.0439 -0.2654  0.0109
13513W        W30360  18.467   0.051  12.069  0.0919  0.0318  0.2271
13514W        W30361  14.884  12.473  11.159 -0.0132 -0.1396  0.0644
13515W        W30362   4.019  18.036   4.407  0.2155 -0.0438  0.1241
13516W        W30363   8.879   8.272  10.869 -0.0554 -0.3749  0.0749
13517W        W30364  17.218   2.652   4.018 -0.2288 -0.2956 -0.0655
13518W        W30365  15.092   6.871   1.747 -0.5247 -0.0540 -0.0589
13519W        W30366   0.733   4.173   4.844 -0.1091 -0.0761 -0.1583
13520W        W30367   8.622   9.593  14.112  0.6124  0.2088 -0.2227
13521W        W30368   0.678  19.244   5.442  0.1090  0.2249 -0.0249
13522W        W30369   1.716  12.797   0.080  0.2602 -0.2115 -0.0973
13523W        W30370  16.824  10.868  14.158 -0.3530 -0.1298  0.2963
13524W        W30371  17.074  10.261   0.919  0.2796 -0.0489 -0.3153
13525W        W30372   4.544   1.389  10.310  0.0226  0.1560  0.0270
13526W        W30373   6.884  14.758   1.727 -0.2072  0.0174 -0.0209
13527W        W30374   6.525  11.117   9.154 -0.0269  0.2071 -0.0912
13528W        W30375   2.472  13.802  12.104 -0.1046 -0.2224 -0.0155
13529W        W30376   7.194  11.091   0.971 -0.1133 -0.2663 -0.3361
13530W        W30377   9.592   1.666  14.877  0.2010 -0.4974 -0.1058
13531W        W30378   0.114  17.197   1.762 -0.0312  0.2374  0.1199
13532W        W30379   2.465   3.961  12.015 -0.0093 -0.0923  0.3108
13533W        W30380   9.346   1.913  12.420 -0.0971 -0.2336 -0.2890
13534W        W30381   6.291  15.068   1.210 -0.1526 -0.1531 -0.2807
13535W        W30382  12.080   2.511  10.967 -0.3086  0.1477 -0.0619
13536W        W30383   4.331   5.866   5.470 -0.2604  0.2364  0.1931
13537W        W30384   5.769  10.726  10.539 -0.2881 -0.0637  0.0281
13538W        W30385  10.679   0.127   2.067  0.1662  0.2313 -0.1259
13539W        W30386  14.651   2.380  12.500 -0.2537 -0.0952 -0.1773
13540W        W30387  10.613  15.437  12.362  0.0369  0.1430 -0.2803
13541W        W30388   8.080   3.069   1.279  0.0546 -0.1333  0.0185
13542W        W30389   1.978   4.030  13.213  0.1558 -0.2864 -0.1308
13543W        W30390   1.897   7.056  11.627  0.1800 -0.0272 -0.1611
13544W        W30391  14.579  11.778  14.512  0.1499 -0.0418  0.0876
13545W        W30392  10.999   0.627  12.369 -0.0446 -0.0261 -0.0949
13546W        W30393   7.385   0.837  12.754 -0.0462  0.1414 -0.1988
13547W        W30394   4.929   5.443   3.751  0.3139  0.1432 -0.0006
13548W        W30395   9.848  12.414   3.305 -0.0339  0.3693  0.0625
13549W        W30396  13.401  13.862  11.554  0.0733 -0.1309 -0.0090
13550W        W30397   7.727   1.905   3.296  0.1401  0.2056  0.1763
13551W        W30398  18.616  13.329   2.990 -0.0573 -0.1966 -0.4781
13552W        W30399   5.929   8.840  12.733 -0.0789 -0.0704  0.1473
13553W        W30400   6.294   6.648   3.544 -0.2364 -0.2180 -0.0973
13554W        W30401  19.179  15.833  11.539  0.0112  0.0878  0.2430
13555W        W30402  18.845  10.470   4.020 -0.1719  0.0467 -0.3733
13556W        W30403   2.197   7.514   0.328  0.0321  0.1918  0.0507
13557W        W30404  18.424  11.586   0.317 -0.1353 -0.3261  0.0709
13558W        W30405  16.010  11.077  12.355 -0.0513  0.0516  0.0712
13559W        W30406   5.140  17.579   3.051 -0.1284 -0.2722 -0.1020
13560W        W30407   2.571   3.563   2.019 -0.0959 -0.3131  0.0513
13561W        W30408  16.695  11.359   2.481  0.0575  0.0235 -0.2084
13562W        W30409   5.750  13.477   0.264 -0.0624  0.0271  0.1214
13563W        W30410  13.420  12.934  11.822  0.0017 -0.2280 -0.0115
13564W        W30411   9.691   0.186   0.235  0.0375 -0.0546 -0.1924
13565W        W30412  17.076   4.844   3.027  0.0756  0.1198 -0.1710
13566W        W30413  14.141   9.986   0.555 -0.0474  0.1543  0.3302
13567W        W30414  19.081  11.603  12.584 -0.1848 -0.0933 -0.0904
13568W        W30415   0.194  10.451  10.296  0.1352 -0.2372 -0.1515
13569W        W30416   0.449   5.426   3.834  0.0459 -0.3531 -0.0447
13570W        W30417   8.840   7.933  10.501 -0.0440  0.0508 -0.0004
13571W        W30418   9.133   1.274  14.188 -0.0833  0.1013  0.1470
13572W        W30419   4.562  12.305   3.727 -0.1129 -0.0343 -0.1802
13573W        W30420  13.156   1.248   0.244 -0.0394  0.0250 -0.2989
13574W        W30421  16.388   3.010   4.705  0.1240  0.0675 -0.1101
13575W        W30422   8.656   1.190  13.081 -0.0813  0.0915  0.2850
13576W        W30423  13.575  18.461   4.681 -0.2314  0.0751  0.3223
13577W        W30424  18.551  16.777   4.645 -0.2124 -0.2225  0.3691
13578W        W30425  14.162   1.949   4.815  0.1519  0.1511  0.1045
13579W        W30426  16.749  15.478  13.816 -0.0589  0.2424 -0.0705
13580W        W30427   1.043   5.523  13.702 -0.0325 -0.0529  0.0031
13581W        W30428   4.430  12.286  14.592  0.1095 -0.2318  0.0126
13582W        W30429  14.711  13.998   4.510 -0.4074 -0.1425  0.1700
13583W        W30430  17.363  18.490  13.767 -0.0746  0.2067 -0.0028
13584W        W30431  10.440   1.797   4.678  0.2558 -0.0613 -0.0545
13585W        W30432   4.556  12.220   2.573  0.4966  0.1532 -0.2124
13586W        W30433  16.526  17.189  12.018  0.0853  0.1412  0.2026
13587W        W30434  16.541   2.396   9.808  0.0329 -0.0266  0.0268
13588W        W30435  17.849   7.428  12.188  0.1777  0.0057 -0.0285
13589W        W30436   5.503  19.144   4.709  0.0955 -0.0296 -0.0542
13590W        W30437  15.379   2.517   4.769 -0.2911 -0.1035  0.0309
13591W        W30438   6.794   3.457   2.776 -0.0032 -0.1853 -0.1104
13592W        W30439   7.540   2.293  11.387 -0.2165  0.0131 -0.0462
13593W        W30440   8.738   3.781   3.798 -0.0647  0.1762  0.2060
13594W        W30441   1.686   5.341  12.960  0.2007  0.0038 -0.2623
13595W        W30442  15.693  13.199  12.868  0.2534 -0.0044 -0.0261
13596W        W30443  17.128   5.020   1.317  0.2422  0.2047 -0.3866
13597W        W30444   6.537  16.127  11.581 -0.2099 -0.1110 -0.6684
13598W        W30445   4.275   5.548  15.012  0.1584  0.0535 -0.2271
13599W        W30446   6.101   9.818   5.508 -0.0331 -0.0569 -0.1759
13600W        W30447   7.942  11.501  11.251 -0.0812 -0.0015  0.2413
13601W        W30448   9.195   0.440   1.304  0.2049  0.3223  0.1015
13602W        W30449   9.785  17.547   0.556 -0.3376 -0.0004  0.0688
13603W        W30450  15.176   6.904   2.276 -0.2311 -0.0237  0.0708
13604W        W30451  18.667   5.694  13.378  0.0499 -0.0589 -0.2727
13605W        W30452   5.706  15.056  13.292  0.2569  0.2146  0.0755
13606W        W30453  14.435  11.898   2.405 -0.0217  0.0479 -0.0002
13607W        W30454  10.055  16.004  13.499  0.0254  0.0870 -0.3038
13608W        W30455   0.698   7.854  10.764 -0.2312 -0.1824  0.1670
13609W        W30456   5.755  18.560  11.911 -0.0781  0.4092  0.0040
13610W        W30457   8.733   8.963  12.431  0.2617 -0.0272  0.3851
13611W        W30458   5.087  18.196   3.119 -0.1718  0.0276 -0.3842
13612W        W30459  18.053   2.165   5.584 -0.0733  0.2968 -0.1731
13613W        W30460  10.820   9.160  12.876  0.0940 -0.2930 -0.1685
13614W        W30461   0.706   3.670  14.616 -0.3025 -0.0039 -0.2708
13615W        W30462   2.523   6.916  14.083  0.0474 -0.1098 -0.3112
13616W        W30463  12.847   1.003  14.938  0.0194  0.1934 -0.1199
13617W        W30464  17.482   2.151  13.493  0.0212 -0.1221 -0.0879
13618W        W30465  10.504   2.169   0.378  0.2907 -0.0894  0.0657
13619W        W30466  10.163   4.876   1.450 -0.0872  0.0805  0.2211
13620W        W30467   5.661  12.558   1.783  0.1639 -0.1810 -0.0665
13621W        W30468   6.054   1.347  13.127 -0.1689  0.0051 -0.4809
13622W        W30469   9.783   1.329  14.512  0.2194 -0.1136 -0.1484
13623W        W30470   8.238  10.174  10.121  0.2700 -0.1185 -0.0588
13624W        W30471  16.536  11.093   0.949  0.1032 -0.0682  0.0529
13625W        W30472  15.527   0.863  11.789 -0.0034 -0.2656 -0.0681
13626W        W30473  19.120   2.736   3.643  0.2066 -0.0290  0.1348
13627W        W30474  14.793   0.772   0.445  0.0103  0.1370  0.0214
13628W        W30475   9.690   9.964   2.234  0.0160  0.2902  0.2380
13629W        W30476  10.087  14.539   3.319 -0.3621 -0.0627  0.0905
13630W        W30477   0.322  15.839   4.018  0.0036  0.1667 -0.0198
13631W        W30478   2.635   1.308  12.525 -0.0986  0.1892  0.1136
13632W        W30479   3.836  14.705  12.424  0.4482 -0.0377  0.1314
13633W        W30480   5.513   9.703  12.575  0.2804  0.0236  0.1946
13634W        W30481   3.381  10.021   4.941  0.3610 -0.1375 -0.0669
13635W        W30482   0.254  14.843   1.781  0.0154  0.2125  0.0284
13636W        W30483  10.020  12.605   0.242 -0.0186 -0.1001  0.4028
13637W        W30484   4.249  18.490   1.667 -0.0460 -0.1149 -0.1578
13638W        W30485  17.437  10.778  10.850 -0.0742  0.0765 -0.3098
13639W        W30486   8.314  15.959   0.083 -0.6661  0.2180 -0.1778
13640W        W30487  13.865  10.944  12.041 -0.0714 -0.3746 -0.3333
13641W        W30488   5.116   6.231  14.789 -0.0335  0.0367  0.1122
13642W        W30489   2.646   0.634   9.567  0.2544 -0.3301  0.4274
13643W        W30490   1.802   3.732   3.674 -0.2730 -0.0025 -0.2385
13644W        W30491  16.624   4.581   4.745 -0.0294  0.1665  0.0811
13645W        W30492   1.138   0.873   4.153 -0.1948  0.1951  0.0991
13646W        W30493   8.126  19.251   3.218 -0.0800  0.0687  0.0390
13647W        W30494  11.740   7.420  10.352 -0.1715  0.0370 -0.1953
13648W        W30495   8.007   6.116  11.622  0.0489 -0.0476  0.0498
13649W        W30496  16.279  18.228  13.747  0.2426  0.0048  0.0179
13650W        W30497   0.394  13.791   2.545 -0.1018 -0.0720 -0.0407
13651W        W30498  17.610  17.468  13.575  0.2921  0.1165 -0.1217
13652W        W30499   3.943  17.133  13.204  0.0965  0.0849 -0.0312
13653W        W30500   8.152  18.430   4.430  0.0492 -0.2085  0.1188
13654W        W30501  15.131  10.028  13.126  0.1002  0.0123  0.1840
13655W        W30502  11.056   5.429   2.466  0.1304  0.3922  0.0880
13656W        W30503   7.685  17.334   3.866  0.0691 -0.2409 -0.0083
13657W        W30504  16.821  14.115  11.147  0.1071  0.0419  0.1564
13658W        W30505   6.199  16.022   1.286  0.0308 -0.0847 -0.1590
13659W        W30506   0.875  14.349  14.750 -0.0615 -0.0638  0.2625
13660W        W30507  10.305  10.662  14.900 -0.0270  0.0761  0.0665
13661W        W30508   0.775   5.158  13.972 -0.2003  0.0054  0.4352
13662W        W30509  18.577   3.346  14.241  0.1517  0.3684 -0.0496
13663W        W30510   0.003  14.828   5.017 -0.1049 -0.0082  0.1355
13664W        W30511   4.735  13.228  10.911 -0.1405  0.3543 -0.1137
13665W        W30512   7.262  17.429  13.769 -0.4807 -0.1784  0.2025
13666W        W30513   4.162   1.523   4.737  0.1825  0.1426 -0.0558
13667W        W30514   9.186  15.519  14.310 -0.2061 -0.5469  0.1538
13668W        W30515  17.361   2.733   0.814  0.3330 -0.1089 -0.4016
13669W        W30516  11.128   6.130  14.332  0.2868 -0.0102 -0.0494
13670W        W30517  10.308   0.052   5.009 -0.1966 -0.0776  0.2213
13671W        W30518   3.135  13.559  14.802 -0.1286  0.3554  0.0659
13672W        W30519  17.800  13.858   1.458  0.0297 -0.1074 -0.1987
13673W        W30520   0.895  16.072   3.093  0.1292  0.0332  0.0442
13674W        W30521  13.607   9.753   3.281  0.2128 -0.0150  0.1758
13675W        W30522  15.372   3.266   2.077  0.3197  0.0274  0.2165
13676W        W30523  13.619   4.726   2.498  0.1671  0.0183  0.2301
13677W        W30524  12.548   8.337   3.687 -0.0540  0.1824 -0.4107
13678W        W30525   4.171  11.509  14.252  0.1028  0.0182 -0.1740
13679W        W30526  11.384  16.260  12.368 -0.1930 -0.3586 -0.2651
13680W        W30527   3.584  15.995   3.025  0.1880  0.0786 -0.0962
13681W        W30528   5.119   4.263   2.318  0.1332 -0.2112  0.0585
13682W        W30529  17.033  16.810   4.409 -0.0985 -0.0777  0.0687
13683W        W30530   2.686  17.604  14.731  0.1800  0.1967  0.2093
13684W        W30531  16.532   8.252   4.401 -0.1337 -0.0002 -0.0026
13685W        W30532   9.411   5.437   0.794  0.0624 -0.0007  0.0344
13686W        W30533   2.474   9.569  12.663 -0.0782 -0.3712  0.0050
13687W        W30534  11.928  13.283  11.072 -0.5488 -0.0251  0.0048
13688W        W30535   4.379   2.478   5.692 -0.0966  0.1210  0.0499
13689W        W30536   1.243  19.282  14.937  0.0994 -0.0979  0.2901
13690W        W30537   2.877  13.729  13.642 -0.1630 -0.2586  0.2505
13691W        W30538  11.878   9.491   4.892  0.1505 -0.0095  0.1977
13692W        W30539   5.101  11.511   1.748  0.0986  0.1217 -0.0759
13693W        W30540   4.672  14.423   0.112 -0.1498  0.0819 -0.0273
13694W        W30541   9.140   9.772  11.819 -0.2783  0.3407 -0.0424
13695W        W30542  16.931   6.003   2.073  0.0067  0.2493 -0.0917
13696W        W30543  16.466   9.682   1.992 -0.2057  0.0773 -0.0455
13697W        W30544  12.039  12.712  12.562  0.0597 -0.3693 -0.0615
13698W        W30545  14.676  13.942   5.072  0.1155  0.0196  0.1713
13699W        W30546  17.282  16.039  10.343 -0.0974  0.1234  0.3099
13700W        W30547   7.972  18.973   1.014  0.0383  0.0453  0.2809
13701W        W30548  14.849  18.063  13.997  0.0643 -0.1497  0.1471
13702W        W30549   7.650  15.216  14.541  0.2422 -0.2939  0.0823
13703W        W30550  15.582  12.441   4.347 -0.0253  0.2423  0.0599
13704W        W30551  13.880  11.857   3.026  0.0229  0.2516 -0.1940
13705W        W30552   7.969   5.588  13.564  0.2234 -0.3037 -0.0277
13706W        W30553   8.707  14.266  14.687  0.1215 -0.1292  0.2510
13707W        W30554   8.580  14.526   0.981 -0.2383 -0.0010  0.0539
13708W        W30555   5.403   9.511   0.649 -0.1561  0.0007 -0.0593
13709W        W30556   5.576   8.022   2.285 -0.2972 -0.0420 -0.0102
13710W        W30557   8.162   5.823   3.114 -0.3088 -0.2175 -0.1306
13711W        W30558   6.873  12.797   3.859  0.2416  0.3389 -0.1861
13712W        W30559  11.325  15.766  13.632  0.0012  0.0690  0.2162
13713W        W30560  12.804  12.446  12.040  0.1820  0.0962 -0.0369
13714W        W30561   4.172  10.091  12.534 -0.1395  0.0546 -0.1547
13715W        W30562  16.985   8.526   3.539 -0.2175 -0.0886 -0.5689
13716W        W30563  12.460   7.426   3.759 -0.0829 -0.2571  0.1506
13717W        W30564  17.015  10.946  11.151 -0.1630  0.0703  0.1183
13718W        W30565  12.710   3.320  11.613  0.1055  0.1747 -0.1658
13719W        W30566   9.883   1.646  14.166  0.4524  0.1402  0.1897
13720W        W30567  18.153  10.357  13.815  0.2510 -0.1655  0.1506
13721W        W30568  14.604  10.497  13.881 -0.3691  0.2162 -0.0806
13722W        W30569   7.435   1.303  13.618  0.2345  0.5018  0.1182
13723W        W30570  11.920  10.508   3.823  0.1529 -0.0667 -0.1799
13724W        W30571  13.398  17.861  11.424  0.0574  0.2395  0.2709
13725W        W30572   8.310   3.134   4.289 -0.1161  0.0935  0.2314
13726W        W30573  15.955  12.150   1.568  0.2114  0.1036 -0.1122
13727W        W30574   2.146   5.626  13.106 -0.0386  0.0174 -0.2637
13728W        W30575  11.977   8.784   1.946  0.0609  0.0517 -0.0359
13729W        W30576  14.930   4.814   3.823  0.0324  0.2783  0.0384
13730W        W30577  10.609   2.531   1.918 -0.1506  0.1373 -0.1334
13731W        W30578  10.203  15.478  12.738 -0.0163 -0.1511  0.1339
13732W        W30579   5.032   0.909   1.286 -0.3380 -0.1160  0.1198
13733W        W30580   2.209   0.532   1.827  0.0686 -0.1214  0.0431
13734W        W30581   2.347   6.111   4.922 -0.0913 -0.1002  0.1051
13735W        W30582   5.194  16.935   2.500  0.1834 -0.2107 -0.0304
13736W        W30583  11.325  15.606   3.569  0.1029  0.1543  0.0337
13737W        W30584  13.605  13.984  14.799 -0.3286  0.0725  0.0226
13738W        W30585  11.786   0.364   3.779  0.4570  0.1939  0.1686
13739W        W30586  10.598   7.919   1.711  0.0231 -0.3027 -0.0952
13740W        W30587   4.803   5.163  10.547 -0.0558 -0.2637 -0.0115
13741W        W30588   2.598   0.081   2.590 -0.1068  0.0691  0.0858
13742W        W30589  15.560  12.551   0.893  0.1214  0.0132  0.1093
13743W        W30590   9.408   1.667   3.621 -0.0328 -0.0093  0.0880
13744W        W30591   8.278   9.670   2.297  0.0774 -0.0040 -0.3320
13745W        W30592  11.168   4.362   0.513 -0.0205  0.1229 -0.0764
13746W        W30593   0.291  14.524   0.594 -0.0711  0.2032 -0.1588
13747W        W30594   8.240   5.933   1.622  0.1003 -0.0606  0.1501
13748W        W30595   1.695   3.345   3.951 -0.1723 -0.2250 -0.2064
13749W        W30596   7.789  10.293  10.336 -0.4701 -0.0004 -0.0578
13750W        W30597   5.982  14.407   0.648 -0.1473  0.0802 -0.0784
13751W        W30598   6.929   7.061  11.372 -0.1587 -0.3371 -0.1037
13752W        W30599   8.649   6.767  11.840 -0.1677 -0.0645  0.2376
13753W        W30600  18.371   0.431  11.613 -0.0489 -0.0422  0.2210
13754W        W30601   4.381   3.363   3.035 -0.0765  0.1282  0.1950
13755W        W30602  11.996   4.636   0.381  0.2888  0.2018  0.0280
13756W        W30603   6.927  10.128  13.448  0.1443  0.2121  0.1287
13757W        W30604   6.987  17.273  13.247  0.1257  0.1711  0.0484
13758W        W30605  16.636  17.653   3.808 -0.0182  0.2129  0.2156
13759W        W30606   0.516   6.422   4.867 -0.0253  0.3941 -0.0921
13760W        W30607   9.797  11.308  12.217  0.2406 -0.0834 -0.0667
13761W        W30608  13.322  16.564  14.185 -0.2238 -0.2400  0.0786
13762W        W30609  15.146  12.981   0.046  0.1161 -0.1447 -0.2657
13763W        W30610  14.811  11.980  11.165  0.0742  0.3523 -0.0444
13764W        W30611   7.218   0.652  12.304  0.0684 -0.2504  0.1020
13765W        W30612  18.122  13.483  13.919  0.0532  0.0449  0.0670
13766W        W30613  12.213   7.345   5.090  0.1197 -0.3386 -0.2129
13767W        W30614   6.157  13.693  11.139 -0.0017 -0.0363 -0.3711
13768W        W30615   3.848   9.164   3.156  0.0086 -0.2891 -0.1441
13769W        W30616   4.606  10.780  14.136  0.3163 -0.0420  0.0717
13770W        W30617  12.497  17.304  10.125  0.0955  0.2275 -0.1205
13771W        W30618  13.792   0.807  14.715  0.0317 -0.1719 -0.0061
13772W        W30619  11.553  10.811   0.606  0.1106  0.4287 -0.1763
13773W        W30620  13.213   4.554  12.563 -0.0949  0.0551 -0.0218
13774W        W30621   2.240   8.460   5.426  0.0194  0.1907 -0.0098
13775W        W30622   3.399   9.746   0.621 -0.1700 -0.1651 -0.1553
13776W        W30623  15.640  15.245   5.176 -0.3837  0.0082  0.1046
13777W        W30624  13.990   3.618   3.546 -0.1529  0.1070 -0.1445
13778W        W30625  14.889   6.769   3.881  0.0826  0.1479 -0.0045
13779W        W30626  12.569  15.298   1.770 -0.1000  0.0268 -0.2437
13780W        W30627   9.551   1.552   4.354 -0.1050 -0.3038 -0.1838
13781W        W30628  18.439   7.569  13.325 -0.0369  0.1902  0.0148
13782W        W30629  15.415   8.646   1.434 -0.0481 -0.0325 -0.1156
13783W        W30630  14.022   0.563   4.585  0.1218  0.3122  0.3093
13784W        W30631  15.200   5.474  10.364 -0.2721  0.1113  0.2799
13785W        W30632  12.680   7.182  10.820  0.0416 -0.0164 -0.1611
13786W        W30633  10.977  14.170   3.801 -0.0036  0.2106 -0.1071
13787W        W30634  12.738  12.030   0.244  0.1821 -0.1605  0.2080
13788W        W30635   3.285   5.808  10.877 -0.0795 -0.1432  0.1370
13789W        W30636   0.687   6.934  14.147 -0.1057  0.0666  0.1365
13790W        W30637  12.429   7.205  14.983  0.4177  0.1757 -0.0028
13791W        W30638  15.994   3.244  13.526 -0.0565  0.0074 -0.0976
13792W        W30639   6.922   0.219  14.226 -0.0980 -0.2983 -0.0226
13793W        W30640   0.254   0.178  15.005  0.2155  0.2085  0.0051
13794W        W30641  12.587  10.637   2.476  0.0386  0.1192 -0.0350
13795W        W30642  18.869  10.918  10.716 -0.2125  0.1337  0.0773
13796W        W30643   8.752  11.312   2.429 -0.0687 -0.0381 -0.1840
13797W        W30644   4.957   2.684   1.811  0.1008 -0.0142 -0.1593
13798W        W30645   8.809  13.251  12.713  0.3347  0.2612  0.1682
13799W        W30646   6.849  12.597  14.498 -0.2207 -0.0106 -0.0694
13800W        W30647  10.007   3.452   5.517 -0.2446 -0.0343  0.1801
13801W        W30648  11.864  11.784  12.107 -0.0447 -0.1562  0.3714
13802W        W30649   9.336   2.245   5.553  0.0526  0.1397  0.2755
13803W        W30650  18.291   2.597   0.067  0.0245  0.0073 -0.0797
13804W        W30651   7.919   4.795   3.641  0.2776 -0.0484 -0.0871
13805W        W30652   0.953  18.712  11.631  0.2070  0.2223  0.1007
13806W        W30653  11.806  18.477  12.684  0.3151  0.0984 -0.1378
13807W        W30654   8.674   4.148   1.886 -0.2005 -0.0177  0.3675
13808W        W30655  15.037  17.527   0.411 -0.0415  0.0920 -0.1341
13809W        W30656  18.314  10.978  10.908 -0.1536  0.0353  0.0082
13810W        W30657   8.532   7.369   4.001  0.2356 -0.1060 -0.0665
13811W        W30658  18.703   4.437   3.519 -0.2797  0.2059 -0.4172
13812W        W30659   0.143  13.815   2.083  0.0567  0.2045 -0.0322
13813W        W30660  13.425   3.448   0.424 -0.0087 -0.0988 -0.1448
13814W        W30661   7.701  12.324  10.747 -0.0538  0.0098 -0.2672
13815W        W30662  17.596  12.185   0.834  0.2469  0.3373  0.0945
13816W        W30663   7.649   9.835  12.493  0.3130  0.0760  0.2238
13817W        W30664  14.440  18.690   5.213  0.0430 -0.0501 -0.1770
13818W        W30665   5.041  11.268   1.254  0.0236  0.0699  0.1972
13819W        W30666  19.190   0.946   2.025  0.1241  0.1636  0.4597
13820W        W30667   0.940   6.030  13.515  0.0610 -0.0399  0.0145
13821W        W30668  11.268  19.041   4.187 -0.0819  0.0415  0.1295
13822W        W30669  12.156  17.458  12.548 -0.2029  0.1425 -0.4525
13823W        W30670  13.738   1.388   0.146 -0.0053  0.1011 -0.1209
13824W        W30671   1.748  15.044   4.865 -0.0094  0.1547 -0.0248
13825W        W30672  13.223  13.756   2.693 -0.1677  0.2354  0.0176
13826W        W30673  10.384  10.420   3.668  0.0101  0.3076  0.2837
13827W        W30674  11.461  14.641   3.951  0.1661 -0.0104  0.4165
13828W        W30675   0.423  15.100  14.077 -0.1979 -0.0291  0.2669
13829W        W30676   4.537   2.973  14.276 -0.4441 -0.0500  0.0154
13830W        W30677   9.887  12.082  11.032 -0.1486  0.4314 -0.2207
13831W        W30678  13.261  10.929   0.065  0.1746 -0.4872  0.1429
13832W        W30679  10.174   5.953   1.241 -0.1877  0.0305 -0.1319
13833W        W30680  11.953  17.025   2.059  0.0077  0.1842  0.0032
13834W        W30681   0.274  18.888  13.159  0.2284 -0.4315  0.1295
13835W        W30682  13.498   0.300  13.575 -0.2719 -0.0937  0.1697
13836W        W30683  13.391   4.766  12.130 -0.0579  0.2937  0.1235
13837W        W30684   1.016   7.694  14.447 -0.0750  0.0823 -0.1436
13838W        W30685  17.065   1.854  13.513  0.0827 -0.1970  0.2529
13839W        W30686  15.882   0.334  13.813  0.0421  0.2372  0.1463
13840W        W30687  13.036   2.088  12.234 -0.1248  0.2836  0.0263
13841W        W30688  16.317  11.940   5.182  0.0508 -0.1092 -0.1911
13842W        W30689   6.725  17.569   0.121  0.1391  0.2018  0.3028
13843W        W30690   4.390   0.395  12.290  0.1356 -0.1913 -0.1389
13844W        W30691   8.171  17.564  10.620 -0.2253  0.1408 -0.2690
13845W        W30692   6.833   2.023  13.930  0.2061 -0.0599  0.2019
13846W        W30693   0.407   3.250  14.415 -0.1353 -0.0891  0.0304
13847W        W30694  19.261  10.358   2.797 -0.1202 -0.0931 -0.2231
13848W        W30695   5.112   1.163   2.279  0.1892  0.0193 -0.1629
13849W        W30696   7.775  15.666  10.261 -0.0559  0.0455  0.0070
13850W        W30697   1.509  17.124   4.964 -0.0052 -0.1833 -0.1428
13851W        W30698   0.818  15.770   3.708 -0.0245  0.1991 -0.2662
13852W        W30699   9.767  11.260   4.111 -0.3810 -0.1247  0.0587
13853W        W30700   9.099  15.991   0.515  0.0425 -0.1352 -0.5136
13854W        W30701   4.672   6.903   3.249  0.0649 -0.0095  0.0070
13855W        W30702   2.001   0.693  11.480 -0.0588  0.1923 -0.0724
13856W        W30703  16.217   2.693   1.990 -0.0063  0.0368  0.0164
13857W        W30704   5.914   2.062  11.543  0.2545  0.2072  0.0814
13858W        W30705   1.798   1.618  10.934 -0.0234  0.5319 -0.1917
13859W        W30706  10.997  16.601  14.434 -0.0881 -0.0498  0.0254
13860W        W30707  13.907  11.866  10.497  0.3522 -0.0373  0.0929
13861W        W30708   7.575  12.806   2.644 -0.1208 -0.3371 -0.0564
13862W        W30709  12.881  12.169  11.470  0.5159 -0.4110 -0.1496
13863W        W30710   2.126  17.487  14.144 -0.1775 -0.1455  0.0613
13864W        W30711   4.165   2.601   1.350  0.1486  0.0439  0.3077
13865W        W30712  14.747  17.433  14.557 -0.2788  0.3106 -0.1048
13866W        W30713   3.265   1.549   0.145 -0.0065 -0.0073 -0.0160
13867W        W30714  15.673  11.247  14.123 -0.1650  0.0703  0.1910
13868W        W30715  17.174   0.260   5.712  0.0745  0.0861 -0.0850
13869W        W30716  16.398  11.930  12.516 -0.3049 -0.0703 -0.2006
13870W        W30717   0.282   2.584   4.521 -0.0784 -0.0398 -0.2237
13871W        W30718   4.309  13.157  10.527 -0.1226 -0.0996  0.0928
13872W        W30719  14.204   0.966   4.731  0.0955  0.3974  0.0411
13873W        W30720   9.472  16.033  12.701 -0.1282  0.2709  0.0679
13874W        W30721  12.885  14.334  14.340  0.1595  0.0976  0.0620
13875W        W30722   2.113  13.222   3.227 -0.0177 -0.2961 -0.0989
13876W        W30723   6.595  17.967   3.816  0.0775  0.0267  0.0318
13877W        W30724   0.392  16.885   1.080 -0.0717 -0.1813  0.2136
13878W        W30725   9.380   9.140   2.082  0.0025  0.0429 -0.3334
13879W        W30726   3.464  18.615   4.325 -0.3972 -0.1871  0.1466
13880W        W30727   6.886  15.017  10.633 -0.0670  0.0163 -0.0134
13881W        W30728   5.805   7.850   0.715  0.1889 -0.1118 -0.0189
13882W        W30729  14.335   7.519  12.987  0.1470  0.2336  0.3212
13883W        W30730   5.016   9.216  12.254 -0.0124 -0.0315 -0.1745
13884W        W30731   8.073  15.646   3.199  0.3382 -0.0591  0.2664
13885W        W30732   7.260  16.618   0.579 -0.0400  0.1447 -0.1747
13886W        W30733  13.964   0.867  13.906 -0.1890  0.4777  0.2123
13887W        W30734  14.410   6.200   1.756  0.2259  0.1181  0.0353
13888W        W30735  11.253  12.926  10.392 -0.0553 -0.1485  0.1551
13889W        W30736  17.376  12.223  13.860  0.3988 -0.0795 -0.1922
13890W        W30737  17.945  15.217  12.112  0.0825  0.0365  0.4607
13891W        W30738   3.862  14.041   4.269 -0.2654 -0.2638 -0.0402
13892W        W30739   8.607   3.550   0.289 -0.0202 -0.3835 -0.0246
13893W        W30740  13.606   2.578   3.699  0.3449 -0.0740 -0.2606
13894W        W30741   8.952  15.615  13.453 -0.4480  0.1082 -0.0407
13895W        W30742  13.702   1.014   2.880  0.0337  0.4209 -0.0846
13896W        W30743  17.976  12.340  10.203  0.2830 -0.1715  0.0551
13897W        W30744   2.122   7.725   4.488  0.3072 -0.1007 -0.1955
13898W        W30745   8.052  12.610  12.716 -0.2140 -0.1939  0.1023
13899W        W30746  14.915  13.139   3.068 -0.3458 -0.2018 -0.0983
13900W        W30747   7.291   4.824  14.681 -0.2515 -0.1046  0.2581
13901W        W30748  15.733  10.807   0.923  0.4579 -0.1419  0.2785
13902W        W30749  10.072  14.210  12.827 -0.0649  0.0448  0.1141
13903W        W30750  14.199  17.340   5.107 -0.0518  0.0087  0.1604
13904W        W30751   6.738   5.520   0.801 -0.1272  0.3196  0.2519
13905W        W30752   8.791  12.381  10.320  0.0087 -0.1131 -0.3368
13906W        W30753  17.041  16.433  11.585  0.0443 -0.0507 -0.1606
13907W        W30754  10.545  11.241   1.409 -0.0065 -0.1265 -0.0976
13908W        W30755   5.686  10.882  11.838 -0.4676 -0.1435  0.2218
13909W        W30756   5.497  12.682   0.416 -0.1475  0.1459 -0.0115
13910W        W30757  11.503  17.688  13.471 -0.1067  0.1691  0.2268
13911W        W30758  18.600  11.446   1.623  0.1737 -0.0083  0.3334
13912W        W30759   5.801   0.875  14.429  0.0511 -0.0097  0.0322
13913W        W30760   1.753  13.967   4.002  0.1138  0.0611 -0.0820
13914W        W30761   2.058  12.344  14.378 -0.3415 -0.0924 -0.0764
13915W        W30762   6.764   9.808  12.082 -0.0906  0.3273 -0.2449
13916W        W30763  10.847   6.113   2.488 -0.1513 -0.0799  0.1685
13917W        W30764  13.896  17.329   1.248  0.1117  0.1152  0.4082
13918W        W30765   6.252  19.190  13.094  0.0571 -0.0132 -0.0033
13919W        W30766   8.477  16.248  12.600 -0.2187 -0.1849 -0.0737
13920W        W30767  18.091  11.332   2.981 -0.0907  0.1918 -0.3650
13921W        W30768  13.602  17.067   0.107 -0.0383 -0.1830 -0.1872
13922W        W30769   1.610   8.993  11.049 -0.1801 -0.0230 -0.3404
13923W        W30770   4.569   6.642   4.706 -0.0066 -0.2030  0.0518
13924W        W30771   3.410   0.841  11.260 -0.2875  0.4855 -0.1997
13925W        W30772   9.121   9.546  13.821 -0.0530  0.2299  0.0523
13926W        W30773   7.183  16.488  13.987  0.1686 -0.0230 -0.2710
13927W        W30774  18.704  10.259   9.700  0.4003 -0.2471 -0.0839
13928W        W30775   2.909   8.011  12.820  0.2590  0.1515 -0.1857
13929W        W30776  10.586   2.421  13.574 -0.1231  0.1999 -0.2067
13930W        W30777  10.988   9.739   0.885 -0.1094 -0.2640  0.1408
13931W        W30778   7.935   7.096   9.876 -0.1100 -0.2799  0.3225
13932W        W30779  17.576   1.138   2.011 -0.1839  0.1020 -0.0277
13933W        W30780  16.256  14.860  12.746 -0.1491  0.0063  0.4593
13934W        W30781  10.972  17.538  11.820  0.2121 -0.2005 -0.1218
13935W        W30782  12.914  18.701  14.605 -0.1944  0.1275  0.4367
13936W        W30783  15.063   9.132   0.600  0.1320  0.0700 -0.0594
13937W        W30784   0.611   0.882  14.256  0.0348  0.0551 -0.2534
13938W        W30785   3.901  17.811  11.389 -0.0250  0.0832 -0.1697
13939W        W30786   0.517   8.275  12.959 -0.0280  0.0904  0.1378
13940W        W30787   4.065   9.016  14.010  0.1386 -0.1699 -0.1901
13941W        W30788  17.731   3.464  13.007 -0.0220 -0.0939 -0.1126
13942W        W30789   7.026  13.588   3.956 -0.0889 -0.0583 -0.0797
13943W        W30790  14.546   3.193   4.897  0.1607 -0.0219  0.1020
13944W        W30791  19.276  11.436   3.833  0.0317  0.2316  0.1486
13945W        W30792   0.883   5.037   5.503 -0.2140 -0.2964  0.0918
13946W        W30793   1.071  12.450   1.848  0.0721 -0.0935  0.1845
13947W        W30794   2.804  11.807   0.838  0.1350  0.0893  0.0727
13948W        W30795  17.382   1.407   0.184 -0.2125  0.2083  0.0854
13949W        W30796  19.013  15.644  10.068  0.0698 -0.0873  0.1973
13950W        W30797  15.115   2.694   0.851 -0.2767  0.0269 -0.0816
13951W        W30798  18.654  15.606  12.433  0.2263 -0.1011 -0.1270
13952W        W30799   5.765  15.624   3.552 -0.3499  0.0278  0.1521
13953W        W30800   6.476  16.287  10.414  0.0827  0.1267 -0.2238
13954W        W30801  10.759   7.903  12.040  0.0363 -0.2195  0.1370
13955W        W30802  10.509  18.616   3.385 -0.0082 -0.2993  0.2376
13956W        W30803   1.381  13.458  14.649  0.0336  0.2035  0.2490
13957W        W30804   3.173  10.483  10.418  0.3789  0.2151 -0.3032
13958W        W30805   4.762  15.110  12.129  0.2259  0.2433 -0.2794
13959W        W30806  10.527   0.893  12.507 -0.1567 -0.0363  0.2491
13960W        W30807   5.792   5.216  14.414 -0.0366 -0.0367  0.0804
13961W        W30808   0.027  15.833   4.707 -0.0260  0.0292  0.3281
13962W        W30809   9.593  12.308  12.084 -0.1460 -0.1895 -0.2314
13963W        W30810   0.039   4.404  14.155  0.3570  0.1371 -0.0704
13964W        W30811   8.111   2.707  14.031  0.2373  0.1694  0.0714
13965W        W30812   8.774   6.104  10.645 -0.0636 -0.0032  0.1206
13966W        W30813   1.722   5.330   1.116 -0.0275 -0.3361 -0.1842
13967W        W30814   2.286   1.345   3.844  0.0199 -0.3133 -0.2272
13968W        W30815  12.996   5.108   5.155 -0.1948 -0.3791  0.1130
13969W        W30816   3.997  12.146  12.959  0.0460 -0.1941 -0.1319
13970W        W30817   7.788  17.177   4.921 -0.2771 -0.1309 -0.1940
13971W        W30818   0.845   9.221  11.928  0.1109 -0.0945 -0.4479
13972W        W30819  12.720   8.489   0.913 -0.4426  0.2022  0.0046
13973W        W30820   2.835  11.500   3.880  0.0832 -0.1002 -0.0836
13974W        W30821   8.215  15.373   2.574 -0.0122  0.0762  0.2398
13975W        W30822  14.450  15.992  11.496 -0.0169  0.1951  0.0889
13976W        W30823  12.880   6.616  13.650  0.2554  0.1614 -0.0065
13977W        W30824   6.532   0.803  14.298  0.2074  0.1653 -0.0306
13978W        W30825  12.143   9.052  14.766 -0.1757 -0.6498  0.2311
13979W        W30826   9.444  10.979  11.876 -0.1121 -0.4197  0.0033
13980W        W30827   2.973   5.782  12.679  0.3538  0.1677 -0.1633
13981W        W30828  10.776  10.898  14.932  0.0851 -0.0990  0.0237
13982W        W30829   4.423  16.653   1.038  0.0324 -0.0726  0.2906
13983W        W30830   6.265   0.580   0.065  0.1882  0.3021  0.2414
13984W        W30831   3.411  10.685  14.245  0.0538 -0.0542  0.3218
13985W        W30832  13.514  13.150   0.022  0.1673  0.1413  0.0800
13986W        W30833  16.401  12.079   4.707 -0.4431  0.1154  0.0372
13987W        W30834   5.914   3.477  11.083 -0.1003 -0.0969  0.0316
13988W        W30835  17.230  10.200  14.946  0.0033  0.2936 -0.1278
13989W        W30836   0.288   1.061   0.452  0.3101 -0.2416 -0.3524
13990W        W30837   8.461   9.371  12.293 -0.0070  0.0502  0.2844
13991W        W30838   7.476   5.540   1.629  0.1571  0.0151 -0.2082
13992W        W30839  14.174   2.872  10.603 -0.0098  0.2319  0.2636
13993W        W30840   8.434   9.104  12.884  0.1063 -0.1433 -0.1883
13994W        W30841  17.774   8.941  12.503 -0.0886 -0.1338  0.1396
13995W        W30842   2.057  15.189  14.986  0.0256 -0.0143  0.0665
13996W        W30843   9.992  12.487   1.776 -0.1685  0.2213  0.2090
13997W        W30844  11.543   9.031   2.670 -0.1699  0.1892  0.2361
13998W        W30845  11.897   3.519   4.987  0.1853 -0.2178 -0.1674
13999W        W30846  16.541   4.916   9.980  0.1441  0.1146  0.1347
14000W        W30847  17.365   2.825  11.786 -0.1305  0.2826  0.0138
14001W        W30848   2.544   5.436   1.004 -0.1490  0.0727  0.0685
14002W        W30849  18.943   6.275   4.475  0.0565 -0.1008 -0.1802
14003W        W30850  17.998   7.972  12.607 -0.0642 -0.1061 -0.0017
14004W        W30851  12.559   8.235   9.854 -0.2159  0.0127  0.0449
14005W        W30852   5.221   9.586   5.453 -0.0072 -0.1057  0.2524
14006W        W30853  14.337   3.074  14.652  0.0209  0.0092 -0.2245
14007W        W30854   2.520   5.930   5.377 -0.2192  0.1871 -0.0990
14008W        W30855   2.340  16.028  14.811 -0.0319  0.2442 -0.0632
14009W        W30856   9.075  12.231  11.235 -0.2377  0.0789 -0.0352
14010W        W30857   1.834   7.882  12.966  0.0581 -0.0618 -0.2783
14011W        W30858   3.526  12.040  14.267 -0.0335 -0.0766  0.0436
14012W        W30859  18.119   4.775  12.314 -0.3926 -0.2980 -0.0370
14013W        W30860  15.258  10.717   3.818 -0.3173 -0.1116  0.1799
14014W        W30861  12.555   5.404   2.910 -0.2348 -0.0213  0.2140
14015W        W30862   9.777   1.639  12.559 -0.0606  0.1766  0.0109
14016W        W30863   6.117   2.970   2.398 -0.1990 -0.4523 -0.4629
14017W        W30864   8.991  14.083  13.846  0.0477  0.0683  0.2208
14018W        W30865  12.671  15.277  12.281  0.3583  0.0564  0.1698
14019W        W30866   5.229   7.917   3.986  0.0378  0.2840 -0.0114
14020W        W30867   4.215  12.002  13.668  0.0246 -0.2412 -0.2097
14021W        W30868   3.388   3.909   4.001 -0.0174 -0.0876 -0.2052
14022W        W30869   4.509   3.630   2.041  0.1157  0.1338  0.6253
14023W        W30870   0.348  11.535  10.907 -0.0941  0.0088  0.1116
14024W        W30871  16.907  14.726   5.090 -0.0418  0.0373 -0.0695
14025W        W30872   6.368   0.508  10.406  0.1523  0.0249 -0.3710
14026W        W30873  17.103   2.747  14.837  0.1198 -0.0105 -0.1101
14027W        W30874  16.362   3.958   1.394 -0.0541 -0.0965 -0.2030
14028W        W30875   8.060  15.606  11.029 -0.1654 -0.1016  0.0897
14029W        W30876  12.416  11.680   0.985  0.1793  0.0262  0.0518
14030W        W30877   0.902   2.735  12.525 -0.1846  0.0823 -0.2447
14031W        W30878  11.216  13.847  10.864 -0.0979  0.0836 -0.0236
14032W        W30879   8.217  17.985   1.872  0.0929  0.4152  0.1667
14033W        W30880  16.650   1.674   3.439 -0.2106  0.2672 -0.1723
14034W        W30881  14.061   0.542  13.463  0.0877 -0.1750 -0.0281
14035W        W30882  16.551   9.554  12.726 -0.1430 -0.0567 -0.3360
14036W        W30883  11.142   0.399  12.764  0.0171 -0.1800 -0.2321
14037W        W30884  15.636   6.465   3.383 -0.2720  0.2723 -0.1402
14038W        W30885  15.874   3.456  10.365 -0.0239  0.4057  0.0209
14039W        W30886  14.667  18.460  13.744 -0.0647 -0.0719 -0.2599
14040W        W30887   4.286  17.927   3.313 -0.3823  0.1884 -0.1698
14041W        W30888   0.240   6.013   0.553  0.2402 -0.2604  0.0380
14042W        W30889  18.070  10.711   3.837 -0.4790  0.0174  0.1586
14043W        W30890  10.523  18.164  11.770  0.1437  0.1728 -0.1736
14044W        W30891   8.293  18.691   1.289 -0.2689 -0.1958 -0.0919
14045W        W30892  12.469   8.038  12.435  0.2107  0.2214 -0.3927
14046W        W30893  16.511   4.302   2.885  0.1222  0.0790 -0.1770
14047W        W30894  17.478   4.625  12.248  0.3816  0.0109  0.0117
14048W        W30895  15.418  13.188  14.665 -0.0620  0.0872  0.2595
14049W        W30896   6.136   3.058  10.868  0.3405  0.0213 -0.2082
14050W        W30897  13.629  10.118  14.803  0.1648 -0.0011 -0.1425
14051W        W30898   1.805  16.896  14.934 -0.2858  0.0972 -0.0358
14052W        W30899  13.843   6.038  11.395 -0.0799  0.1371 -0.1976
14053W        W30900   7.493   6.116  11.288 -0.0496 -0.2597 -0.0942
14054W        W30901   4.255  10.198  13.864 -0.0250  0.1756  0.0589
14055W        W30902   5.414  10.316   3.626 -0.3964  0.1784 -0.2379
14056W        W30903  14.697   9.750   1.747 -0.0381 -0.0214  0.2667
14057W        W30904  15.615  14.558   2.035  0.2371  0.0052 -0.0414
14058W        W30905   0.117   7.168   4.449 -0.1903  0.0673  0.2056
14059W        W30906   5.346   3.305   1.215 -0.0830 -0.2245  0.0279
14060W        W30907  15.030  17.467  12.975  0.1297  0.0859 -0.0111
14061W        W30908   0.619   4.515   2.112  0.0345  0.1605 -0.3123
14062W        W30909  14.612  10.932   0.199  0.2983 -0.0059 -0.1536
14063W        W30910  17.496   4.861   3.623 -0.1124  0.1201 -0.4176
14064W        W30911  10.580  13.282   0.378  0.2027 -0.1776  0.3726
14065W        W30912   7.400   8.822   1.102  0.0768 -0.0439 -0.1115
14066W        W30913  12.858  12.304  12.601  0.1664  0.3885  0.0085
14067W        W30914   2.867  18.929  14.464 -0.4442 -0.1774 -0.0704
14068W        W30915   0.428   8.392  14.166  0.0445 -0.0459 -0.3487
14069W        W30916   7.640  10.397   0.837 -0.0659 -0.0294 -0.3263
14070W        W30917  13.769   7.270   3.338 -0.1082 -0.1463  0.0509
14071W        W30918  12.980  13.646  10.796  0.2234  0.0556  0.0932
14072W        W30919   0.874  12.321   0.484 -0.1917 -0.2654  0.3129
14073W        W30920  15.122  11.846  13.719 -0.3232  0.0754  0.5038
14074W        W30921  10.441   5.803   0.215 -0.0216  0.2102  0.0813
14075W        W30922   2.560   3.065  14.239 -0.2010 -0.0856 -0.2059
14076W        W30923   4.357  15.740   4.845  0.0190  0.0940 -0.1042
14077W        W30924  18.770  12.952   2.185  0.2182  0.0725 -0.0993
14078W        W30925   7.355   6.829   0.201 -0.1107  0.3128  0.2228
14079W        W30926   3.210   0.252   4.218  0.2717  0.1742 -0.0655
14080W        W30927   3.468  14.354  14.949  0.1392 -0.1602  0.2639
14081W        W30928  15.727   8.609  13.427  0.0313 -0.0667 -0.1426
14082W        W30929   5.072   3.849   3.995  0.1538  0.0224  0.0517
14083W        W30930   3.793   9.075   3.789 -0.0151 -0.0058 -0.0198
14084W        W30931   7.839   3.006  11.030 -0.2097  0.2124 -0.0243
14085W        W30932   6.817  14.376   0.446 -0.1458  0.1885 -0.0255
14086W        W30933   7.735  16.537   0.277  0.0514 -0.0942  0.1720
14087W        W30934  12.608  18.618  12.638 -0.1447  0.0343 -0.0398
14088W        W30935   5.963   8.109  12.760  0.2096 -0.1329  0.1307
14089W        W30936  16.630  16.573   2.805  0.0249 -0.2229 -0.3153
14090W        W30937   6.915  13.446  11.718 -0.0024  0.0881  0.1229
14091W        W30938  14.778  10.753   2.463 -0.1019 -0.0828  0.2725
14092W        W30939  18.567  13.315   1.917 -0.2254  0.0691  0.0681
14093W        W30940   4.069   9.349   0.467 -0.3584  0.0192 -0.0287
14094W        W30941   3.289   9.258   1.230  0.0673  0.0194  0.0267
14095W        W30942   9.525   8.699  12.150  0.0380 -0.0106  0.0066
14096W        W30943  16.646  16.589   5.096  0.0824 -0.0045  0.0524
14097W        W30944   3.176   3.766   4.930  0.3444 -0.1218  0.0893
14098W        W30945  17.178   2.368   2.103  0.3056  0.1863  0.0818
14099W        W30946  13.254   8.481   0.243  0.1693  0.1832 -0.1331
14100W        W30947   4.013  15.043   0.641  0.3066  0.0113  0.2263
14101W        W30948  12.015  10.414  13.101 -0.1932  0.0690 -0.0017
14102W        W30949   5.452   4.116  13.638  0.0854 -0.1806  0.3472
14103W        W30950   1.906   0.195  11.586  0.1530  0.0199 -0.0820
14104W        W30951   3.848  17.789  10.275  0.2625 -0.2109  0.2609
14105W        W30952   0.745   9.540   4.314  0.0134  0.1261 -0.2531
14106W        W30953   1.810  17.374   0.112 -0.0337  0.1304 -0.1250
14107W        W30954  13.397   5.695   4.110  0.0838  0.0830 -0.1712
14108W        W30955   1.695   1.883  14.371 -0.0819 -0.1913  0.2021
14109W        W30956   9.561   4.655  10.668 -0.0194 -0.2854  0.1596
14110W        W30957   6.700   5.202  12.012  0.0442 -0.3000 -0.1525
14111W        W30958   0.757   3.880  11.688 -0.0780  0.1153  0.1110
14112W        W30959  11.237   6.989  12.328 -0.1289 -0.0646 -0.0128
14113W        W30960  17.399  17.591   1.444 -0.4507 -0.2483  0.1138
14114W        W30961   7.130   2.334  10.494 -0.3203  0.1669 -0.0813
14115W        W30962   7.112  18.405   4.325  0.4901 -0.0278 -0.1040
14116W        W30963  12.192  16.381   1.732 -0.1031 -0.3073  0.4290
14117W        W30964  16.179  13.045  13.466 -0.2095 -0.2869  0.2058
14118W        W30965  11.159  13.595  13.975 -0.0981  0.1808 -0.2209
14119W        W30966   0.330   0.351  12.697  0.1889  0.0763  0.1742
14120W        W30967  12.754   0.987   4.152  0.2860 -0.0365 -0.0549
14121W        W30968  14.760  15.688   2.200 -0.1734 -0.1607  0.1316
14122W        W30969  17.539   2.622   3.613 -0.0806  0.3995 -0.0130
14123W        W30970   3.381   5.262   3.972  0.1683  0.0583  0.1971
14124W        W30971  13.614  12.547  13.706 -0.1281 -0.1379 -0.0375
14125W        W30972   1.523  11.326   1.300  0.3576 -0.3558  0.1511
14126W        W30973   4.151   5.274  12.518  0.2935 -0.0598  0.0079
14127W        W30974   4.353   9.725   0.577  0.1143 -0.2687  0.2683
14128W        W30975   7.891  17.975   4.826  0.1531  0.0305  0.0638
14129W        W30976   9.660   8.963  13.533  0.0948 -0.1161 -0.3577
14130W        W30977   0.778  11.868   4.162 -0.0699  0.1577  0.2292
14131W        W30978   2.669  14.780   2.865 -0.1691  0.2185  0.0695
14132W        W30979   1.707   0.691  14.892 -0.3547  0.0070  0.2064
14133W        W30980   3.867  12.617   0.370 -0.1977 -0.2788  0.0706
14134W        W30981   3.896  17.362  14.471  0.1426 -0.0926  0.2196
14135W        W30982  18.490  12.086  11.413  0.0014 -0.1044 -0.0086
14136W        W30983   5.742  10.032   2.321  0.4439  0.1056  0.0251
14137W        W30984  10.860   2.012  11.899 -0.2138  0.2519  0.0559
14138W        W30985   2.684  15.895   2.959  0.0346  0.1697  0.3058
14139W        W30986  10.195   3.835  10.849  0.1114  0.4351  0.0395
14140W        W30987   2.047   9.696  11.131 -0.0408 -0.1175 -0.2800
14141W        W30988   9.615   0.268   2.609  0.0083 -0.0853  0.0229
14142W        W30989   9.005  10.679  10.821  0.0301 -0.1061 -0.2654
14143W        W30990  11.131  12.673  14.568  0.0512 -0.2435 -0.0416
14144W        W30991  10.777   0.050  13.999 -0.1448  0.2927 -0.5285
14145W        W30992  15.430   1.550  11.965  0.0198 -0.0869 -0.0083
14146W        W30993   8.601  17.871  14.001 -0.2550 -0.0390 -0.2677
14147W        W30994  16.228  18.091  11.411  0.5745 -0.0018  0.1120
14148W        W30995   4.027  18.510  12.350 -0.0025  0.2455  0.2839
14149W        W30996   9.071  12.497   9.918  0.0620  0.1038  0.0682
14150W        W30997  18.532   7.159  10.319  0.1348 -0.1340 -0.0089
14151W        W30998  10.919  12.351   9.515  0.0461  0.1787 -0.1269
14152W        W30999   1.870   6.399   2.638 -0.0513  0.1751 -0.0678
14153W        W31000  11.052  15.202   2.310 -0.0249 -0.4575  0.1450
14154W        W31001   6.005   7.618  13.262 -0.1925  0.0065 -0.3254
14155W        W31002   6.155   2.798   1.904 -0.1266  0.1578 -0.1830
14156W        W31003  12.524  19.178   0.269  0.1395 -0.0818  0.1324
14157W        W31004  16.488   0.063   3.153 -0.2937  0.0142  0.0302
14158W        W31005  12.461   3.342  10.235  0.0436  0.0738  0.0958
14159W        W31006   1.411   6.973   0.021  0.1372  0.3459 -0.1503
14160W        W31007  10.359   7.701  14.553 -0.0194 -0.0342 -0.1158
14161W        W31008   5.216   5.714  12.315  0.2099 -0.1712 -0.1882
14162W        W31009   1.653  10.514   3.749  0.0889 -0.1249 -0.3245
14163W        W31010  17.358  12.062  10.098 -0.2162 -0.1412 -0.0472
14164W        W31011  18.868  12.747   3.400  0.0462 -0.1488 -0.4792
14165W        W31012   8.430  12.437  11.822 -0.0480 -0.0033 -0.0475
14166W        W31013  15.253  11.686   3.833 -0.4385 -0.1859 -0.0359
14167W        W31014  13.869   9.816  13.686 -0.0004 -0.1514  0.0894
14168W        W31015  18.919  11.884  11.589  0.3593  0.0064  0.5202
14169W        W31016   1.967  18.400   1.984  0.0664 -0.0038 -0.0554
14170W        W31017   7.979  16.631   1.551 -0.2133  0.1364 -0.2786
14171W        W31018   4.810  14.776  14.587 -0.1863 -0.1943  0.0349
14172W        W31019   2.846  17.125   4.299 -0.0887  0.1615  0.1670
14173W        W31020  12.170   8.917  11.388  0.0919  0.2708  0.0525
14174W        W31021  13.125  11.071  12.951  0.2578 -0.0607  0.2956
14175W        W31022   3.955   3.266   0.010 -0.1338 -0.1642  0.2683
14176W        W31023   9.980   0.339  10.427  0.0995  0.0633  0.0033
14177W        W31024   5.286   6.837   2.160  0.2118  0.1322  0.0056
14178W        W31025   7.454   0.025   2.011 -0.0285 -0.2005  0.1215
14179W        W31026   7.338   7.869   2.020 -0.1641 -0.1954  0.2799
14180W        W31027   7.777  14.278   4.132  0.2974 -0.1569 -0.2950
14181W        W31028  18.056   7.338   2.648  0.2392  0.3252  0.2561
14182W        W31029   0.586  16.691  14.165  0.1600  0.0042  0.1410
14183W        W31030  16.804   6.868   3.781  0.0925  0.2522  0.2301
14184W        W31031   3.685  10.501   2.553 -0.2347 -0.0184 -0.0753
14185W        W31032   6.625   6.896  14.142  0.0723 -0.0824  0.0396
14186W        W31033  11.783   1.983   0.062  0.1583 -0.2041 -0.2117
14187W        W31034  10.852   5.356   3.408 -0.1459  0.1405 -0.3628
14188W        W31035  15.723  14.467  13.591 -0.1353 -0.0444  0.0026
14189W        W31036   3.726   2.730   1.533 -0.1807  0.0234  0.0054
14190W        W31037   8.959   0.619  11.298  0.1068 -0.1508  0.1015
14191W        W31038   2.795  17.081  11.295  0.1956  0.2458 -0.1270
14192W        W31039  17.021   5.870  12.149 -0.1363 -0.0016 -0.1658
14193W        W31040  16.909  17.873  15.008  0.0344  0.0537  0.0515
14194W        W31041   8.388  16.677   4.766  0.0194  0.0378  0.0101
14195W        W31042  17.155   4.252  11.345 -0.0346  0.0970 -0.1219
14196W        W31043  10.884  12.520  14.975  0.0096  0.0032 -0.4733
14197W        W31044   9.598  12.710   0.026  0.1933 -0.0632  0.0494
14198W        W31045   0.511  14.664  11.429  0.1159  0.4623 -0.1763
14199W        W31046   1.222   9.709   4.279  0.0801 -0.1783  0.0559
14200W        W31047  12.429  16.643  11.645 -0.1968  0.0216 -0.1461
14201W        W31048  14.118   8.115   1.842 -0.3736 -0.2208  0.1602
14202W        W31049  12.707  11.293   4.657  0.2306 -0.1917  0.1613
14203W        W31050   7.889  13.945   1.945 -0.1547 -0.3174  0.0374
14204W        W31051  15.844  11.675   1.385 -0.1462 -0.0682  0.4791
14205W        W31052  16.538  10.196   3.534  0.1048 -0.2615 -0.3305
14206W        W31053  18.220  11.887   3.061  0.0941  0.0816  0.1031
14207W        W31054   6.082   8.503  14.981 -0.0590  0.4609  0.2517
14208W        W31055   6.667  15.486   3.858  0.1120  0.1229  0.1338
14209W        W31056  16.882   3.653  13.409 -0.0771  0.0259  0.0625
14210W        W31057  15.954   0.574   2.080  0.0382  0.0656 -0.2695
14211W        W31058   5.110  14.750  13.007  0.4009  0.1046  0.1949
14212W        W31059  13.008  10.937   2.437 -0.1087 -0.1910  0.1835
14213W        W31060  12.474  17.863   0.138 -0.2818  0.2367  0.2682
14214W        W31061   5.751   9.178  11.830 -0.1007  0.4412 -0.0747
14215W        W31062   8.836   5.209  10.247 -0.0921  0.2283  0.0848
14216W        W31063  15.754  13.551  14.794 -0.0158  0.1580  0.2420
14217W        W31064  14.108  16.280  14.430 -0.0074  0.1263 -0.0849
14218W        W31065   1.790  11.473   3.056  0.1187  0.0565 -0.0951
14219W        W31066   4.539  15.879  10.922  0.0823 -0.0455  0.1042
14220W        W31067   8.624  14.754  14.768 -0.1772 -0.0456 -0.1153
14221W        W31068   7.385   4.218   1.672  0.1830  0.1701 -0.0016
14222W        W31069   1.247  12.644  11.531  0.1936 -0.3021 -0.0831
14223W        W31070  18.028  17.610   4.178 -0.1419  0.0126  0.1425
14224W        W31071  16.510  12.817   1.240  0.3458  0.0773 -0.1929
14225W        W31072   7.337  15.024   2.662  0.0086 -0.0113  0.1822
14226W        W31073  15.885   8.174   0.688 -0.0199 -0.2747 -0.0641
14227W        W31074   1.458   6.968   5.325  0.0028 -0.1264  0.0064
14228W        W31075  16.982  15.973  14.006 -0.0312 -0.1407  0.0633
14229W        W31076  10.665   0.469   0.680 -0.0265 -0.1052  0.0734
14230W        W31077   9.774   5.009  13.525  0.2126  0.0604 -0.0235
14231W        W31078   7.613   6.552   3.362  0.2629  0.1629 -0.1694
14232W        W31079  12.907  10.819  14.738  0.0161 -0.0943 -0.0072
14233W        W31080   2.126  14.814  12.494  0.1270 -0.0371  0.1255
14234W        W31081   8.290   1.405  13.403  0.0165  0.1956 -0.1448
14235W        W31082   1.033   6.881   3.401 -0.0347  0.1503 -0.0048
14236W        W31083  12.306  11.698   4.425  0.3098  0.0796 -0.1070
14237W        W31084  18.511  14.187  13.896 -0.2584  0.0494  0.1645
14238W        W31085  11.851  15.951  11.515 -0.1061 -0.1736  0.0108
14239W        W31086   9.486   7.362   3.191 -0.1676 -0.1166  0.0985
14240W        W31087  17.009  13.291  11.548 -0.0198  0.0564  0.0269
14241W        W31088  16.518  15.235  12.483  0.1571  0.2808 -0.0354
14242W        W31089  11.007   6.231   0.562 -0.3184 -0.2533 -0.2792
14243W        W31090  15.100   4.636  13.083 -0.1238 -0.2485  0.3630
14244W        W31091  10.303   4.396  13.427  0.0369 -0.3863  0.0697
14245W        W31092   1.621   7.391   1.417 -0.0748  0.1099 -0.2611
14246W        W31093  14.021   2.122  11.044  0.0172  0.0107  0.0362
14247W        W31094  16.938  17.565   1.251  0.4123  0.0057 -0.2355
14248W        W31095   9.240  11.210   1.297  0.0013  0.1007 -0.0042
14249W        W31096  19.029  16.291  13.509  0.1163  0.3916 -0.0012
14250W        W31097  15.912   7.819   2.944 -0.1088  0.1967  0.0990
14251W        W31098   3.053  18.615  11.135 -0.0172  0.0316  0.0326
14252W        W31099  16.158  13.350  14.529 -0.0280  0.2872 -0.1616
14253W        W31100  17.140   7.627  13.572  0.0301  0.2462  0.1176
14254W        W31101  17.739  17.055   1.478  0.1594  0.1053  0.2899
14255W        W31102   7.569  12.352  13.798  0.1431 -0.1975 -0.0023
14256W        W31103   5.772  14.414  14.339  0.3497 -0.0664 -0.3355
14257W        W31104  14.327  18.762  11.037 -0.1349  0.1040 -0.0273
14258W        W31105  14.241   2.771  12.170  0.0898  0.0120  0.1502
14259W        W31106   0.335   6.956  12.747 -0.2263 -0.5022  0.4565
14260W        W31107   2.752   9.243   0.015 -0.0830 -0.0720 -0.0822
14261W        W31108   1.578   0.323   2.586 -0.2429 -0.4524 -0.3554
14262W        W31109  17.454  10.318  12.288  0.1680  0.2399 -0.4071
14263W        W31110   5.772   1.218  10.755 -0.2012 -0.0229  0.0091
14264W        W31111   5.618   4.458   4.261  0.1657  0.1854 -0.0328
14265W        W31112   0.115  18.976   6.056 -0.1062  0.1760 -0.3011
14266W        W31113  10.976   3.675  11.512  0.1883  0.0524  0.0936
14267W        W31114   8.004   9.028   3.981  0.3127 -0.0881  0.0886
14268W        W31115   4.916  10.204   3.606  0.0839  0.1634  0.5167
14269W        W31116  14.913   1.253   0.433  0.0577 -0.1024 -0.2674
14270W        W31117   7.604  18.546   4.716  0.0211  0.0009  0.0399
14271W        W31118  14.644   6.600  13.749 -0.2250  0.0388 -0.0866
14272W        W31119  12.036  15.973  11.030 -0.1639 -0.0846  0.1786
14273W        W31120  17.910   5.445   0.200  0.1428  0.4846 -0.2610
14274W        W31121  14.986   2.228  13.840 -0.1098  0.0003  0.3769
14275W        W31122   3.541   8.718  14.916 -0.1859  0.0691  0.1961
14276W        W31123  15.175   4.289  11.192 -0.4459 -0.2900 -0.0657
14277W        W31124   7.138  14.279   4.911  0.0761  0.0312 -0.1028
14278W        W31125  18.112   1.673   1.399  0.0351 -0.2506 -0.0125
14279W        W31126  18.775  11.138  14.626 -0.0339 -0.2137  0.0190
14280W        W31127   3.504   7.861   1.584  0.2546 -0.0300 -0.1890
14281W        W31128  18.488  18.853   5.749 -0.1673 -0.0459  0.1838
14282W        W31129   8.117   2.685  10.683 -0.1115  0.3071  0.1940
14283W        W31130   9.522   5.960  13.719  0.0451 -0.0467  0.2002
14284W        W31131  19.153   3.718  11.898 -0.0535 -0.1649  0.0738
14285W        W31132  18.009   4.948  10.534  0.0921  0.1085  0.1754
14286W        W31133   8.432  11.711   0.959  0.2862  0.0340  0.0835
14287W        W31134   0.209   9.952  13.473 -0.2326  0.3840  0.0523
14288W        W31135   7.669  10.266   1.875  0.3099 -0.1995 -0.2288
14289W        W31136   6.242  15.563   0.654  0.4275  0.1636  0.1121
14290W        W31137   5.799   2.693  11.024  0.2519 -0.0553 -0.0104
14291W        W31138  10.998  16.485   4.146 -0.2045 -0.0310 -0.1760
14292W        W31139   7.329   7.646   4.230  0.0658  0.1093 -0.1131
14293W        W31140  16.535  14.106   1.895  0.2470  0.0133  0.0087
14294W        W31141   2.849   6.791   5.513  0.1695 -0.0954  0.0400
14295W        W31142  10.344   7.529   3.835 -0.1269 -0.2900 -0.0354
14296W        W31143   7.157   3.710   4.406 -0.1289 -0.0426  0.0837
14297W        W31144   5.143  17.769   2.574  0.0638  0.0310  0.0031
14298W        W31145   1.118  10.696   0.528 -0.1188 -0.1944  0.2291
14299W        W31146  18.899   0.624   3.361 -0.0397  0.0143 -0.0299
14300W        W31147   1.185  12.847  10.538  0.1691  0.2988  0.2888
14301W        W31148   8.466  11.439  14.016 -0.1615 -0.2065  0.1581
14302W        W31149  11.612   7.077  10.662  0.0398  0.1532 -0.0214
14303W        W31150   5.821  15.280   0.544  0.0502  0.0559  0.0416
14304W        W31151   8.419  16.706   1.768 -0.0178 -0.2589 -0.3848
14305W        W31152  13.746  11.921  12.837  0.1612 -0.6046 -0.1864
14306W        W31153  17.549  10.596   2.684  0.2090 -0.1232  0.2056
14307W        W31154   6.753  15.480   0.818  0.0159  0.0994  0.2215
14308W        W31155   8.893  19.158   9.714  0.0524 -0.0972 -0.1689
14309W        W31156   1.306  13.388  10.961  0.1613  0.2015 -0.1154
14310W        W31157  11.805  11.723   3.267 -0.1095 -0.2509 -0.0947
14311W        W31158  15.217   6.052  13.213  0.2476 -0.0659  0.3709
14312W        W31159  13.464  13.417   5.345 -0.0995 -0.1205  0.0131
14313W        W31160   5.315   4.138   3.328 -0.0707  0.0086  0.2139
14314W        W31161  11.586   7.938   0.193  0.1567  0.0583 -0.1380
14315W        W31162  16.890  17.360   3.474 -0.2990 -0.3061 -0.2229
14316W        W31163   1.487  15.122  10.942 -0.0698 -0.0520 -0.1856
14317W        W31164  16.452   7.681   4.579 -0.0365 -0.0577  0.0100
14318W        W31165  18.955  18.031  11.772 -0.1660  0.2443  0.2053
14319W        W31166  18.131   9.718  11.324 -0.1297  0.1489 -0.1912
14320W        W31167   0.539  18.899  12.599  0.0702  0.0012  0.2091
14321W        W31168  10.160  15.233  12.165  0.0143  0.2281  0.0477
14322W        W31169   3.594   4.849  11.956 -0.1926 -0.0898 -0.1727
14323W        W31170  14.520   9.160   4.449  0.1050  0.1738  0.0707
14324W        W31171   5.887   6.764   3.916  0.0333 -0.0528  0.0816
14325W        W31172  15.021  16.038   4.009  0.1159 -0.0346  0.0191
14326W        W31173  17.676   8.329   5.925 -0.2755  0.0699  0.0818
14327W        W31174  13.651  12.225   9.184  0.0878  0.2166 -0.0421
14328W        W31175  13.387  14.898  11.292 -0.0826  0.0460  0.2833
14329W        W31176  14.920   3.587   3.018 -0.0227  0.1534  0.3034
14330W        W31177   6.435   4.305   2.601 -0.2694  0.3640  0.1841
14331W        W31178  16.589  11.802   1.328  0.0149  0.1031  0.1274
14332W        W31179   4.365   6.990   1.210 -0.1654 -0.2052  0.0149
14333W        W31180  17.188  18.015   1.248  0.2556 -0.1905  0.0216
14334W        W31181   7.137   3.772  10.776 -0.2010  0.1618  0.1417
14335W        W31182  11.277  16.352  10.911 -0.1459 -0.2412  0.2322
14336W        W31183   2.213   9.878  14.042  0.3613 -0.2146  0.0443
14337W        W31184  15.404   3.046  14.458  0.4386  0.0546  0.0515
14338W        W31185   6.271  16.214  14.420 -0.3050  0.0523  0.0349
14339W        W31186   1.457  13.905   4.785 -0.3197 -0.0501  0.3229
14340W        W31187   2.733  10.950   0.126  0.1750 -0.0946  0.2709
14341W        W31188  15.808   6.669  12.101  0.4316 -0.0178 -0.0276
14342W        W31189   3.930   6.225  11.387 -0.2534  0.1508  0.0889
14343W        W31190  16.114   1.216  11.558 -0.1231 -0.0792  0.0795
14344W        W31191   6.457   5.397  13.292  0.1252 -0.0320 -0.0771
14345W        W31192   9.005   2.606   1.453 -0.0135 -0.2282 -0.2299
14346W        W31193  12.283   7.558  11.480  0.1501 -0.1140 -0.2630
14347W        W31194   9.343   6.986   3.874 -0.0587 -0.3385  0.2440
14348W        W31195  12.484  17.934   6.281 -0.1754 -0.0810 -0.1540
14349W        W31196   2.558  17.223  13.419 -0.3696 -0.1320 -0.0155
14350W        W31197   1.708  18.179  11.294 -0.2356 -0.1284 -0.0794
14351W        W31198   9.467  10.287   3.256 -0.0457  0.1038  0.1240
14352W        W31199  12.823   9.920  13.466 -0.1843  0.0824 -0.0954
14353W        W31200  13.808   2.554  10.657 -0.1508  0.1445  0.3335
14354W        W31201   0.381   1.868  11.232 -0.2105  0.0056 -0.1613
14355W        W31202  18.478  13.862  12.618  0.0181 -0.3942 -0.0069
14356W        W31203  15.524   0.505  12.580  0.0339  0.0542  0.3894
14357W        W31204  11.982   4.079   3.630  0.4969  0.4178 -0.0269
14358W        W31205   7.096  13.790   1.237 -0.1883 -0.2169  0.0922
14359W        W31206  17.142  16.306  12.022 -0.0334 -0.0982  0.2267
14360W        W31207  16.744  12.567  14.457 -0.1410  0.1272 -0.0175
14361W        W31208   7.704  17.990   1.701  0.1886  0.2115  0.0458
14362W        W31209   8.088   5.429   0.603  0.1506  0.3496 -0.4630
14363W        W31210  13.106  12.564  13.875  0.1247 -0.4125 -0.0331
14364W        W31211  11.959  14.388   3.631 -0.1930  0.2715 -0.0522
14365W        W31212   8.082   5.931   2.184  0.2222 -0.0620  0.0248
14366W        W31213   9.738   1.295   1.263 -0.0695  0.1515  0.0463
14367W        W31214  14.058  18.570  13.901  0.2324 -0.1229  0.0075
14368W        W31215   4.733  14.375  12.496 -0.3236  0.0265  0.2980
14369W        W31216   8.257   2.668  12.245  0.0809 -0.0309  0.1755
14370W        W31217   6.301  15.358  12.221 -0.2309 -0.1096 -0.1716
14371W        W31218   6.306   1.619   3.054  0.2943  0.2031 -0.0142
14372W        W31219   3.671   4.373   4.044 -0.1658 -0.3222  0.2864
14373W        W31220  17.778  13.922   2.945 -0.0423 -0.0281  0.3225
14374W        W31221  14.854  13.552   1.659  0.2873 -0.0517 -0.1827
14375W        W31222  11.558  17.971  13.864 -0.2670  0.2995  0.0848
14376W        W31223   6.297  13.675  10.593  0.1552 -0.1636 -0.1847
14377W        W31224   8.689  19.075  11.882 -0.2386 -0.1933  0.0058
14378W        W31225  18.899   0.903  12.186 -0.2592  0.1515  0.1008
14379W        W31226  13.975  16.790   1.403 -0.0266  0.3587 -0.1041
14380W        W31227   4.128   3.866  12.518 -0.4218  0.3350  0.1189
14381W        W31228  13.662  15.196   4.213  0.2439 -0.0974 -0.1802
14382W        W31229  14.051  10.631  11.693  0.0336 -0.0355 -0.1361
14383W        W31230   1.275   0.056  12.271 -0.1654 -0.1962 -0.1025
14384W        W31231   7.083   8.310  12.890  0.0722 -0.0167  0.0173
14385W        W31232  18.822  13.019   3.835  0.2247 -0.0662  0.1994
14386W        W31233   1.900   4.650   1.875 -0.0365 -0.0377  0.0113
14387W        W31234   3.518   6.115   0.396 -0.1898  0.1072  0.2919
14388W        W31235   0.299   1.776  14.888 -0.0598 -0.0566  0.3429
14389W        W31236   1.851  18.952   4.094  0.1937  0.0645 -0.0751
14390W        W31237  16.827  14.497   1.077 -0.0199 -0.0491  0.2258
14391W        W31238   6.194  17.211  14.159 -0.3025  0.1902 -0.1128
14392W        W31239   3.977  14.067  11.585  0.2395  0.0602 -0.1868
14393W        W31240   9.113   3.010   1.128  0.0388 -0.1200 -0.0375
14394W        W31241   2.216   2.536   0.437  0.0738  0.0459  0.0193
14395W        W31242  15.096   5.793   2.142  0.0183 -0.0207 -0.1302
14396W        W31243   2.910   7.292  14.046  0.1899 -0.3844  0.2481
14397W        W31244  13.502   6.718  10.591  0.0093  0.1383  0.0266
14398W        W31245  10.487  10.070   0.926 -0.0644  0.2146 -0.2140
14399W        W31246   4.241  17.235  10.952 -0.1503 -0.2549 -0.2266
14400W        W31247  17.848  19.253   0.012 -0.0814 -0.1791  0.0316
14401W        W31248   4.319  16.784  10.836 -0.1761  0.1835 -0.1092
14402W        W31249   3.859  14.311   3.381 -0.1653  0.1156  0.0125
14403W        W31250   4.965  19.061  12.922  0.1566 -0.4410  0.1219
14404W        W31251  17.967   5.211   1.838  0.2434  0.1671  0.0341
14405W        W31252   4.315  16.310   0.588 -0.2116 -0.1656  0.0218
14406W        W31253   8.270  11.691   3.505 -0.0918 -0.0484  0.2106
14407W        W31254  19.253  12.710   3.826 -0.1994  0.1595 -0.0655
14408W        W31255  14.117  16.625  13.197  0.1773  0.1985  0.1746
14409W        W31256   7.308   6.771   4.545 -0.1855  0.2813 -0.0337
14410W        W31257  17.776   8.345   1.831  0.1068 -0.0254  0.0395
14411W        W31258   9.211   3.202   4.487  0.0024  0.1079 -0.3297
14412W        W31259   7.261  13.545  10.435 -0.2120 -0.0358 -0.0626
14413W        W31260   8.405   8.376  13.607  0.2880  0.2852 -0.0311
14414W        W31261  14.377  12.407   3.135  0.1486 -0.1210 -0.0824
14415W        W31262   6.422  17.880  13.781  0.0717 -0.1176  0.0581
14416W        W31263  11.686   7.167   2.384 -0.2053 -0.3820 -0.1016
14417W        W31264  11.571  12.697   0.394  0.1545 -0.4197 -0.0311
14418W        W31265   7.209  15.967  14.271  0.1858 -0.0109 -0.0007
14419W        W31266  16.288   6.299   5.152  0.0825 -0.2403 -0.0222
14420W        W31267   6.357  15.272  12.757  0.0996  0.1541  0.1713
14421W        W31268  13.361   7.371   5.372  0.0766 -0.4498  0.0452
14422W        W31269   4.806   3.262   1.107 -0.0518 -0.3918 -0.0086
14423W        W31270  15.746   1.712   0.590 -0.2328  0.0520  0.3016
14424W        W31271   6.272  18.888   1.876  0.1576  0.0427 -0.2334
14425W        W31272  12.399  16.375  14.394  0.2014  0.0471  0.0020
14426W        W31273  13.165  17.282   2.260 -0.3546  0.2900  0.2623
14427W        W31274  18.080  16.498  13.809 -0.1404  0.0068 -0.3636
14428W        W31275   5.291   3.002   1.979  0.0565 -0.1440 -0.0855
14429W        W31276  13.956  17.605   4.743  0.2770 -0.1041  0.0998
14430W        W31277   2.682  10.359  13.907  0.3545 -0.2693 -0.0752
14431W        W31278   4.232   4.106   0.327 -0.0419 -0.1268 -0.0903
14432W        W31279   4.544   9.430  12.151  0.0978 -0.0562 -0.0573
14433W        W31280   3.711   4.115   1.422 -0.4332  0.2435  0.1307
14434W        W31281   6.022   1.841   4.381 -0.1161 -0.1888 -0.4311
14435W        W31282  10.180  17.213   1.327 -0.0178  0.4657 -0.3944
14436W        W31283  14.415  12.158  10.313  0.2942  0.1626 -0.3057
14437W        W31284   6.104  12.887   1.516  0.1886 -0.0132  0.1202
14438W        W31285  11.698  12.105   2.064 -0.0415  0.0059  0.2233
14439W        W31286  15.689   4.924   3.015  0.3180 -0.0313  0.0596
14440W        W31287  11.631  14.904  12.595  0.0104  0.3048 -0.3947
14441W        W31288  14.652  17.353   5.343 -0.0999  0.2868 -0.0806
14442W        W31289   7.377   3.422  10.459 -0.1150 -0.0318 -0.0149
14443W        W31290   8.831   9.352   0.272  0.3462 -0.2493 -0.1298
14444W        W31291   6.869   6.930   3.724 -0.0253  0.0819 -0.2667
14445W        W31292  15.350   0.657   2.965 -0.0361 -0.0324  0.3548
14446W        W31293  11.277   2.927  14.979 -0.0234  0.3697  0.0397
14447W        W31294   2.664  13.220   4.262 -0.1387  0.0231 -0.1514
14448W        W31295  15.821   9.503  10.738  0.1368  0.2009 -0.0971
14449W        W31296  15.112   5.418   4.601 -0.1068 -0.0926  0.0064
14450W        W31297  15.697  19.147  12.019  0.1882 -0.2004  0.3447
14451W        W31298  12.570  18.167   4.634 -0.2418 -0.1317  0.2926
14452W        W31299  14.204   6.282  13.565  0.0743  0.1820 -0.2227
14453W        W31300  10.984  13.345   1.211 -0.0706 -0.1258 -0.1623
14454W        W31301   6.226  15.473   3.565 -0.0007  0.1240  0.2584
14455W        W31302  17.214   8.891  14.346 -0.2424 -0.1183 -0.2272
14456W        W31303  11.673   6.875  12.476 -0.0595  0.0999 -0.3512
14457W        W31304   6.989   1.992   4.874 -0.1033  0.0280  0.0470
14458W        W31305  17.044  13.492  10.553 -0.0110  0.0593  0.2135
14459W        W31306  17.413   3.571   3.668  0.2210  0.2369 -0.1564
14460W        W31307   3.308  18.191   0.682  0.0440 -0.1985  0.1007
14461W        W31308  18.398  12.551   0.635 -0.2435  0.0579 -0.0807
14462W        W31309   3.193  13.703  11.044 -0.0997  0.0853 -0.0803
14463W        W31310  13.859  18.926  10.850  0.1282 -0.2273  0.0299
14464W        W31311  18.257   0.254  14.326  0.1270 -0.0252  0.0248
14465W        W31312   8.112   1.373  11.768  0.2318  0.1003  0.0176
14466W        W31313  17.113  13.372   0.196 -0.0431  0.0464  0.0502
14467W        W31314   4.992   8.282  12.559 -0.1113  0.2289 -0.1270
14468W        W31315   8.819   0.658   4.112  0.2994  0.0490 -0.3499
14469W        W31316  18.016   4.219   4.014  0.0745 -0.1333  0.5246
14470W        W31317  13.082   3.096   2.690  0.1303  0.2020 -0.0319
14471W        W31318  15.976  17.615   2.871 -0.0877 -0.2565 -0.1908
14472W        W31319  14.550   9.753   4.686 -0.0165 -0.0322 -0.1074
14473W        W31320   7.133  17.707  11.675 -0.0548  0.1847 -0.4674
14474W        W31321   4.900  10.440  14.709 -0.3872  0.3593  0.0433
14475W        W31322   4.058  10.294  12.054 -0.4582 -0.1640 -0.2055
14476W        W31323  15.064   4.895   4.665 -0.2464 -0.0240  0.0426
14477W        W31324  18.686  11.097   9.358 -0.1813 -0.1190 -0.0520
14478W        W31325   9.045   2.693  14.451 -0.1108 -0.0066 -0.1972
14479W        W31326   8.475   5.235  11.941 -0.2946 -0.2057  0.2145
14480W        W31327   3.563  16.056  12.253  0.2117 -0.1169 -0.0296
14481W        W31328   5.386   7.161  14.007  0.2510  0.2847 -0.0180
14482W        W31329   2.829   1.317   1.761 -0.0416  0.2161 -0.3242
14483W        W31330  13.998   9.456   2.359  0.0452 -0.5075  0.2166
14484W        W31331   2.856   4.027  14.290 -0.1276  0.0717  0.0085
14485W        W31332   9.701  19.091  14.617  0.1594  0.0051  0.3104
14486W        W31333  11.709  15.549   1.643  0.0585 -0.0838 -0.0767
14487W        W31334  12.663   3.968   4.868 -0.0072 -0.1366 -0.0565
14488W        W31335   2.011  13.586  13.955 -0.2298  0.0920 -0.1589
14489W        W31336   4.172  10.634   1.146  0.0630 -0.1471 -0.0273
14490W        W31337   0.133   4.210  14.630 -0.0158  0.1480  0.0287
14491W        W31338  18.911   4.172  14.071 -0.0781  0.0511 -0.1057
14492W        W31339  12.007   9.201   4.486 -0.0749  0.2515 -0.3976
14493W        W31340  11.228   3.050   4.220 -0.0595  0.0897  0.0263
14494W        W31341  18.652  11.400  10.795 -0.2633 -0.1589 -0.0198
14495W        W31342  19.172   2.780  14.816  0.1973 -0.1621 -0.1279
14496W        W31343  15.785   6.118   3.872 -0.2248 -0.0826  0.0109
14497W        W31344   8.126  11.549   0.522 -0.2062  0.1884  0.1760
14498W        W31345  15.691  18.000   3.839 -0.0756 -0.1548 -0.5515
14499W        W31346  14.306   6.430   1.332  0.0864 -0.2101 -0.0823
14500W        W31347   9.828   8.286  13.070  0.1267 -0.0028 -0.1139
14501W        W31348   6.883  15.089  12.818 -0.3155  0.0314  0.1302
14502W        W31349  15.824  16.951   1.837  0.1657 -0.3122  0.1274
14503W        W31350  18.485  16.104  13.757  0.0886  0.3208  0.0655
14504W        W31351   2.056   1.581  11.731 -0.0393 -0.0301 -0.1101
14505W        W31352  17.755  17.949   4.923 -0.0365 -0.0525 -0.3033
14506W        W31353   8.534  11.566   0.127  0.2280  0.0508  0.2488
14507W        W31354  11.926  19.210  13.265 -0.0260  0.0353 -0.2090
14508W        W31355  17.727  10.624  14.706 -0.0844 -0.1415  0.1276
14509W        W31356   8.432   8.201   0.633  0.2630 -0.1454 -0.1172
14510W        W31357  17.389   1.389  10.731 -0.0591  0.2862 -0.1482
14511W        W31358  18.558  18.439   0.197  0.0632 -0.2368 -0.0419
14512W        W31359   9.841   7.895   0.827 -0.2222  0.0256 -0.0649
14513W        W31360   4.191   4.194   4.293 -0.2174  0.1623  0.0786
14514W        W31361   0.998  11.811  11.777 -0.0484 -0.1449  0.2408
14515W        W31362   1.264  11.859  12.819 -0.1080 -0.0810 -0.1738
14516W        W31363  17.756   1.840   0.100  0.0145  0.1622  0.2920
14517W        W31364  13.895   0.136   2.862  0.4429 -0.1266  0.0586
14518W        W31365   7.264  11.860   9.421  0.2211  0.0321  0.2886
14519W        W31366   4.802   6.900   2.286 -0.3028  0.1498 -0.0271
14520W        W31367  12.384  12.315  12.527 -0.0542 -0.3296 -0.2715
14521W        W31368  10.128  15.359  10.805 -0.0292  0.2034  0.0683
14522W        W31369  16.083   0.497   3.958 -0.0180 -0.0450  0.0800
14523W        W31370  16.107   3.995   2.284  0.3804  0.3230  0.0986
14524W        W31371  15.154  15.397  14.571 -0.2458 -0.3357 -0.0238
14525W        W31372  17.315   8.223   3.277 -0.4471 -0.1857  0.1903
14526W        W31373   8.058   4.020   1.711 -0.0032 -0.0624  0.0794
14527W        W31374   6.639  16.564   0.806 -0.0519 -0.0623 -0.0118
14528W        W31375  15.025   1.633   5.073 -0.1787 -0.2000  0.1106
14529W        W31376   9.903   6.205   4.321  0.0535 -0.0647 -0.1775
14530W        W31377   8.255  10.043  11.959  0.2819  0.0594 -0.4978
14531W        W31378  19.262  12.295   0.181 -0.0043 -0.3544 -0.0675
14532W        W31379   4.108  16.283  10.762  0.3725  0.2157 -0.0532
14533W        W31380  14.325  17.988  14.989  0.1539  0.0144  0.0538
14534W        W31381  15.961   9.705   0.924  0.1201  0.0165  0.3657
14535W        W31382   6.955  15.500  13.977  0.0561 -0.1562 -0.0943
14536W        W31383  14.256   3.283  14.115  0.0743  0.1649  0.2906
14537W        W31384   0.905   1.520  12.280  0.0065  0.2427  0.1793
14538W        W31385   2.451   2.342  10.956  0.2159 -0.0061  0.0368
14539W        W31386  10.117  14.085   9.841  0.0239 -0.0203 -0.1621
14540W        W31387   6.052  13.114   5.123  0.0475 -0.1945 -0.0334
14541W        W31388  15.957   0.646  12.869  0.0035 -0.1352 -0.1614
14542W        W31389  15.606   0.346   1.134 -0.4139 -0.1534  0.1084
14543W        W31390   7.822   1.088   1.368 -0.1992  0.0301  0.3002
14544W        W31391  14.778  16.733  12.391  0.0287  0.1554 -0.3093
14545W        W31392  16.864   2.231   4.706 -0.1939 -0.0697 -0.2531
14546W        W31393  12.039   6.241  13.833 -0.0498  0.1117  0.0754
14547W        W31394   2.171   3.442   4.232  0.0252 -0.0545 -0.3551
14548W        W31395   6.497   7.584  12.375 -0.0235  0.0113 -0.2733
14549W        W31396   7.204   0.340   0.512  0.1580 -0.1230  0.1622
14550W        W31397  11.869  10.923   2.501  0.2588  0.0426  0.2901
14551W        W31398  13.776  11.008  10.147  0.0295  0.0500 -0.1910
14552W        W31399  11.029   5.235   5.587  0.0517  0.2296  0.0507
14553W        W31400   6.578   1.387  14.928 -0.0745 -0.0565  0.2936
14554W        W31401   9.764  17.106   0.836  0.3153  0.0397 -0.1345
14555W        W31402  16.308  16.976   2.752  0.0677 -0.3162 -0.3224
14556W        W31403  17.726  15.091   1.961  0.0573  0.0138 -0.1591
14557W        W31404   2.538   0.437   1.422 -0.1967 -0.0251 -0.1564
14558W        W31405  11.778  17.108  12.345  0.3778  0.0019  0.1269
14559W        W31406  18.276  16.203   4.792 -0.1057  0.4226  0.0107
14560W        W31407  17.542   2.065   1.887  0.0121 -0.0653 -0.0262
14561W        W31408  10.325  10.256   3.134 -0.0148 -0.1101 -0.2522
14562W        W31409  12.743   2.762   2.491 -0.2520 -0.2497 -0.0851
14563W        W31410  13.057  11.291  10.560 -0.0860 -0.2041  0.1483
14564W        W31411  15.859   9.166  11.340  0.0048  0.0152 -0.2008
14565W        W31412   0.653  12.900   2.631  0.1327 -0.0948  0.2939
14566W        W31413  10.524  15.737  11.999 -0.2738 -0.3553  0.1396
14567W        W31414   3.499  14.481   2.568  0.0525  0.1901  0.0880
14568W        W31415  14.845  14.623  11.750  0.3530 -0.2237 -0.0026
14569W        W31416  15.664   1.688   3.493  0.2263 -0.1712 -0.1775
14570W        W31417  16.331   5.295   1.781  0.3994 -0.0328  0.1813
14571W        W31418   5.321   7.700   1.952  0.1489 -0.4145  0.0371
14572W        W31419  16.642   3.153   3.716 -0.1243 -0.0420 -0.1227
14573W        W31420  15.574   4.058   0.022  0.0734  0.1739  0.1276
14574W        W31421   2.095  10.036  13.534 -0.0339 -0.1779 -0.1902
14575W        W31422  15.179  14.516  13.499  0.4241 -0.1256 -0.1315
14576W        W31423   3.786   5.060  12.966  0.1054  0.0361 -0.0563
14577W        W31424  12.358   6.180  14.220 -0.1574 -0.3496  0.2731
14578W        W31425   1.636  18.941   0.031 -0.3301  0.0542 -0.2053
14579W        W31426  17.315   0.610  14.306  0.2114 -0.1587 -0.1685
14580W        W31427  17.334   4.136  14.470 -0.1210 -0.4045 -0.2645
14581W        W31428   7.289   7.320   3.740 -0.1946  0.0461  0.0911
14582W        W31429   1.470  12.193  12.480  0.1222  0.1398 -0.5157
14583W        W31430   1.500   4.836  13.258  0.2962 -0.3262  0.2302
14584W        W31431   0.754  19.052   5.863  0.2889 -0.1632 -0.1129
14585W        W31432  18.465  15.916   0.921  0.0674  0.1103 -0.0711
14586W        W31433  17.783   7.026  13.017 -0.1922  0.0973  0.0335
14587W        W31434  13.260   9.525   5.053  0.1338 -0.0139  0.0219
14588W        W31435   8.897   6.347   3.011 -0.0486 -0.2760 -0.0632
14589W        W31436   2.102  17.665   3.138 -0.1411  0.1459 -0.1610
14590W        W31437   7.487  18.772   2.174  0.0609 -0.1280 -0.0955
14591W        W31438   5.858   3.614   9.603  0.2120  0.1435  0.1120
14592W        W31439   3.099  10.821  12.919  0.0417 -0.2309 -0.3986
14593W        W31440  10.146   5.317   1.986  0.1035  0.1613  0.2350
14594W        W31441   9.609   9.728   4.570  0.1294 -0.1469 -0.0281
14595W        W31442   9.399   5.044  13.166  0.0026  0.0190 -0.0204
14596W        W31443   1.487  13.343  13.121  0.1522  0.1272 -0.1239
14597W        W31444   8.644  17.561  12.978 -0.0349 -0.1745 -0.0570
14598W        W31445   4.879   7.328   0.479 -0.0374  0.2111 -0.2052
14599W        W31446  16.263  12.628   5.422 -0.0244 -0.1609  0.0048
14600W        W31447  13.478   8.737   0.595  0.1048 -0.0883  0.0187
14601W        W31448  18.804  12.350  14.095 -0.0295 -0.1881 -0.0219
14602W        W31449  18.757  13.430  14.298 -0.0034  0.1916 -0.1129
14603W        W31450   4.641  10.636  10.825 -0.1081 -0.2064  0.5580
14604W        W31451  11.073   5.237  14.664 -0.0948 -0.0681 -0.0887
14605W        W31452  10.758   1.864  14.598  0.0583 -0.2117 -0.0454
14606W        W31453  17.096   1.604   0.876 -0.0277 -0.0253  0.1951
14607W        W31454  12.932   2.230   3.365 -0.0908  0.0014  0.2603
14608W        W31455  17.922   7.616  13.445 -0.2232 -0.1006 -0.0785
14609W        W31456   3.254   3.773   0.540 -0.0279  0.2501  0.0365
14610W        W31457  10.330  14.754  15.004 -0.2606 -0.0313 -0.1158
14611W        W31458  11.553  10.618   4.163 -0.1259  0.1166 -0.3272
14612W        W31459  18.899  16.980  13.950  0.1399 -0.2076  0.1300
14613W        W31460   9.517  16.121   2.755 -0.0561  0.1057  0.0338
14614W        W31461  12.825  14.972  13.743 -0.1913 -0.4309  0.1234
14615W        W31462   5.328   8.414   0.241  0.0585  0.0556  0.2422
14616W        W31463   6.395  10.415   4.471  0.1964  0.4347 -0.0308
14617W        W31464  17.061   8.560  14.703  0.0493 -0.0832 -0.1636
14618W        W31465   1.040   6.395   3.116  0.3436  0.1332 -0.0548
14619W        W31466   1.990   5.215  13.513 -0.1185  0.3053  0.1509
14620W        W31467   2.302   2.725   5.627 -0.1629 -0.2985 -0.1487
14621W        W31468   5.254   1.530   4.949  0.0761 -0.1048 -0.1322
14622W        W31469   9.790   7.758  12.289 -0.0562 -0.3906  0.1909
14623W        W31470  14.693   0.411   5.784 -0.0784  0.1578 -0.1670
14624W        W31471   9.510   0.846   1.864  0.0276  0.1473 -0.2302
14625W        W31472  18.363  16.358  12.677  0.0058 -0.0510  0.0833
14626W        W31473   5.901  13.301   4.575 -0.0103 -0.2318 -0.1413
14627W        W31474   8.044   6.365   3.557 -0.2047  0.2611 -0.2059
14628W        W31475  17.159   6.615  14.904  0.1514 -0.0072 -0.0063
14629W        W31476  10.669  12.046  14.817 -0.0670 -0.0671  0.1333
14630W        W31477   2.939  10.585  10.979 -0.3273 -0.1384  0.1170
14631W        W31478  17.615  14.841   4.098  0.1064  0.2037 -0.2024
14632W        W31479  12.965  17.036   0.832  0.4065 -0.0565 -0.0003
14633W        W31480  15.361   7.270  13.212 -0.1295 -0.0984  0.0875
14634W        W31481   6.797   5.721   1.304  0.1140 -0.1628 -0.0449
14635W        W31482   5.278   7.065   0.436  0.0877  0.1966 -0.2396
14636W        W31483   1.349   9.251  13.442 -0.0708  0.2032 -0.1743
14637W        W31484   3.856   3.419   1.361  0.1543  0.0187  0.0410
14638W        W31485   5.860  18.517   9.402 -0.0849  0.2776 -0.1691
14639W        W31486   3.817   9.887  11.889  0.3867 -0.0276  0.2872
14640W        W31487   1.661  18.889   0.697 -0.0096 -0.3813  0.0305
14641W        W31488   4.193  18.645  11.145  0.0417  0.1643 -0.0408
14642W        W31489   2.819   5.279  14.389  0.0839  0.1212  0.2280
14643W        W31490   6.641  10.793  11.837 -0.1307  0.1334  0.2600
14644W        W31491   9.436   7.798  10.539 -0.0139 -0.2311  0.0861
14645W        W31492  10.513   5.012  14.144  0.1549 -0.1234  0.1130
14646W        W31493   6.877   6.369   0.773  0.1218 -0.1046 -0.2180
14647W        W31494   7.968   6.444  11.183  0.2884  0.0539 -0.0569
14648W        W31495   2.371   8.257   9.336  0.2220  0.0183 -0.3228
14649W        W31496  10.232  15.145   4.687 -0.1085 -0.2135 -0.0392
14650W        W31497  14.852   5.294   2.874  0.0183  0.0991  0.1416
14651W        W31498  14.041   1.919  13.915  0.1685  0.1907 -0.1385
14652W        W31499   8.958  14.813  10.757  0.1024 -0.3279  0.2434
14653W        W31500   5.913  15.246   3.138  0.2935 -0.0642  0.2032
14654W        W31501   2.918  10.129  10.743  0.2085  0.0019 -0.0535
14655W        W31502  18.277   2.523   3.167  0.3060 -0.1135 -0.2696
14656W        W31503  11.070   1.757   4.138  0.1943  0.1879  0.0406
14657W        W31504   6.992  14.410  12.621  0.0288 -0.3304  0.4691
14658W        W31505   5.225  10.397   3.179 -0.0498  0.0007  0.0612
14659W        W31506  17.690   9.900  11.474 -0.0394 -0.0990 -0.0195
14660W        W31507   7.634   3.881   4.858 -0.1334  0.0339 -0.2311
14661W        W31508   3.686  13.220   2.481  0.0747 -0.2470 -0.3299
14662W        W31509  10.985  14.349  10.945 -0.2457 -0.1534 -0.2179
14663W        W31510   2.230  12.994   4.152  0.0555  0.1171 -0.1861
14664W        W31511  13.041  15.379   3.143 -0.3199  0.2231  0.0352
14665W        W31512   6.843   7.701   1.963  0.2459  0.1320  0.1134
14666W        W31513   9.237   9.858  14.669 -0.0949 -0.0262  0.2074
14667W        W31514  11.046   5.982   3.950  0.1243 -0.0497 -0.0502
14668W        W31515  12.445  15.655  13.180 -0.0077  0.1382 -0.1199
14669W        W31516   3.156   4.934  14.496 -0.0993  0.0259  0.1747
14670W        W31517  19.095   3.895   3.128  0.1627 -0.0612  0.2371
14671W        W31518  13.773   9.355  13.504 -0.1008  0.2889 -0.2432
14672W        W31519   9.314   1.932   4.068  0.1721  0.1850  0.1262
14673W        W31520   5.290   8.059  14.921 -0.2819 -0.0483 -0.3307
14674W        W31521  16.567   3.614  12.917  0.0764 -0.1397 -0.0315
14675W        W31522  14.174  11.698   1.075  0.1232 -0.0971  0.0925
14676W        W31523  10.082   1.095   3.571  0.1838  0.2067  0.0036
14677W        W31524   9.736  10.790   3.272  0.4615  0.0949  0.2942
14678W        W31525   0.672  10.432   4.066  0.1084  0.1545  0.0312
14679W        W31526   0.506  13.151  11.745 -0.1356  0.0208  0.0311
14680W        W31527  12.889  18.246   4.113 -0.2115 -0.1225 -0.0536
14681W        W31528   1.884  12.074  12.164 -0.0759  0.0001 -0.0976
14682W        W31529  10.234   9.290  14.601  0.0898  0.1483 -0.0020
14683W        W31530  14.081  16.815   2.875 -0.0819  0.0773  0.3533
14684W        W31531   6.585   2.987   4.354 -0.1456  0.0037 -0.1032
14685W        W31532   0.637   7.218   3.085 -0.0768 -0.2590 -0.1057
14686W        W31533   8.272  16.603   0.200 -0.0085  0.0053 -0.3153
14687W        W31534   6.755  15.067   1.336  0.2768  0.2515  0.0819
14688W        W31535   4.940  12.023  14.855  0.1912 -0.0512 -0.2185
14689W        W31536   1.422   8.601   9.375 -0.1421  0.0856 -0.1248
14690W        W31537   1.639  17.536  12.107  0.1418  0.3558  0.3511
14691W        W31538   8.210  17.243  14.484 -0.1238  0.1260  0.0149
14692W        W31539  15.440   0.363  14.315 -0.2366  0.3289 -0.2594
14693W        W31540   6.167   4.401  14.362 -0.1514  0.1862 -0.4638
14694W        W31541  17.556  11.517   0.283  0.2139  0.1692  0.2091
14695W        W31542  16.843  10.742   4.585 -0.2965  0.0253  0.4044
14696W        W31543  12.236  19.020  12.163 -0.0100  0.2570  0.0804
14697W        W31544   2.244  12.457   3.461  0.0988  0.3763  0.0820
14698W        W31545   3.091   5.676  11.486  0.2957  0.1854  0.0104
14699W        W31546  11.772   5.774   4.117  0.2844 -0.0833 -0.1675
14700W        W31547   1.201   0.859   0.071  0.1242  0.1600  0.0706
14701W        W31548   4.729  14.214   3.898  0.2256  0.0598  0.2326
14702W        W31549  10.984  15.454   2.829 -0.0783 -0.0178  0.0560
14703W        W31550   9.222   2.477   0.485  0.1937 -0.0329  0.1952
14704W        W31551  18.622   4.397  14.905  0.1952 -0.0762  0.4905
14705W        W31552  12.871   7.335  11.387 -0.3047 -0.0733 -0.0823
14706W        W31553   1.300   8.256  10.447  0.1677  0.0259 -0.4647
14707W        W31554   1.436  11.873   3.383  0.0838  0.3113 -0.1835
14708W        W31555  19.261   7.893  11.084  0.2820  0.2404  0.0032
14709W        W31556  13.855  10.628  13.205 -0.1969 -0.0830 -0.3684
14710W        W31557   5.556  10.348   0.048 -0.1225  0.0668  0.1972
14711W        W31558   7.154  12.974  10.508  0.1637  0.0106 -0.2332
14712W        W31559   2.403  17.299  11.997  0.0417 -0.0518  0.0314
14713W        W31560   8.490  19.139   1.066  0.1925  0.3997  0.3784
14714W        W31561   9.034   6.532  14.254  0.0768 -0.0520  0.0212
14715W        W31562  13.433  10.829  11.136  0.1540  0.1367 -0.3708
14716W        W31563   2.846   1.317  11.676  0.2369 -0.4354 -0.1210
14717W        W31564   9.018  13.429   2.909 -0.2339 -0.0349  0.1934
14718W        W31565  10.487   7.984  13.357 -0.2640  0.0664 -0.0424
14719W        W31566  17.900   8.935   3.457 -0.0441 -0.1001 -0.0617
14720W        W31567   4.261  14.604  13.370 -0.0246 -0.0795  0.1919
14721W        W31568  17.211   5.701   3.341 -0.1180 -0.0050 -0.1445
14722W        W31569   2.278   7.472   3.063 -0.0666  0.1078  0.0160
14723W        W31570   3.820   9.683  14.549  0.1823 -0.0764  0.1476
14724W        W31571  13.364  13.698  11.110  0.0408 -0.1304  0.0696
14725W        W31572   7.968   7.834   3.312  0.1240 -0.2111 -0.0355
14726W        W31573  18.170  18.348  12.971  0.1520 -0.0270 -0.0602
14727W        W31574  11.548  16.137  14.126  0.2824 -0.0840  0.2471
14728W        W31575  18.101  15.338  13.389 -0.5483 -0.2372 -0.3648
14729W        W31576   2.697   1.987  12.212 -0.3207 -0.1016  0.0596
14730W        W31577  15.973   0.100   1.550 -0.1484 -0.0175 -0.0005
14731W        W31578  10.544  15.753  13.035  0.2088 -0.1378 -0.0356
14732W        W31579   7.059   2.118  12.475  0.1904 -0.5746 -0.0419
14733W        W31580  12.644   7.566  13.637  0.0977 -0.1026  0.1992
14734W        W31581  15.973  10.867  14.533  0.1351 -0.1943 -0.1245
14735W        W31582  15.968   1.560   5.521 -0.3485  0.1477  0.0943
14736W        W31583   7.018   4.059   4.708 -0.0705  0.2590  0.0652
14737W        W31584  11.392   7.975  12.344  0.2970 -0.0792  0.0117
14738W        W31585   9.231  18.058  14.834 -0.0361  0.0835 -0.1337
14739W        W31586  10.189   8.674  14.636 -0.2145  0.2513  0.0929
14740W        W31587   5.619   1.135  13.990 -0.0226  0.1210 -0.3147
14741W        W31588  12.416  10.329  11.334 -0.2578 -0.0863 -0.1466
14742W        W31589  10.202   7.984   3.245  0.2648 -0.1161 -0.0401
14743W        W31590  15.218  18.305  11.907 -0.0653  0.4407 -0.0753
14744W        W31591  10.201   0.926  11.626 -0.0598 -0.1869 -0.0190
14745W        W31592  18.910  18.886  11.920  0.2755  0.1030 -0.1217
14746W        W31593   2.481   3.052   4.346  0.2440  0.0211  0.1508
14747W        W31594  16.593  13.750  12.324  0.0130  0.0414  0.2021
14748W        W31595  14.947  14.080  13.229  0.0789  0.0586 -0.0319
14749W        W31596  12.164   4.966  12.214  0.2185 -0.2626  0.0839
14750W        W31597   7.283  11.240  12.069  0.1523  0.0695 -0.2590
14751W        W31598   4.202  17.677   2.865  0.2545  0.2956  0.2435
14752W        W31599   2.073  15.208  14.485 -0.3851  0.0644  0.0126
14753W        W31600  15.394   9.993  14.682 -0.1873 -0.1338 -0.0968
14754W        W31601   3.181  15.191   6.139  0.2235 -0.3527  0.1422
14755W        W31602   1.788   9.344   3.773  0.0518 -0.1138  0.0793
14756W        W31603  17.886  18.181   2.978  0.0915 -0.0947 -0.2454
14757W        W31604   0.642   6.944   4.704 -0.1183 -0.0481  0.2701
14758W        W31605   1.503  14.341  14.707 -0.2685  0.3007  0.0943
14759W        W31606   6.638  18.491  13.126 -0.0433 -0.0885 -0.1593
14760W        W31607  17.687  14.149  11.060  0.2675 -0.2498 -0.0659
14761W        W31608  12.364  18.335   1.344  0.2879 -0.1041  0.0306
14762W        W31609   0.011   1.835   0.672 -0.1271  0.1347  0.0576
14763W        W31610  14.401  18.300   2.568  0.1326 -0.2243 -0.0238
14764W        W31611  18.383  13.244   0.102 -0.2996 -0.0621  0.2348
14765W        W31612  13.463  15.914   0.111  0.3661 -0.0249  0.0700
14766W        W31613   6.731   4.250   1.807 -0.1596  0.0547  0.1540
14767W        W31614  12.087  16.729  14.199 -0.3047  0.0307  0.1899
14768W        W31615   4.458   0.375  11.422  0.2068 -0.2898 -0.0866
14769W        W31616  16.296   4.726  10.365 -0.3682  0.0239  0.0953
14770W        W31617   4.304  12.387   1.376  0.4076 -0.2263 -0.1306
14771W        W31618  15.342   4.272  12.257 -0.1965  0.1947  0.1414
14772W        W31619  14.052   4.954  12.685  0.2974 -0.1164 -0.2508
14773W        W31620   1.406  17.257  12.570 -0.0326  0.2807  0.0735
14774W        W31621   4.443   9.273   0.823 -0.1506  0.1834 -0.3161
14775W        W31622  14.221   5.349  11.154  0.3127 -0.2174 -0.4141
14776W        W31623  13.993  15.936   4.031  0.0860  0.0331  0.1541
14777W        W31624   3.517  11.731   0.402 -0.0248  0.2828  0.1471
14778W        W31625  15.019   2.859  11.816  0.2456  0.0194  0.2728
14779W        W31626  17.811   8.825   2.908  0.2355  0.0164  0.4188
14780W        W31627   8.969  14.935   0.935 -0.2576 -0.3561 -0.2886
14781W        W31628  12.032   5.419   3.827  0.3258 -0.0843 -0.1842
14782W        W31629  18.384  16.881   5.392 -0.3761  0.1593  0.0978
14783W        W31630   1.272   0.224  14.125  0.0132  0.1302  0.0554
14784W        W31631   0.798   6.288   0.436 -0.0041 -0.1751 -0.4045
14785W        W31632   6.894   4.617  11.580 -0.4652  0.4107 -0.1384
14786W        W31633   3.235  11.226   1.052  0.2668 -0.5114  0.0140
14787W        W31634  18.101  14.927  10.631 -0.3218  0.0110  0.1312
14788W        W31635  13.783  10.602  10.777 -0.2789  0.4064 -0.0603
14789W        W31636   3.808   2.412   1.102  0.0281  0.0954  0.0424
14790W        W31637   4.120   1.397  14.206 -0.0351  0.3114  0.2937
14791W        W31638  12.492  12.230   4.253  0.2059 -0.0240 -0.0380
14792W        W31639  16.532   0.419   0.021  0.2609  0.5725 -0.1529
14793W        W31640  10.479  17.103  12.903  0.0791 -0.2533 -0.0334
14794W        W31641  18.971  12.467  11.406 -0.0647 -0.1221 -0.0140
14795W        W31642   9.268   4.168  12.865 -0.0695 -0.1256  0.2121
14796W        W31643   7.812   2.523   2.108  0.1527 -0.3102 -0.0308
14797W        W31644   3.830  13.864  13.640  0.0344 -0.0388  0.1574
14798W        W31645  11.827   1.844  13.232 -0.1067  0.3275  0.0360
14799W        W31646   9.975   2.815   2.982  0.1414  0.1404  0.1724
14800W        W31647   1.804  16.285   2.668 -0.3093  0.1845 -0.1341
14801W        W31648   2.394  12.076  12.350 -0.0498 -0.4441  0.2513
14802W        W31649  14.916   3.436  13.519 -0.1824 -0.4566 -0.2967
14803W        W31650  13.009   1.370   4.355  0.2181  0.0445  0.1611
14804W        W31651  11.291  13.698  14.843  0.0596 -0.2348  0.0912
14805W        W31652  15.594   9.453  14.685  0.1330 -0.0346  0.2073
14806W        W31653  18.961   6.679  13.260 -0.0372  0.1262  0.0554
14807W        W31654  13.415  16.716   5.935 -0.2210 -0.1862 -0.3103
14808W        W31655  15.222  15.255   4.631  0.0177  0.0307  0.0133
14809W        W31656  17.792   1.569  12.992 -0.0005 -0.1143 -0.2042
14810W        W31657  12.979   1.801  10.741  0.1232  0.1118  0.2577
14811W        W31658  15.911   0.371  11.804  0.0994  0.1483  0.1366
14812W        W31659   7.718  13.602  12.234  0.2266  0.0676  0.2153
14813W        W31660  17.859   4.975   2.652 -0.1813 -0.0786 -0.1022
14814W        W31661  16.547   4.501  12.753 -0.2754  0.1513 -0.1904
14815W        W31662  13.441   0.923  10.280  0.2626  0.1201  0.1283
14816W        W31663   8.420  11.967  11.627 -0.0140  0.2517  0.0964
14817W        W31664   0.061   4.168  12.932  0.0175  0.0632 -0.2219
14818W        W31665  13.929   3.344  14.485  0.3626 -0.1987 -0.1202
14819W        W31666  16.946  13.185  10.919  0.0700 -0.2694 -0.0485
14820W        W31667  11.108   0.680   4.264 -0.1141 -0.0252 -0.1135
14821W        W31668   5.578  18.855  15.013  0.0849  0.0600  0.0975
14822W        W31669  12.508  10.836  11.161 -0.0763  0.2025  0.2338
14823W        W31670  18.901   9.280  14.572 -0.0043  0.1779 -0.3093
14824W        W31671   6.067   2.258  12.625  0.0332 -0.0131 -0.1399
14825W        W31672   6.797  13.922   3.658  0.1471 -0.0191 -0.0054
14826W        W31673  16.895   0.358  11.515  0.0008 -0.2014 -0.1297
14827W        W31674  17.527   5.084  12.165 -0.3883 -0.1081 -0.1774
14828W        W31675  13.891   3.063  11.888 -0.1833 -0.1362  0.3080
14829W        W31676   4.312  11.909   3.844  0.0028 -0.0259  0.0148
14830W        W31677   7.198   6.712  12.200 -0.1299 -0.1100  0.1947
14831W        W31678   1.317   5.401  14.679 -0.1492  0.4435 -0.0846
14832W        W31679   4.582  10.895   5.517 -0.3177 -0.2140  0.0528
14833W        W31680   0.712  14.280  11.921 -0.2526 -0.1592 -0.0159
14834W        W31681   9.982   2.419  12.334 -0.0556 -0.0511  0.1662
14835W        W31682  11.813  10.356   4.536 -0.4024  0.0838  0.1174
14836W        W31683  16.371  12.479   4.968 -0.3568  0.3383 -0.0615
14837W        W31684  16.581  16.899   0.739  0.2135 -0.3198  0.1902
14838W        W31685   5.446  15.988   5.188  0.0151 -0.0169  0.2115
14839W        W31686  16.030   2.687   1.206  0.0863  0.1242 -0.2657
14840W        W31687  13.825   8.332   3.126 -0.2619 -0.1862  0.0121
14841W        W31688  16.763   8.872  14.055  0.0411 -0.0444 -0.3043
14842W        W31689   6.637  13.293   3.876 -0.0520 -0.0314 -0.3430
14843W        W31690  18.966  10.327   4.892  0.4627 -0.5292  0.0744
14844W        W31691  13.593  14.670   5.539 -0.1908 -0.4309 -0.2528
14845W        W31692   1.485  17.946  14.070 -0.0073 -0.0732 -0.1157
14846W        W31693  10.593  12.570   4.498  0.0975  0.0078  0.3386
14847W        W31694   6.911  14.951   4.604  0.0256  0.0040  0.2361
14848W        W31695  12.302  11.984  12.159  0.1681  0.1979  0.0698
14849W        W31696  15.706   4.413   0.982 -0.0737 -0.0563 -0.2429
14850W        W31697   0.621   4.773  13.142 -0.0180  0.2473 -0.3192
14851W        W31698   6.715  15.993   2.895  0.3253 -0.1859 -0.1706
14852W        W31699   5.926   4.483   1.281  0.2499  0.0879  0.1173
14853W        W31700  12.856  13.427   1.405  0.0995  0.1291 -0.0905
14854W        W31701   5.196  19.268  11.747  0.1916 -0.1681 -0.1558
14855W        W31702   9.697   0.732   3.541 -0.3553  0.3361 -0.1302
14856W        W31703   7.280  17.501   3.277  0.2380  0.0426  0.1432
14857W        W31704   6.601  13.691  12.432  0.2543  0.0839  0.0264
14858W        W31705  16.497   8.024  11.760  0.1030  0.0275  0.0262
14859W        W31706  14.297  11.855  11.180 -0.0751 -0.1386 -0.1216
14860W        W31707   3.275   3.101   9.804  0.2472 -0.2179 -0.1633
14861W        W31708   9.980   6.419  14.136  0.0795 -0.1156 -0.1436
14862W        W31709   3.601   8.206   0.015  0.2594  0.1401 -0.0312
14863W        W31710   7.524  17.589   4.801 -0.1627  0.0436 -0.2109
14864W        W31711   5.877   3.514   0.193 -0.1380  0.1311 -0.1105
14865W        W31712  12.732   2.324  13.977  0.0813  0.0440  0.1092
14866W        W31713  17.538   8.104  12.654 -0.0082  0.1372  0.1231
14867W        W31714   5.953   9.029  10.017 -0.1224 -0.0896  0.1532
14868W        W31715   7.463   9.802   0.142 -0.1592 -0.2156 -0.2168
14869W        W31716  13.971  12.602   0.687 -0.1698  0.1180 -0.3310
14870W        W31717  10.689  18.258   0.822 -0.0171  0.0238  0.0214
14871W        W31718   6.067   8.037   2.497  0.0670 -0.0259  0.0950
14872W        W31719  12.020   0.303   5.001 -0.1573 -0.3419 -0.2321
14873W        W31720   4.838  16.169  11.330  0.1864  0.1256  0.1059
14874W        W31721   4.889   4.254  11.368  0.0391 -0.0393  0.2672
14875W        W31722  18.138   6.942  11.609 -0.1561 -0.0915  0.2887
14876W        W31723   7.109  16.729  14.431  0.5437 -0.0608  0.4741
14877W        W31724   0.949  18.710   2.182 -0.0468 -0.2186  0.2737
14878W        W31725   0.142   2.476  11.725  0.2800  0.2322 -0.0141
14879W        W31726   1.522  15.616  13.495  0.1084 -0.0958  0.1883
14880W        W31727  12.105   8.446   2.806 -0.0786  0.2746 -0.1074
14881W        W31728   1.051   6.631  10.250  0.1251  0.0319  0.2588
14882W        W31729   7.807   0.806   4.265  0.1221  0.0356 -0.1362
14883W        W31730  14.345  14.500  11.177 -0.0341  0.1343 -0.2260
14884W        W31731   4.503   8.117   1.694 -0.2317 -0.0088 -0.0964
14885W        W31732  17.484  10.243   3.643 -0.1368 -0.2434  0.0253
14886W        W31733   9.166   2.611   2.135  0.1106 -0.2605 -0.0320
14887W        W31734   7.368   8.746   2.100 -0.2520  0.1314  0.1353
14888W        W31735   0.765  15.469  12.965 -0.0996 -0.0845  0.1902
14889W        W31736   9.866   2.569   4.722  0.1616 -0.0313 -0.4616
14890W        W31737  18.148  11.700  12.308  0.1042 -0.1905 -0.5755
14891W        W31738   5.210   0.627  10.732 -0.2577  0.0690 -0.0642
14892W        W31739   8.633   7.319  11.176  0.2196  0.0956 -0.1070
14893W        W31740   8.195   9.000   1.109 -0.0115  0.2453  0.3019
14894W        W31741  17.159   1.723   3.404 -0.0439  0.1175 -0.1947
14895W        W31742  16.242  12.304   0.583  0.2585  0.0595  0.1472
14896W        W31743   7.484  16.183  11.651 -0.3512  0.0928  0.1649
14897W        W31744   5.075  16.874   0.383 -0.0959 -0.2801  0.2949
14898W        W31745  18.231  17.634  12.982 -0.1107  0.0968  0.4696
14899W        W31746  17.858   3.234  11.573 -0.2914 -0.1302  0.0804
14900W        W31747   9.574   8.466  12.680 -0.2512 -0.0687  0.2215
14901W        W31748   4.859  18.584  12.657  0.0269  0.4181 -0.0736
14902W        W31749   4.796   4.118   9.856 -0.1210 -0.2806 -0.2318
14903W        W31750  13.557   1.294   1.623 -0.2616 -0.2294 -0.0668
14904W        W31751   3.769   0.396   5.198  0.2444 -0.3097  0.1572
14905W        W31752  19.211  14.780  11.528 -0.0578 -0.0013  0.1788
14906W        W31753  17.806   2.641   0.387  0.2260  0.0768 -0.2438
14907W        W31754   6.455   3.560   2.235 -0.0110 -0.1363  0.0314
14908W        W31755  14.679   4.786   5.557 -0.0159  0.3683 -0.1899
14909W        W31756  18.334   7.642  12.453  0.1607  0.2670  0.1006
14910W        W31757  18.584   1.313  11.964  0.3938  0.0664 -0.0742
14911W        W31758   9.936  13.414   2.557  0.0665  0.4416  0.1033
14912W        W31759  17.056  18.339  13.326 -0.1930 -0.0877  0.1336
14913W        W31760  13.927   1.145   2.031 -0.0111  0.1586 -0.1071
14914W        W31761  11.880  18.374   1.586  0.1369 -0.0351 -0.0539
14915W        W31762   5.586  13.869   1.015  0.2319  0.0025  0.0927
14916W        W31763   0.035  15.212  10.565 -0.3856 -0.0979 -0.0644
14917W        W31764  16.170   5.587   0.111  0.1914  0.1356  0.0580
14918W        W31765   9.737   8.576  14.555 -0.0739  0.1813 -0.1058
14919W        W31766  10.798   4.029  12.489  0.2945 -0.2364 -0.3046
14920W        W31767   8.683   6.144   1.388 -0.1235 -0.3107 -0.0787
14921W        W31768   1.475  18.444   4.486  0.1575 -0.0024  0.0939
14922W        W31769   5.667   3.164   2.529 -0.5478 -0.1705  0.2727
14923W        W31770   9.944   0.138  12.052 -0.1649 -0.1557  0.0566
14924W        W31771  10.293  14.640  11.380  0.2102 -0.3465  0.0128
14925W        W31772  13.795  16.373   6.011 -0.1908  0.2271 -0.3099
14926W        W31773   6.324   8.492  12.849 -0.3302  0.1327 -0.3263
14927W        W31774  13.948   2.716   2.402 -0.3591 -0.0810  0.3243
14928W        W31775  18.325  18.816   4.792 -0.0952 -0.0366 -0.3589
14929W        W31776   7.600   4.577   2.779 -0.3496  0.3524  0.2216
14930W        W31777   4.104   7.418  12.901 -0.3043  0.0414 -0.0298
14931W        W31778   3.258   2.744  11.910  0.3141  0.1697  0.1278
14932W        W31779   3.452  11.547  14.951 -0.0646  0.1635  0.0346
14933W        W31780  14.353   9.271  14.146  0.0966 -0.0901 -0.0507
14934W        W31781  16.473   6.473   1.974 -0.0212 -0.1317 -0.1230
14935W        W31782  15.313   4.799   0.799 -0.3104 -0.2975  0.6330
14936W        W31783  10.669  14.200   1.252  0.1118 -0.0879 -0.2075
14937W        W31784  10.415  16.076  11.291  0.0376  0.1237 -0.1633
14938W        W31785   9.665   4.834   1.417 -0.0815  0.1896 -0.2262
14939W        W31786   2.926  11.388   2.560  0.1472 -0.0159 -0.0903
14940W        W31787  14.902   4.467  11.684 -0.0002  0.1109  0.0836
14941W        W31788  16.356  15.224  13.365  0.0728  0.0897 -0.0621
14942W        W31789   0.830   7.104   3.814 -0.2276 -0.0401  0.1176
14943W        W31790   0.933  12.902   0.175  0.3755  0.2230  0.2429
14944W        W31791   2.703  16.337  11.072  0.0254 -0.1618  0.2751
14945W        W31792  18.871   8.314  10.954  0.0672 -0.1222 -0.3499
14946W        W31793   2.484   2.908   0.990  0.1019 -0.1931 -0.0179
14947W        W31794   8.807   5.332   0.008 -0.4526  0.1379  0.4388
14948W        W31795   7.233   1.069  13.170 -0.0886  0.1245  0.0075
14949W        W31796   3.035   0.961   2.990 -0.0190  0.2775 -0.1955
14950W        W31797   3.113  19.001  12.583  0.3398 -0.2627 -0.2818
14951W        W31798   8.436   4.010   4.271  0.0222  0.0653  0.0710
14952W        W31799   7.551   1.423   3.602  0.0281 -0.0277  0.1356
14953W        W31800  15.015   4.631  14.293  0.1100  0.2483 -0.0763
14954W        W31801   7.088   4.296  14.708  0.2413  0.1061  0.2225
14955W        W31802   7.273   7.469   2.461 -0.0842 -0.2257  0.3412
14956W        W31803   1.195   2.626  13.359  0.2300  0.0590 -0.0608
14957W        W31804   1.195   7.994  13.433  0.1443 -0.0321  0.0441
14958W        W31805  17.000   3.333   1.181  0.0514  0.0289  0.2872
14959W        W31806   7.204   2.304   3.288 -0.0384 -0.2195  0.0752
14960W        W31807  10.560   1.834   3.345  0.2131  0.0478  0.1903
14961W        W31808   2.643  15.798  14.365  0.0497 -0.2204  0.1554
14962W        W31809  10.521  17.748   3.880  0.3758 -0.0171  0.2233
14963W        W31810   7.469   7.430  14.274  0.2586  0.0813 -0.0787
14964W        W31811   4.479   1.494  13.881 -0.2019 -0.0921  0.2036
14965W        W31812  13.049  10.242   1.177 -0.1416 -0.4044  0.2261
14966W        W31813  14.775   2.004   4.072 -0.2364  0.2491  0.0075
14967W        W31814  13.811   0.145   3.427  0.1463 -0.1127  0.0324
14968W        W31815   1.264   4.368   1.625  0.2144  0.1152 -0.3308
14969W        W31816   7.993   6.363   1.328  0.3121  0.1827  0.0457
14970W        W31817  10.340   3.225   2.956 -0.1277  0.3674  0.6890
14971W        W31818   9.589  16.846  14.271 -0.3661 -0.0259  0.1243
14972W        W31819   1.428   0.076  13.670  0.1059  0.2286  0.1692
14973W        W31820  14.609   8.795  14.318  0.2812 -0.1858  0.4516
14974W        W31821  15.290   9.146  14.204  0.2604  0.1003 -0.1604
14975W        W31822  10.769  11.015   0.465  0.2601  0.0881  0.0852
14976W        W31823  10.717  14.437   1.690 -0.2752  0.3618  0.1132
14977W        W31824  13.798   2.061   0.353 -0.0899 -0.0494 -0.0548
14978W        W31825   1.267   4.653  10.236 -0.2876  0.0221 -0.4152
14979W        W31826   3.064  10.113  12.254 -0.0444  0.0577 -0.3125
14980W        W31827   2.478   5.728   1.609  0.1052  0.2158  0.0281
14981W        W31828  12.160  10.391  10.857 -0.0908  0.0222  0.1830
14982W        W31829  15.592   4.030   2.448 -0.0160 -0.0666 -0.1770
14983W        W31830  14.932  17.963   3.416  0.1074 -0.0717  0.1988
14984W        W31831  16.284   4.899  14.243  0.0170 -0.1690  0.4560
14985W        W31832  10.325   4.029   3.544  0.1885 -0.2680  0.0459
14986W        W31833   0.748  12.055   1.865 -0.3850  0.0967  0.0028
14987W        W31834   1.960   3.403  11.888 -0.2267 -0.0109 -0.1421
14988W        W31835   2.055   6.056   0.008 -0.0761  0.4952  0.0769
14989W        W31836   7.676   9.014   4.864  0.0568 -0.2529 -0.1280
14990W        W31837   4.028   2.290   0.006  0.2640 -0.0171  0.1808
14991W        W31838   5.035  16.787  10.161  0.2981  0.0586 -0.2829
14992W        W31839   3.355  16.281   5.499  0.0646  0.0240  0.2726
14993W        W31840   3.446   7.185   4.238 -0.0683  0.2177 -0.0300
14994W        W31841   3.250  19.052  14.786  0.1980 -0.1659  0.2452
14995W        W31842  13.433   2.119  13.031 -0.1686 -0.0290  0.0093
14996W        W31843  10.840   3.339   3.865 -0.4111  0.0156 -0.0722
14997W        W31844  18.977  17.538   4.695 -0.1106  0.0507 -0.0097
14998W        W31845   4.764  17.217   3.641  0.0411  0.0207 -0.1456
14999W        W31846   2.956   2.357   4.235  0.1002 -0.1311  0.1199
15000W        W31847   6.087   1.769  13.429  0.1801  0.3494  0.3651
15001W        W31848   0.621   1.907  14.517 -0.1420 -0.0853  0.1301
15002W        W31849  15.670   0.368   2.638  0.0214 -0.0312 -0.1604
15003W        W31850  12.795   5.395  11.760  0.1983  0.1223 -0.1025
15004W        W31851  12.566  12.952   0.210  0.0350  0.1232  0.1551
15005W        W31852  18.297   8.473  12.729  0.0263 -0.1492  0.1154
15006W        W31853   3.440   7.612   5.072  0.0344  0.0685  0.0572
15007W        W31854   7.290   3.211   2.525 -0.1097 -0.0519  0.0186
15008W        W31855  12.893  10.381  13.287 -0.0847 -0.5371 -0.1755
15009W        W31856   7.015   6.417   2.543 -0.1729  0.3492  0.0466
15010W        W31857   6.831   9.960  11.223  0.2776 -0.0371 -0.2151
15011W        W31858   2.794   8.403  10.709  0.0651 -0.0460 -0.1048
15012W        W31859  12.370  10.338  11.874 -0.0279 -0.2955 -0.2790
15013W        W31860  10.480   2.269  11.427 -0.1454 -0.2726  0.2247
15014W        W31861   0.639  12.065   2.683  0.0591  0.0162  0.0082
15015W        W31862  14.913   8.004   4.550 -0.4304 -0.1860 -0.4339
15016W        W31863  15.076  16.743  13.514 -0.2419 -0.2455  0.3145
15017W        W31864   2.893  12.988   1.613  0.2160 -0.1356 -0.3164
15018W        W31865  14.269  18.277  13.576  0.1291  0.2424  0.1088
15019W        W31866  17.107  17.489  10.523 -0.2760 -0.1640  0.0467
15020W        W31867  11.520   0.531   0.013 -0.2673  0.1554 -0.1800
15021W        W31868   9.882  18.322  14.385 -0.1691 -0.1855 -0.2174
15022W        W31869  13.488  16.459  13.105 -0.0273  0.2202  0.2164
15023W        W31870  12.511  17.783  14.657  0.1503 -0.0417  0.0944
15024W        W31871   0.839  18.622   1.645 -0.3011  0.0727 -0.0044
15025W        W31872   6.732   7.914   0.659  0.2069  0.0371  0.1282
15026W        W31873   2.599  12.556   1.619  0.1464  0.0220  0.0360
15027W        W31874   3.293   5.710  12.313  0.0149 -0.2146  0.1488
15028W        W31875  16.459  12.728   2.934  0.3613 -0.0426 -0.1851
15029W        W31876  10.142   2.814  13.731 -0.0981  0.2542 -0.1540
15030W        W31877  16.524   1.464   2.188 -0.2480  0.1360 -0.1152
15031W        W31878  10.312   9.534   0.109  0.2313  0.0438  0.1989
15032W        W31879  14.109   8.360   4.934 -0.0155 -0.0406 -0.2076
15033W        W31880  17.578  18.849  14.909 -0.3626 -0.4855  0.0296
15034W        W31881  13.861   0.257  11.439 -0.1287 -0.4398 -0.2448
15035W        W31882  12.240  18.521  12.332  0.1962 -0.0818 -0.3030
15036W        W31883   9.650   9.946   5.505 -0.2706 -0.2494  0.1104
15037W        W31884  16.725   3.301   0.742 -0.0671  0.2177  0.0487
15038W        W31885   6.245  16.764   1.941  0.0026  0.0333  0.0001
15039W        W31886   8.772  19.053   2.128  0.1175  0.0589 -0.2102
15040W        W31887  14.105   2.433  12.588 -0.0608  0.0810  0.2896
15041W        W31888  14.022   4.292   2.668 -0.1355  0.0714  0.0846
15042W        W31889   6.259   3.509   5.054 -0.0381 -0.0459 -0.0538
15043W        W31890   5.185  18.843  10.858  0.0396  0.2614 -0.2838
15044W        W31891  14.155   9.918  10.231 -0.0773 -0.1557  0.0584
15045W        W31892   9.320   2.940  13.965  0.4134  0.0298 -0.0756
15046W        W31893  12.557  18.685   0.231 -0.0147  0.0855  0.1396
15047W        W31894  11.857   1.690  13.693  0.0527 -0.0250  0.1180
15048W        W31895  14.222  13.281  12.814  0.3199 -0.0381 -0.0966
15049W        W31896  18.895  18.401  13.769  0.3597 -0.0830  0.2125
15050W        W31897  18.445   4.811   1.736  0.1291  0.5676  0.2501
15051W        W31898  11.182   5.189   9.629 -0.2305 -0.1061  0.1880
15052W        W31899  10.648  10.236  14.743 -0.3018 -0.0893  0.1985
15053W        W31900   3.561   0.292   1.457 -0.0446  0.1269  0.2600
15054W        W31901   8.824   8.032   3.622  0.2600 -0.3396  0.1884
15055W        W31902  10.923   3.239   2.075  0.1803  0.1738  0.1591
15056W        W31903   9.588   8.233   4.074 -0.2630  0.2691  0.1676
15057W        W31904  14.757   7.158  12.632  0.1336  0.1537  0.1224
15058W        W31905   9.702   8.850   4.151 -0.2068  0.0854  0.0692
15059W        W31906   5.489  12.057   4.131  0.4422  0.3179 -0.0554
15060W        W31907  17.994   6.343   2.929  0.0196  0.1972 -0.0395
15061W        W31908   1.131   5.147   2.585  0.0404  0.1566  0.1997
15062W        W31909  14.986  13.034  13.914  0.0257  0.4080 -0.1147
15063W        W31910   6.487  14.675   1.520  0.3906  0.1467 -0.0713
15064W        W31911   9.503  14.150   0.867 -0.3583 -0.1473 -0.1005
15065W        W31912   9.969   3.078   2.067  0.0060  0.1338  0.1504
15066W        W31913   5.581   2.075  10.988  0.3412  0.1076 -0.1459
15067W        W31914   8.414   3.535   4.613 -0.0626 -0.1014  0.0293
15068W        W31915   8.137  11.157  14.289 -0.2167  0.2559 -0.0367
15069W        W31916  18.680  13.984  11.711 -0.1638 -0.1182 -0.0883
15070W        W31917  12.776   0.700  12.262  0.4317 -0.0635 -0.0109
15071W        W31918   6.877   4.462   2.298 -0.4749  0.1999 -0.0476
15072W        W31919  11.619  17.345   0.020 -0.3152  0.3963 -0.2186
15073W        W31920   4.021  17.705  12.415 -0.0067  0.0672 -0.1698
15074W        W31921   5.770   4.575   0.024  0.1183  0.1537  0.1076
15075W        W31922   5.789  10.969   4.815 -0.0270 -0.1766  0.1600
15076W        W31923   7.482   9.284   0.060  0.2819  0.3121 -0.0465
15077W        W31924   8.182   0.239  14.182  0.0801 -0.1854 -0.0728
15078W        W31925  13.163  18.734  13.161 -0.0380 -0.0160  0.1009
15079W        W31926   3.054   8.983   3.211  0.0986  0.0640 -0.0596
15080W        W31927  13.529   4.288   4.257 -0.3601  0.1405  0.0135
15081W        W31928   1.307   4.159   0.445  0.2309  0.3267  0.0747
15082W        W31929   3.791  11.318  11.912  0.1610  0.0202  0.0409
15083W        W31930   3.965  19.147  13.641  0.0528 -0.0907  0.0858
15084W        W31931   9.035  11.494   3.977  0.0064 -0.1419  0.0966
15085W        W31932   7.082   6.263   8.922 -0.1131 -0.1082 -0.0435
15086W        W31933   5.267   6.355  11.667 -0.0153 -0.1745 -0.1270
15087W        W31934   9.738   7.289   0.013  0.2549 -0.0876  0.0961
15088W        W31935   3.204  17.637   5.311  0.3929  0.2296  0.0552
15089W        W31936  17.046  13.377  12.891 -0.0333  0.0211  0.2646
15090W        W31937   9.573  11.046   3.708 -0.3871 -0.1232  0.3132
15091W        W31938   6.770   1.454   3.141 -0.3426  0.0213  0.0907
15092W        W31939   5.393  19.128   9.931  0.2561 -0.0118  0.0757
15093W        W31940   5.994  12.240   3.600  0.0103  0.2937  0.0012
15094W        W31941  18.923   1.331  12.354 -0.0626  0.0440  0.1780
15095W        W31942   5.050  15.187   3.241  0.2364  0.0556  0.2528
15096W        W31943   8.831  17.066   2.183  0.1678 -0.2325 -0.2237
15097W        W31944  13.294   7.267   4.169 -0.1995  0.1680  0.1810
15098W        W31945   4.674  18.703  13.210  0.5050 -0.1110 -0.0571
15099W        W31946   9.078  19.142   4.491 -0.1993 -0.0594 -0.1027
15100W        W31947   0.762   1.112  10.624  0.1950  0.0176 -0.0970
15101W        W31948  15.958   7.031   1.138  0.2150 -0.1127  0.0827
15102W        W31949  10.692  17.404  13.785  0.0662 -0.1416 -0.2446
15103W        W31950   4.118   2.020   0.969  0.3144 -0.0627 -0.2114
15104W        W31951   3.783   1.917  10.972 -0.1874  0.3160 -0.2625
15105W        W31952   2.700   0.809   2.579 -0.0938  0.2731  0.0072
15106W        W31953   8.718   5.880   2.991 -0.1870 -0.0535 -0.1082
15107W        W31954  15.160  15.030   5.327 -0.0135  0.3288  0.1274
15108W        W31955   7.562  11.976   1.157  0.3313  0.1537 -0.0896
15109W        W31956  17.192  14.682   1.366 -0.0208 -0.0287 -0.0528
15110W        W31957  15.696  13.017  11.477  0.1961 -0.0379 -0.2211
15111W        W31958  17.031   8.113   4.552 -0.2665 -0.1172  0.0934
15112W        W31959   9.190   1.834  11.026 -0.1050 -0.1094 -0.1076
15113W        W31960  10.918   3.098   0.560  0.2131 -0.0347  0.1867
15114W        W31961   5.925   7.007   2.824  0.0636  0.0588 -0.2751
15115W        W31962  14.204   3.950   2.330 -0.0335 -0.1236 -0.2315
15116W        W31963  17.832  18.194   3.962 -0.1013 -0.0601  0.0412
15117W        W31964   5.851  10.958   1.765 -0.0828  0.1579  0.0381
15118W        W31965   5.228  11.022  10.365 -0.0085 -0.0586  0.1890
15119W        W31966   0.466  13.374  14.528  0.1213  0.1524 -0.1024
15120W        W31967  17.125  15.937  11.444 -0.0173  0.0294  0.4212
15121W        W31968   5.520   2.034   1.514 -0.1066 -0.1975 -0.0838
15122W        W31969   0.799   6.908  10.566  0.0819 -0.1454 -0.1607
15123W        W31970   0.943   5.442   4.622 -0.0157  0.0050  0.2175
15124W        W31971  17.088  16.988  12.874 -0.1112  0.5212  0.0300
15125W        W31972  13.764  14.143   4.186 -0.2181 -0.0429 -0.0665
15126W        W31973  14.680  13.585   3.151  0.0021 -0.2042 -0.0042
15127W        W31974  12.121  17.309  14.909  0.0131  0.0214  0.0032
15128W        W31975   0.283  12.178  13.377 -0.3338 -0.0043 -0.1398
15129W        W31976  12.375   8.350   4.137  0.0995 -0.0605 -0.3017
15130W        W31977  17.434   3.572   2.448 -0.0495 -0.1304  0.0126
15131W        W31978  16.385   8.502  12.008  0.0666  0.2795  0.3558
15132W        W31979   6.650   1.318   0.746 -0.1640 -0.3236 -0.1203
15133W        W31980  10.885   6.316  12.429  0.0952  0.1185  0.0754
15134W        W31981   4.653   4.960   1.883  0.2410 -0.1001 -0.0280
15135W        W31982  16.528   5.047   4.559  0.0494 -0.2615  0.1482
15136W        W31983   4.234   1.075   3.811 -0.1678 -0.0048 -0.0429
15137W        W31984  12.456  13.165   2.646  0.0692  0.1915 -0.1472
15138W        W31985  15.242  11.003   4.250  0.3654  0.0899  0.0889
15139W        W31986   7.994   0.444   3.094 -0.0163 -0.0583  0.0593
15140W        W31987  15.113  15.969  11.360  0.1694 -0.0373 -0.1827
15141W        W31988   9.554  12.023  11.576 -0.0260  0.2801  0.1666
15142W        W31989   5.095   6.868  14.879  0.3099 -0.4171 -0.0630
15143W        W31990  15.961   9.997  10.627 -0.2221 -0.0647 -0.1695
15144W        W31991   6.926  10.238  12.469 -0.0887 -0.0019 -0.0569
15145W        W31992  17.709   7.933  14.317 -0.1321  0.2964 -0.0104
15146W        W31993   3.084   0.070  12.205  0.1664 -0.0175  0.2362
15147W        W31994  12.834   8.561   4.043 -0.3358  0.0715  0.1736
15148W        W31995   2.791  14.264   1.487 -0.1411  0.0184  0.0167
15149W        W31996  13.591   8.761   2.965  0.2089  0.1799 -0.3314
15150W        W31997  10.005  13.896   0.648 -0.0040 -0.0617 -0.0972
15151W        W31998  11.920  17.679   0.272  0.1015 -0.1951 -0.0981
15152W        W31999  13.065   0.662  13.139  0.0260 -0.0270 -0.1926
15153W        W32000  15.057  14.665  11.155  0.3465 -0.0380 -0.0895
15154W        W32001  15.109   2.980   1.753  0.0994  0.0238 -0.0191
15155W        W32002   4.472   6.968  13.392 -0.4186 -0.1964  0.0343
15156W        W32003  13.825  12.330   3.978 -0.2279  0.1623 -0.1938
15157W        W32004   9.169  10.755  12.732  0.0457 -0.0033 -0.0924
15158W        W32005  15.342  14.582   2.458  0.2280  0.1069 -0.3278
15159W        W32006   6.256  13.376   1.769 -0.1060 -0.2416  0.2781
15160W        W32007  18.241   2.286   4.481 -0.0028  0.0397 -0.1419
15161W        W32008  14.125   1.071  12.578  0.2249  0.0045  0.0293
15162W        W32009   3.126  13.157   9.824  0.1338  0.1437  0.2797
15163W        W32010  15.869  14.450   2.527 -0.1879  0.1493 -0.1339
15164W        W32011  10.139  10.491   0.340 -0.0021  0.0589  0.3310
15165W        W32012  18.455   9.479  12.171  0.2359  0.1853  0.0753
15166W        W32013   9.475  12.390  14.592  0.2813  0.0855 -0.1390
15167W        W32014   2.428  11.855   0.495 -0.0266 -0.0997  0.3054
15168W        W32015  12.073   8.135   4.524 -0.2140 -0.0597  0.0851
15169W        W32016   3.523   5.364  14.743 -0.1019  0.3765  0.0663
15170W        W32017   6.708   2.962  12.800  0.2554  0.1783  0.0420
15171W        W32018  13.467   3.735  12.809 -0.1869  0.0070  0.1289
15172W        W32019   5.294  15.450   0.473  0.0065  0.2571 -0.1037
15173W        W32020   1.116   6.885   4.222  0.0526 -0.2430  0.1353
15174W        W32021  10.836  11.634  13.326  0.4109  0.0879 -0.0764
15175W        W32022  13.124  16.733  11.021  0.1643  0.1153  0.3013
15176W        W32023  18.018   8.721  15.001  0.2103 -0.0654  0.0291
15177W        W32024  11.394  17.750   0.320  0.0349  0.3241  0.5361
15178W        W32025  18.413   5.302  10.596  0.0950  0.1906  0.0463
15179W        W32026  14.085  17.552   0.390 -0.5802  0.2520  0.0731
15180W        W32027   7.811  11.141  12.704  0.2133  0.0852 -0.0186
15181W        W32028  17.042   6.317   0.298 -0.0287  0.3480  0.1539
15182W        W32029  11.761  10.270  14.460  0.2802 -0.0012 -0.4561
15183W        W32030   2.740   3.013   1.894  0.0562 -0.1460 -0.0087
15184W        W32031  16.242   9.247   1.106 -0.0835  0.6017  0.2829
15185W        W32032   8.499   3.689   1.688 -0.1211 -0.2056  0.0349
15186W        W32033  13.075   9.519   4.579  0.2493 -0.1011 -0.0160
15187W        W32034   9.893  14.888  11.289  0.2023 -0.1261  0.4597
15188W        W32035   2.369   4.265  12.458  0.1744  0.1335 -0.3733
15189W        W32036  11.625   3.093  10.397 -0.2456 -0.0601  0.4582
15190W        W32037   1.458  14.018   3.087  0.1730  0.3149  0.0757
15191W        W32038  10.265   8.068   3.714  0.3299  0.0983 -0.3357
15192W        W32039   6.597   2.368  11.948 -0.1412  0.1495 -0.0246
15193W        W32040  18.273  10.144   4.179 -0.0678  0.0601  0.0949
15194W        W32041  10.075  14.075  12.371 -0.2465 -0.0553  0.0338
15195W        W32042  18.805  15.203   2.592 -0.1038  0.0606  0.2299
15196W        W32043   7.362  13.851  14.935  0.2077  0.0874  0.0325
15197W        W32044  11.818   1.934  10.218  0.1072  0.3792 -0.2095
15198W        W32045  17.970   7.179  12.587  0.2763 -0.0780  0.0868
15199W        W32046   8.517  14.604  11.679 -0.3543 -0.1340  0.3294
15200W        W32047   2.325  12.055   2.363 -0.3334 -0.2361  0.1070
15201W        W32048   7.645   3.101   1.572  0.0164  0.0162 -0.1306
15202W        W32049  18.297   4.313   0.297  0.2243 -0.1809  0.1894
15203W        W32050   6.794   5.758   4.158 -0.0245 -0.3212 -0.0795
15204W        W32051  10.778   2.318  12.742  0.0651  0.0208  0.1808
15205W        W32052   4.028   6.330  10.905  0.2433 -0.0936  0.0913
15206W        W32053   0.771  16.865  13.286 -0.4028 -0.2147  0.1057
15207W        W32054   8.641   5.665  11.622  0.1291  0.3054  0.5039
15208W        W32055  10.256  15.021   4.117  0.0195 -0.1613 -0.1588
15209W        W32056   1.750   0.608   4.281  0.2048 -0.0719  0.0521
15210W        W32057  17.131  18.890  13.575 -0.0431  0.2471  0.0981
15211W        W32058   2.527  16.884  11.723 -0.1535  0.4174 -0.1508
15212W        W32059  14.433   0.067   3.691  0.3632  0.3051 -0.2910
15213W        W32060   5.638  16.617  12.497 -0.1387 -0.3922 -0.1271
15214W        W32061  11.199  18.051  13.239  0.1944 -0.1100  0.0877
15215W        W32062   8.584   6.918   4.262  0.5082 -0.1254 -0.2576
15216W        W32063  13.737  10.525  10.257  0.1845  0.1361  0.1959
15217W        W32064  11.447  16.609   0.916 -0.1637 -0.0364 -0.2037
15218W        W32065   7.845   7.076  12.680  0.0357 -0.1303  0.1464
15219W        W32066   2.221   3.466   1.699 -0.1259  0.0352  0.2262
15220W        W32067  14.980  13.119  13.429  0.0012 -0.0365  0.3351
15221W        W32068  11.634   1.030  11.515  0.2821 -0.0925  0.2336
15222W        W32069  17.977   0.516   0.750  0.0590  0.2235  0.2563
15223W        W32070  10.677   7.502  13.352  0.2910 -0.2045 -0.3237
15224W        W32071  16.633   7.564  13.549 -0.2855 -0.1610  0.1964
15225W        W32072  16.822  15.010   1.218 -0.3849 -0.2652  0.3272
15226W        W32073   4.684  16.060   0.212 -0.1786  0.0117 -0.0487
15227W        W32074  16.609   7.580  11.530 -0.3082 -0.0730 -0.0783
15228W        W32075  17.891   7.461   5.555  0.3580  0.2353  0.0613
15229W        W32076   4.156   7.909   0.756 -0.2343 -0.3065  0.0982
15230W        W32077  19.080   6.956  11.962 -0.1336 -0.3309 -0.0132
15231W        W32078   9.133   9.561  13.239  0.2676 -0.2718  0.0078
15232W        W32079   9.871   9.544   2.027  0.2055 -0.2642  0.2119
15233W        W32080   5.164  10.597  14.308 -0.0658 -0.1568 -0.1266
15234W        W32081  14.122   5.068   4.706  0.2135  0.0350  0.1134
15235W        W32082   5.216  19.168   0.176  0.1911  0.0878  0.0509
15236W        W32083  14.152   9.874  14.659  0.0271  0.3195  0.0004
15237W        W32084  19.147   7.358   4.838 -0.2002 -0.0207  0.0496
15238W        W32085   4.684  18.853   4.180 -0.0976  0.1437 -0.3929
15239W        W32086   6.151  18.253   0.592 -0.2291  0.1211  0.4563
15240W        W32087  15.884   1.623  14.286 -0.0050 -0.0714  0.1497
15241W        W32088   9.787   7.352  14.366 -0.2390  0.1470  0.1967
15242W        W32089   6.573   3.065   0.561  0.2307  0.0035 -0.2870
15243W        W32090   0.169  18.237   4.122  0.2950  0.0142  0.2387
15244W        W32091  15.274  15.255   2.987 -0.3001 -0.1399  0.1209
15245W        W32092   4.843  12.779   2.115  0.0101 -0.0629 -0.3717
15246W        W32093   0.431   6.848   3.624 -0.1614 -0.3015 -0.1692
15247W        W32094   9.724  18.325   3.241 -0.4119 -0.0018  0.0996
15248W        W32095  11.654   1.828   4.275 -0.1240 -0.0752 -0.0067
15249W        W32096   5.674  18.731   2.597  0.1142  0.3050 -0.0676
15250W        W32097   4.526   2.081   0.715 -0.2940  0.0491  0.0669
15251W        W32098   8.425   2.775   3.280 -0.0996  0.0601 -0.3267
15252W        W32099  12.475  12.839  13.388 -0.1006  0.0990  0.2586
15253W        W32100  19.274   6.406   4.059 -0.0854  0.1935  0.2049
15254W        W32101   9.537  16.871  11.313  0.3084  0.0774  0.1265
15255W        W32102  18.329  17.790   0.148 -0.2500 -0.2096 -0.0348
15256W        W32103  14.133  14.405   0.370  0.3185  0.0480  0.2882
15257W        W32104  16.635   9.569   1.098  0.0007  0.1553 -0.1614
15258W        W32105  11.077   7.517   3.040 -0.2719 -0.0103 -0.1204
15259W        W32106  18.588  17.589  11.314  0.2299 -0.2369 -0.2239
15260W        W32107   7.589   2.378  10.353 -0.0727 -0.4918  0.0767
15261W        W32108  16.571   8.437  14.353 -0.0332  0.1304  0.1499
15262W        W32109   7.728  15.003   1.316  0.0071 -0.1317 -0.1685
15263W        W32110  13.553  13.334   1.991  0.1159  0.0406 -0.0082
15264W        W32111  14.134   5.207  13.726 -0.3121 -0.3410 -0.0336
15265W        W32112   6.003  15.149   5.320 -0.0811  0.0719  0.1429
15266W        W32113   4.287  12.347  11.686  0.0709  0.0935 -0.2619
15267W        W32114   0.095  10.921   5.374  0.1833 -0.0979  0.1818
15268W        W32115  12.341   0.730   3.968  0.1864 -0.2483  0.1177
15269W        W32116  17.125   7.875   1.075 -0.0503  0.0034  0.0245
15270W        W32117  15.397   4.566  11.829 -0.0140 -0.1572  0.2175
15271W        W32118   7.044   2.349  14.809 -0.0150  0.0641  0.1991
15272W        W32119   9.250   0.731   3.782  0.0528 -0.0801  0.1134
15273W        W32120  15.101   6.052   0.718 -0.1874 -0.1263  0.0420
15274W        W32121  18.079   6.955   4.450  0.3704  0.1661 -0.1851
15275W        W32122  13.368   7.182   0.453  0.0337 -0.3232 -0.1157
15276W        W32123  17.862  18.823   5.121  0.0964  0.2043  0.0203
15277W        W32124  14.546   8.739   1.166 -0.0188 -0.1372  0.0908
15278W        W32125   6.288   0.610   2.796  0.0963 -0.0467 -0.1265
15279W        W32126   1.095   0.759   2.548  0.1641 -0.0006  0.0965
15280W        W32127   5.144  19.076   2.656 -0.0054 -0.4077  0.1211
15281W        W32128   6.194  11.745   4.651  0.0935  0.0527 -0.1659
15282W        W32129   7.561   3.972  11.672 -0.1947 -0.0715 -0.2129
15283W        W32130   1.282   5.402  12.209  0.1960  0.0515  0.2639
15284W        W32131   6.509   2.169   2.931 -0.0927  0.2268 -0.0915
15285W        W32132   9.720  13.780   2.215  0.2111 -0.0080  0.1129
15286W        W32133  12.206  15.264   4.793 -0.0922  0.2339  0.1288
15287W        W32134  15.257  15.821   1.017 -0.0415 -0.3202  0.0667
15288W        W32135   9.262  12.992   2.012 -0.0208 -0.2056  0.0835
15289W        W32136   7.500  13.854   2.369  0.0823 -0.1653 -0.1857
15290W        W32137   5.451   5.513  11.681  0.4940  0.0703  0.0999
15291W        W32138   8.152   4.187  14.560  0.0447  0.0771  0.0233
15292W        W32139  14.291  15.691   2.228 -0.0014  0.1947 -0.1697
15293W        W32140  13.232  16.686  14.715 -0.2735  0.2437  0.0188
15294W        W32141   7.943   7.364   1.559  0.2885 -0.2173  0.0728
15295W        W32142  13.511   1.403   4.264 -0.2261 -0.2891  0.1008
15296W        W32143   6.079  15.696  12.683 -0.3634  0.2773  0.2169
15297W        W32144   2.830   0.048  14.822 -0.2041 -0.2190 -0.1495
15298W        W32145  10.701   1.317  11.039  0.0364  0.2551 -0.4088
15299W        W32146   9.893   7.201  13.335 -0.1183  0.2698  0.2628
15300W        W32147  10.194  10.909   1.042  0.0685  0.1681  0.1386
15301W        W32148  10.565   8.324   4.063  0.1071  0.1565 -0.0683
15302W        W32149   3.603  11.319   0.724 -0.1298  0.0486 -0.0848
15303W        W32150  15.810   6.276  14.689 -0.0334 -0.1040  0.0606
15304W        W32151   1.925   8.961   0.352 -0.1150 -0.0806  0.2676
15305W        W32152  17.869   0.239   3.511 -0.1256  0.1789  0.0168
15306W        W32153  11.129   6.836  12.778  0.0552  0.2036 -0.3092
15307W        W32154   4.176   0.602  14.440 -0.0605 -0.0860 -0.1387
15308W        W32155   6.170  14.657   2.400  0.2771 -0.1418 -0.2443
15309W        W32156   1.004   8.588   5.124  0.3469  0.1863  0.1459
15310W        W32157  10.129  18.089   3.532 -0.0398  0.3411  0.0671
15311W        W32158   2.067  17.101  14.538  0.0057 -0.0559 -0.1699
15312W        W32159   7.227  10.185   9.909  0.1401  0.0637  0.3322
15313W        W32160   5.549   0.617  14.100  0.3131  0.0043 -0.1829
15314W        W32161  11.799  18.607   5.910  0.0107  0.0521 -0.1460
15315W        W32162  11.140   4.755  14.157 -0.2230  0.1880  0.1979
15316W        W32163  11.607   6.348  10.091 -0.0367  0.0453 -0.0615
15317W        W32164  18.938  14.139  13.642  0.0112  0.3402  0.1022
15318W        W32165  18.762   5.760   3.564  0.1338 -0.0496 -0.0276
15319W        W32166  12.351   7.586  10.954  0.2466 -0.0256 -0.6110
15320W        W32167  13.446   1.407  11.145 -0.1029  0.0776 -0.0244
15321W        W32168  15.251  16.098   3.484  0.0837 -0.3364 -0.1288
15322W        W32169  18.308   1.298  11.554 -0.0189  0.1296 -0.0750
15323W        W32170  11.326  17.336  12.209  0.2106 -0.3203 -0.1993
15324W        W32171  11.752  13.532   0.128  0.3131 -0.1355  0.2610
15325W        W32172   7.713   4.402  12.939  0.1269  0.0621 -0.2039
15326W        W32173   9.378   7.920   0.553 -0.2427 -0.1225 -0.0102
15327W        W32174   9.071  18.724   9.904  0.0026  0.1782  0.1844
15328W        W32175  14.755  13.476   2.153 -0.0307 -0.1749 -0.1100
15329W        W32176   0.283  12.803   4.175 -0.0720  0.2127  0.1170
15330W        W32177   1.273   9.847  13.298  0.2364  0.2499 -0.1935
15331W        W32178   6.607   0.760  14.817 -0.0648 -0.1546  0.1750
15332W        W32179  12.452   1.515  13.636 -0.1349 -0.0409  0.0903
15333W        W32180  12.960   6.108   1.935  0.0460  0.0699 -0.0206
15334W        W32181  10.510  12.575  10.688  0.2880 -0.0740 -0.0240
15335W        W32182   1.589  14.854   1.270 -0.4102 -0.1715 -0.0592
15336W        W32183  11.387   8.693   0.297 -0.0922  0.4594  0.0245
15337W        W32184   4.393  14.111   4.281  0.3805 -0.0833  0.1043
15338W        W32185   0.952   4.084   0.841 -0.1130 -0.1395  0.0918
15339W        W32186  15.896  16.687   2.813  0.1093 -0.0007  0.0228
15340W        W32187   3.367  15.584  13.815  0.0847  0.2806 -0.0842
15341W        W32188   0.572   6.703   3.162  0.0026  0.0814  0.1640
15342W        W32189  17.004   9.682   4.488  0.3237  0.0361  0.0145
15343W        W32190   9.037  11.833  13.347 -0.3657 -0.1089  0.0638
15344W        W32191  18.722   8.481  11.443  0.2363 -0.1778  0.0880
15345W        W32192   5.339   8.737   0.572  0.0213 -0.5040 -0.1799
15346W        W32193   7.537  17.848   2.893 -0.1502  0.0232 -0.2130
15347W        W32194   2.350   8.327   0.919  0.0244 -0.0311  0.0379
15348W        W32195   1.882  17.992  12.420 -0.2761  0.1056 -0.1203
15349W        W32196  14.360   4.896   1.220  0.1222 -0.2676  0.0668
15350W        W32197   0.296   1.930   2.109 -0.1570  0.0663  0.2031
15351W        W32198  10.302   8.679   0.994 -0.2457 -0.2155 -0.2200
15352W        W32199   0.618   3.482  12.011 -0.2739  0.1215 -0.3193
15353W        W32200  16.870  17.020   5.467  0.1620 -0.0280 -0.0997
15354W        W32201  15.933   8.543   1.587  0.4527 -0.1760 -0.0232
15355W        W32202   6.432   8.718  11.647  0.1594 -0.1884 -0.0043
15356W        W32203  10.460  18.819  11.698 -0.1261 -0.0774 -0.2849
15357W        W32204  13.997   3.248   4.941  0.1270  0.2944 -0.1258
15358W        W32205   2.131  13.116  10.249  0.0666 -0.0162  0.1843
15359W        W32206   7.130  12.557   2.789  0.1511 -0.0638 -0.2254
15360W        W32207  13.545   5.924  14.130 -0.1081  0.0505 -0.1951
15361W        W32208  13.495  13.463   2.446 -0.1038  0.5896 -0.1072
15362W        W32209  14.226   9.496  13.728  0.1528 -0.1301 -0.0345
15363W        W32210  15.889   4.633   4.782 -0.0962 -0.1385 -0.1718
15364W        W32211  10.892  15.489  12.785 -0.1126 -0.3095 -0.0932
15365W        W32212  18.490  17.170  14.294 -0.0944 -0.2448 -0.0761
15366W        W32213  15.624   1.353  13.333 -0.1774 -0.1215  0.1744
15367W        W32214  13.117   2.368   0.282 -0.0128  0.2147  0.0359
15368W        W32215   2.915  18.919  13.952  0.0899 -0.1667  0.3195
15369W        W32216   7.060   4.303  12.837 -0.0693 -0.0941 -0.1301
15370W        W32217  14.047  18.689   5.561 -0.0720  0.1214  0.0342
15371W        W32218  18.558   4.900   1.253 -0.0214 -0.0475  0.0942
15372W        W32219   7.724  12.940   2.167 -0.1020  0.1310 -0.1737
15373W        W32220   9.190  12.087   4.472 -0.2827  0.0725 -0.4613
15374W        W32221   9.969  12.991  14.117  0.1592  0.0141  0.1156
15375W        W32222  10.688   5.910   3.529 -0.0332 -0.1159  0.2148
15376W        W32223   0.558  16.995   1.561  0.0643  0.0678  0.0200
15377W        W32224  15.230  18.657   2.301  0.0212  0.2024  0.3628
15378W        W32225  15.545  13.946   1.187 -0.2291  0.0540  0.1945
15379W        W32226   0.862   9.768  10.876  0.1414  0.1956 -0.0505
15380W        W32227   9.209   8.459  13.828 -0.2455  0.1411  0.0600
15381W        W32228   4.531  17.495   3.233  0.0376 -0.1630  0.0524
15382W        W32229  18.879   8.174   1.132 -0.3607 -0.1159  0.3095
15383W        W32230  12.745   9.668  11.231 -0.3637  0.1853 -0.1320
15384W        W32231  17.190   8.695  13.142  0.3313 -0.1609 -0.1785
15385W        W32232  18.150  12.810   0.969 -0.1141  0.2094 -0.2697
15386W        W32233   0.709  18.056   3.364  0.2141 -0.2636 -0.0805
15387W        W32234   4.848  16.969   1.784 -0.1558  0.0836  0.1550
15388W        W32235   1.870   2.596   3.541 -0.1658  0.3637 -0.0772
15389W        W32236  17.211  14.519  13.930 -0.0836 -0.2436 -0.1391
15390W        W32237  12.920   6.546   2.239 -0.0661 -0.2709 -0.0143
15391W        W32238  18.118  11.605   3.436  0.2723 -0.0482  0.1501
15392W        W32239  18.669   8.224   1.621  0.2057  0.1078 -0.2536
15393W        W32240  11.437  15.044   2.538  0.0946 -0.0704 -0.3071
15394W        W32241  13.186   7.381  10.545  0.0572  0.0377 -0.0004
15395W        W32242  10.505   4.528  14.303 -0.0444  0.2025 -0.1594
15396W        W32243   0.268  11.606   1.210  0.1062 -0.1609 -0.1912
15397W        W32244   1.697   5.414   1.818  0.2023 -0.1228  0.2055
15398W        W32245  15.815  14.702   4.344  0.1021  0.2393  0.0502
15399W        W32246  11.567   2.513   5.440  0.0918  0.0502 -0.0271
15400W        W32247  13.354  12.847   5.601  0.1654 -0.1854  0.0859
15401W        W32248   7.642   5.895  13.318  0.1236  0.1299  0.2812
15402W        W32249  12.579  17.212   1.563 -0.1622  0.0764 -0.0906
15403W        W32250   4.464  11.466  12.909  0.2879 -0.3963  0.2211
15404W        W32251  13.095  16.736   3.041  0.0201 -0.2003  0.0848
15405W        W32252   0.508   0.683   0.141  0.2825  0.3058 -0.2788
15406W        W32253   0.107  19.010   3.662  0.1454 -0.3100 -0.0274
15407W        W32254   2.116   4.002  10.588  0.1607  0.1112  0.0837
15408W        W32255   5.490   6.382  10.268  0.0755 -0.1463 -0.0606
15409W        W32256   3.456  16.850   1.972 -0.0158 -0.1499 -0.2352
15410W        W32257  17.419  15.550   1.934 -0.0726 -0.1558 -0.2289
15411W        W32258   2.095  12.569  12.156  0.1145  0.0388 -0.2386
15412W        W32259   4.141  11.093   3.378 -0.1578  0.0884  0.2076
15413W        W32260  17.225  13.281  14.248  0.4851 -0.1329  0.2408
15414W        W32261  13.878   9.065   0.504  0.2226  0.2027  0.0552
15415W        W32262   1.807   3.220  12.396  0.0581 -0.0089 -0.1776
15416W        W32263  14.779   0.993   1.657 -0.0278  0.0137  0.0965
15417W        W32264  18.197   7.739   3.149 -0.1578  0.0986 -0.1888
15418W        W32265  14.957  15.873   0.315  0.2181 -0.0968  0.0744
15419W        W32266  11.365   9.518   2.657  0.2674  0.0229  0.1041
15420W        W32267  16.868   1.346   3.119 -0.4984 -0.1792 -0.1197
15421W        W32268  14.403   5.499   0.828  0.1406 -0.0806 -0.0524
15422W        W32269   6.311  10.671   3.930 -0.3014  0.1649  0.1436
15423W        W32270   6.770  11.635  13.196 -0.1560  0.0543  0.2261
15424W        W32271  14.078   9.273   1.309  0.0907  0.2395  0.1393
15425W        W32272  10.181  13.835   1.456  0.0834  0.3850 -0.0060
15426W        W32273   8.220   1.892   2.146  0.1250  0.1631 -0.2946
15427W        W32274   7.604   4.103  14.624  0.0200 -0.3545 -0.0738
15428W        W32275  17.381   7.749  13.119 -0.0208  0.3038  0.3069
15429W        W32276   5.802  17.855  10.350  0.0911  0.0659 -0.1601
15430W        W32277   3.400  16.075  13.626  0.3675  0.1108  0.1205
15431W        W32278  16.504  17.216   1.198  0.0295 -0.1631 -0.3232
15432W        W32279   5.077  15.493   0.016 -0.3744  0.1055 -0.0806
15433W        W32280  14.559  10.889   1.501  0.1850  0.2520  0.0926
15434W        W32281  18.381   7.693   5.555 -0.0271 -0.1645 -0.0000
15435W        W32282   8.868  15.676  13.925 -0.0351  0.2474  0.4919
15436W        W32283   0.873  18.877   4.568  0.0132 -0.1931 -0.0640
15437W        W32284   5.991  11.237  12.851  0.1812 -0.1630  0.0881
15438W        W32285  18.557  18.859   1.157 -0.2341 -0.1042 -0.1514
15439W        W32286  17.847  14.655   4.599  0.1331 -0.1536 -0.4063
15440W        W32287   5.436   8.960  11.413 -0.0118 -0.0140 -0.3245
15441W        W32288   4.872  18.025  12.501 -0.0915  0.0992  0.1583
15442W        W32289  11.927   2.624  14.501 -0.2204 -0.1360  0.0174
15443W        W32290   0.210  12.967   1.482  0.0956  0.2102 -0.2163
15444W        W32291  12.693   5.187  14.282 -0.1096  0.0440  0.0310
15445W        W32292   2.947   9.626  11.492  0.2810 -0.0819 -0.0447
15446W        W32293   7.395   4.153  13.234 -0.2026 -0.0669  0.0128
15447W        W32294   2.627  18.229  11.817  0.0897  0.0644  0.1710
15448W        W32295  16.926   1.576  13.002 -0.1580  0.0249 -0.0578
15449W        W32296   4.796  10.110  11.532 -0.1734 -0.0896 -0.0720
15450W        W32297  14.370   8.395   4.417  0.2492 -0.0418 -0.1692
15451W        W32298  18.554   1.288   4.033  0.0927  0.0961 -0.0437
15452W        W32299  14.700  10.994  12.174  0.1288  0.4133  0.0697
15453W        W32300   4.441   2.786  12.013 -0.3315 -0.1185 -0.2468
15454W        W32301  18.996   3.171   1.325  0.1304  0.1093  0.3742
15455W        W32302   3.615   8.067  13.662 -0.0195  0.0063 -0.2001
15456W        W32303   4.738  17.490   2.737  0.2312 -0.0226  0.3336
15457W        W32304   1.373  19.243   2.299  0.1742  0.1638 -0.0691
15458W        W32305  18.891  11.587   0.520 -0.0794 -0.2904 -0.0536
15459W        W32306   0.767  15.628   2.040  0.1020  0.0483  0.0636
15460W        W32307   3.945  15.250   1.564 -0.2239 -0.1014  0.3315
15461W        W32308   4.199  10.988  14.408 -0.0923  0.2503 -0.0139
15462W        W32309   8.157   6.908   1.353 -0.3462 -0.1092 -0.0598
15463W        W32310  12.853   6.113   4.395 -0.1971  0.1451 -0.1750
15464W        W32311   2.724   2.370   4.684  0.0198 -0.0532 -0.0634
15465W        W32312  13.582   2.367  11.050  0.1047  0.1339  0.2607
15466W        W32313   5.122   0.462  13.825 -0.0614  0.3135  0.1386
15467W        W32314  10.029   7.512   3.451  0.0611 -0.0502  0.2705
15468W        W32315  12.507   1.281   5.039  0.0791 -0.2919 -0.0235
15469W        W32316   1.581   6.024   3.662 -0.0071  0.2429  0.0709
15470W        W32317   8.403   1.407   0.857  0.1451 -0.1863  0.0977
15471W        W32318  10.918  11.404  11.573  0.0791  0.1540 -0.0364
15472W        W32319  16.584  17.491   2.073 -0.2749  0.1872  0.0096
15473W        W32320  18.504   7.109   0.877 -0.1096 -0.0824  0.0289
15474W        W32321   6.485   4.688  11.845 -0.2015 -0.1173 -0.0804
15475W        W32322   3.263   9.990  11.111 -0.1674  0.0091 -0.2142
15476W        W32323   7.826   6.980  11.364  0.2397 -0.3050 -0.2140
15477W        W32324   7.377   4.709   1.983  0.0777 -0.1523 -0.0445
15478W        W32325   7.112   5.919   4.558  0.1503 -0.4571 -0.0286
15479W        W32326   2.950  14.051   9.483 -0.0837  0.2488 -0.1470
15480W        W32327   8.099   8.549   2.918 -0.1171 -0.1334  0.0347
15481W        W32328  15.995   3.109   1.944  0.2986  0.0575  0.2540
15482W        W32329   3.320  15.726   0.472  0.2815  0.0154 -0.1155
15483W        W32330   6.004   7.186   1.372 -0.0114  0.0594  0.1889
15484W        W32331  16.474  18.667  11.683 -0.1305  0.0403 -0.0029
15485W        W32332   9.963  11.914   2.463  0.2554 -0.2003 -0.0497
15486W        W32333   1.539  11.548  12.118  0.1580 -0.1943 -0.0910
15487W        W32334  17.743  11.766   3.151  0.0094  0.3750  0.4210
15488W        W32335  15.924   7.106   1.743 -0.1222 -0.0195 -0.1191
15489W        W32336  11.417  17.901   3.365  0.3552 -0.1532 -0.1694
15490W        W32337  19.231   8.152   4.474  0.0573  0.3509 -0.0671
15491W        W32338   5.909   5.600   4.635 -0.0937 -0.0757  0.0374
15492W        W32339  13.424  11.449  12.799  0.1543 -0.0220 -0.3437
15493W        W32340   7.489  11.469  12.462 -0.2980 -0.0135 -0.3058
15494W        W32341  18.199  17.890  14.670 -0.0731 -0.1777 -0.4023
15495W        W32342   8.018  13.589   3.727  0.0109 -0.0389 -0.1625
15496W        W32343   5.384   0.282   3.713 -0.0131  0.2876  0.1033
15497W        W32344   5.667   8.067   1.755 -0.2597  0.0650  0.1657
15498W        W32345   9.913  15.792   0.296 -0.0039 -0.0730  0.0104
15499W        W32346  17.802   1.471   2.552 -0.4516  0.0968  0.1739
15500W        W32347  17.880  11.850  11.938 -0.3586 -0.1947  0.2852
15501W        W32348  14.109   4.685   4.345  0.0855  0.1476  0.0605
15502W        W32349   0.785  16.154  11.419  0.0603  0.0231 -0.1272
15503W        W32350  12.488  17.912  13.996 -0.3160  0.3077 -0.0293
15504W        W32351  12.371   6.424  10.347 -0.0361  0.1090 -0.1796
15505W        W32352  13.806   2.022   5.141  0.1668  0.1023  0.1210
15506W        W32353   1.159  16.701   4.812 -0.0393  0.0582  0.0027
15507W        W32354  11.455  19.252  13.838 -0.0162  0.2985 -0.0792
15508W        W32355   6.237  17.248  10.853 -0.0135 -0.1832  0.0092
15509W        W32356  18.496   3.025   3.191 -0.0302 -0.0859  0.0971
15510W        W32357   2.527  10.006   5.270 -0.0650  0.1123  0.0308
15511W        W32358   2.307  16.611  10.782  0.0332 -0.4153  0.3052
15512W        W32359   9.374   9.976   4.178 -0.2304 -0.0120 -0.0662
15513W        W32360  12.384   8.355  10.764  0.1182  0.3322 -0.2366
15514W        W32361   8.751  14.899  11.991  0.0036 -0.1039  0.2335
15515W        W32362  17.167   2.301   4.330  0.0791  0.0586  0.1866
15516W        W32363  17.393   4.596  11.116  0.1109  0.1649  0.1079
15517W        W32364   5.634   1.532   2.218  0.1536  0.4363  0.1031
15518W        W32365  13.328  16.572  12.004  0.1430  0.1290 -0.1487
15519W        W32366   3.306  10.485   9.908 -0.2130 -0.2356  0.1541
15520W        W32367   2.539  12.203  10.761 -0.0713 -0.5586 -0.0622
15521W        W32368  19.120  14.178   3.844  0.3162  0.2329  0.4781
15522W        W32369   8.230   5.177  13.338  0.3699  0.2765 -0.1809
15523W        W32370  13.833  16.578  14.054 -0.2150  0.2255 -0.1196
15524W        W32371  16.397   7.189  14.008 -0.1984  0.1081  0.2321
15525W        W32372  14.584   4.677   4.682  0.3091  0.1612  0.2356
15526W        W32373   1.538  15.075   3.843 -0.0658 -0.0480  0.1150
15527W        W32374   2.610   9.434  13.859  0.2202 -0.0058  0.0587
15528W        W32375  15.700   0.105   1.971  0.1689  0.2729  0.0674
15529W        W32376   1.960  17.298   3.916 -0.0188 -0.1106 -0.0050
15530W        W32377  18.657  17.099  11.611 -0.0484 -0.4475 -0.2911
15531W        W32378  15.975   2.170   2.092 -0.0076 -0.0188 -0.1706
15532W        W32379  14.276  10.568  10.879 -0.1237 -0.4413  0.1519
15533W        W32380   6.197  10.775  11.501 -0.0896 -0.5245 -0.0559
15534W        W32381   6.405   7.618   2.286  0.1775 -0.2138  0.0739
15535W        W32382  10.961   8.791  12.217  0.0381  0.1511 -0.3244
15536W        W32383   0.507  16.184  14.998  0.0124 -0.2229  0.4488
15537W        W32384   4.420   5.283   3.696  0.4425 -0.3059 -0.0729
15538W        W32385  15.344  15.770   2.899 -0.2270  0.0309 -0.2502
15539W        W32386  19.124   5.836  14.215 -0.2193 -0.0586 -0.3439
15540W        W32387   2.116   5.550  11.567  0.1210 -0.1523 -0.0958
15541W        W32388  12.731   2.805  14.216 -0.4035  0.2483  0.2375
15542W        W32389   0.627   4.916   0.903 -0.0199 -0.0311 -0.0106
15543W        W32390  17.137   8.431   1.233  0.1625  0.0965 -0.1249
15544W        W32391   0.735   7.384  11.468  0.1580  0.1890 -0.1053
15545W        W32392   4.981   2.990   3.776 -0.0322  0.2462 -0.0058
15546W        W32393   9.073   8.964  14.108 -0.1209 -0.1768 -0.1832
15547W        W32394  13.898   3.586   1.150  0.2364 -0.1131  0.3310
15548W        W32395   7.079  10.780  12.088 -0.2537  0.0199  0.2896
15549W        W32396  14.133   5.918  13.956  0.0929  0.2592  0.1243
15550W        W32397  18.143   0.137   3.074  0.0095 -0.2249  0.0531
15551W        W32398   1.557  17.674  11.554 -0.0881 -0.1105 -0.0521
15552W        W32399  12.074  15.708   2.979  0.1599 -0.4092  0.1667
15553W        W32400   8.741   4.413   3.916  0.6783  0.4335  0.1312
15554W        W32401  13.727   3.989  11.457 -0.0972 -0.1950 -0.0123
15555W        W32402  14.779   0.543   0.004  0.2470 -0.0508 -0.0752
15556W        W32403   9.058  17.796   3.818  0.3100 -0.0626  0.0626
15557W        W32404  18.217   8.611  13.701 -0.1451 -0.1900  0.1801
15558W        W32405   8.954   7.508  14.558 -0.1416  0.0502  0.2120
15559W        W32406   7.572  13.294  12.639  0.2915  0.0389 -0.1617
15560W        W32407   4.560   3.844  12.797 -0.1055 -0.1389  0.0914
15561W        W32408   8.813   6.719  12.326  0.0907 -0.0130  0.0116
15562W        W32409   4.824  17.929  11.386  0.2822 -0.1373  0.0066
15563W        W32410  13.364  16.845   0.577  0.2148  0.2929  0.3032
15564W        W32411  12.387  12.355   3.559  0.0751 -0.3918  0.0604
15565W        W32412  14.852   0.265   2.921  0.0385  0.0798 -0.4704
15566W        W32413  13.233   3.480   4.459 -0.0645  0.1222 -0.1053
15567W        W32414   5.463  17.114   5.120 -0.1633  0.1772 -0.1233
15568W        W32415   9.838  12.037  12.985  0.0821 -0.5016 -0.1246
15569W        W32416   0.365   1.128   2.001 -0.2306 -0.2659  0.1232
15570W        W32417  11.879  17.050  10.815  0.2724 -0.0226  0.2888
15571W        W32418  14.284  16.524  12.357  0.0629  0.2591  0.1909
15572W        W32419   2.583   8.432   5.032  0.1262  0.4678  0.2568
15573W        W32420   9.312  16.951   3.789  0.1360 -0.2612 -0.0330
15574W        W32421   6.266  15.143   3.999 -0.3796 -0.1979 -0.4261
15575W        W32422  16.334   3.253  10.131  0.1710  0.3717 -0.2831
15576W        W32423  12.818   5.538  10.292  0.0257 -0.1724 -0.0648
15577W        W32424   3.926   5.204  14.981 -0.0079  0.4136 -0.1954
15578W        W32425   6.580   1.635   3.560  0.0140 -0.1296  0.1392
15579W        W32426   0.360  14.139  13.199 -0.0952 -0.3675  0.0878
15580W        W32427   5.874   5.191  13.929  0.2238  0.1090  0.2598
15581W        W32428  13.851   9.812   1.879 -0.1307  0.2595  0.1752
15582W        W32429  16.188  14.917   2.849 -0.1806 -0.1072  0.2441
15583W        W32430   2.189   3.317  14.006 -0.0846 -0.1796 -0.1427
15584W        W32431   7.610  14.215   0.087 -0.3336  0.2560  0.0702
15585W        W32432  14.019  14.498   1.665  0.2597  0.2515  0.0892
15586W        W32433   0.617  12.167  13.032 -0.0476 -0.5438 -0.1790
15587W        W32434  18.365   7.830   2.360  0.4356  0.5546  0.0304
15588W        W32435  10.798   7.204  12.773  0.2847  0.1984 -0.0264
15589W        W32436  17.878   1.755   4.222  0.1778  0.3545  0.1211
15590W        W32437  17.505   8.332  11.353  0.2351  0.4981  0.2512
15591W        W32438  16.418  15.485  11.576  0.1700  0.1257  0.1679
15592W        W32439   1.139  11.085   4.179  0.0536 -0.0708 -0.0815
15593W        W32440   2.094  12.022   3.784 -0.3104  0.2575  0.1306
15594W        W32441  10.692  13.334  12.589  0.1183 -0.0914 -0.0182
15595W        W32442  12.556  12.348   5.423 -0.1814  0.0769 -0.3694
15596W        W32443   8.815  15.222   1.385 -0.2733  0.0630 -0.2288
15597W        W32444  14.167   1.825   5.462  0.0139  0.0700  0.1870
15598W        W32445  11.465  14.514  13.589 -0.1742 -0.2122 -0.2271
15599W        W32446   1.025   6.443  11.633  0.1235 -0.2017  0.2392
15600W        W32447   8.866  16.692   0.728  0.0735  0.1050  0.3230
15601W        W32448   0.304   2.779  10.339  0.0354 -0.0790 -0.0591
15602W        W32449   8.818   0.645  12.984 -0.1418 -0.1869  0.1892
15603W        W32450   0.021   5.272  14.210  0.0549 -0.1287  0.0650
15604W        W32451   1.391  15.813  12.635  0.2209  0.0738  0.1460
15605W        W32452  11.403   3.395   2.923  0.2469 -0.1498 -0.2083
15606W        W32453   0.892  18.844  13.144  0.0729  0.2723  0.1429
15607W        W32454   6.691   2.455  13.675  0.0681 -0.1073  0.1962
15608W        W32455  10.190   9.851  12.357  0.0865  0.2421 -0.0483
15609W        W32456   2.825  12.956  11.585  0.1009 -0.0013  0.1764
15610W        W32457  13.533   1.343  13.554 -0.4216 -0.0272  0.2147
15611W        W32458   1.833  17.214  11.182 -0.1226 -0.2355  0.3607
15612W        W32459   8.139   0.160   5.670 -0.3390 -0.2813 -0.0070
15613W        W32460   0.586  15.879  11.875 -0.0717  0.2391  0.0211
15614W        W32461  14.663   1.337   2.595  0.2155 -0.0220  0.1235
15615W        W32462   5.086   3.692   1.513 -0.2601  0.2260 -0.2332
15616W        W32463  10.347   9.456  14.164 -0.0246  0.0125 -0.0247
15617W        W32464   3.698  14.796   1.600  0.0337 -0.1088 -0.2224
15618W        W32465  14.859   2.888  13.350 -0.1711  0.1039  0.0798
15619W        W32466  11.668   4.976  13.952  0.0768  0.0301 -0.3484
15620W        W32467  19.228  15.186   5.406 -0.0249 -0.2033  0.0119
15621W        W32468   4.974   3.938  12.440  0.1298  0.1447  0.0079
15622W        W32469  18.139   6.347   1.167 -0.4060 -0.1155  0.1270
15623W        W32470  17.050   8.480  11.234 -0.0522  0.1398  0.1132
15624W        W32471   3.313  16.142   4.155  0.1609 -0.3411 -0.1661
15625W        W32472  16.998  17.821  12.515  0.1359 -0.0220 -0.1390
15626W        W32473  17.064   2.127  11.110 -0.0108  0.0714 -0.0686
15627W        W32474  16.108  17.607  12.681  0.1036 -0.0469  0.0935
15628W        W32475  11.685  10.066   3.912  0.2819  0.1496 -0.0745
15629W        W32476  14.346   5.965   2.624  0.0065  0.2374  0.1150
15630W        W32477   6.108  16.376   4.602 -0.0795  0.1552  0.0611
15631W        W32478  10.337   2.952  12.841  0.0931 -0.1209 -0.2533
15632W        W32479  11.794  10.158   9.534 -0.0269 -0.0544 -0.3190
15633W        W32480   7.739  13.411  10.709 -0.0489  0.0131  0.1746
15634W        W32481   0.278   5.966   3.968 -0.0041  0.1282 -0.3313
15635W        W32482   0.860   1.064  12.729  0.3210 -0.0071 -0.1836
15636W        W32483   8.549   2.816   9.931  0.0990  0.1651  0.1923
15637W        W32484   9.096   9.393  11.354  0.2233  0.1631  0.2201
15638W        W32485  10.021   0.409  12.887 -0.0012  0.2913  0.0351
15639W        W32486  15.114  12.970   3.535  0.0173 -0.1937 -0.3465
15640W        W32487  18.848  11.807  14.405  0.0953 -0.0673 -0.2689
15641W        W32488   9.204   3.758   1.111 -0.1991  0.1980  0.0830
15642W        W32489  16.860  12.320  12.714  0.1491  0.0649 -0.1180
15643W        W32490  16.625   4.067  13.246  0.1097 -0.0874  0.1642
15644W        W32491   6.131   1.171   0.731  0.1879  0.0399  0.0829
15645W        W32492  13.642  11.612  14.238  0.0680  0.0206 -0.0327
15646W        W32493  13.745  17.198  14.668  0.0079 -0.0957  0.1651
15647W        W32494   3.581   7.416  13.152  0.2616 -0.0639  0.2194
15648W        W32495   6.234   4.870   1.498 -0.2174  0.0251 -0.0578
15649W        W32496  12.026  14.880  12.994 -0.1004 -0.3764 -0.1052
15650W        W32497   6.074  16.864   2.799 -0.2719 -0.0382  0.0623
15651W        W32498  17.781   2.651  11.397  0.4422 -0.0616 -0.1827
15652W        W32499  10.198  17.391   2.963  0.5110 -0.2629  0.0441
15653W        W32500   4.594  17.245  12.162  0.2439 -0.0065 -0.0347
15654W        W32501  18.373  17.773  10.896  0.0062  0.3476  0.0096
15655W        W32502  11.704  11.978  13.118 -0.3235  0.2053  0.1475
15656W        W32503  11.872   9.623  11.884 -0.2144  0.2534 -0.3231
15657W        W32504   7.842  15.162  10.221 -0.0799  0.0480  0.2034
15658W        W32505   5.412  14.643  13.584  0.0050 -0.1411  0.1755
15659W        W32506   1.491   2.165   2.850 -0.3894 -0.1234 -0.1389
15660W        W32507   1.266   3.000   3.240  0.1874 -0.2053 -0.0511
15661W        W32508   6.336   3.211  12.148 -0.3762  0.0583 -0.1433
15662W        W32509  16.837   8.136  14.856 -0.0870  0.0224  0.0156
15663W        W32510   4.260   8.485   0.706  0.2637 -0.2440 -0.2366
15664W        W32511  10.368  13.159   2.494  0.0635  0.0508 -0.1865
15665W        W32512  11.072  13.710   4.098  0.0982  0.1944  0.0207
15666W        W32513  16.523   1.828  12.983  0.1031 -0.0926  0.0597
15667W        W32514   0.335   5.158   2.224 -0.1538  0.0043  0.1031
15668W        W32515  16.457  18.543   0.871 -0.3697 -0.0524 -0.2974
15669W        W32516  14.754   0.073   1.038 -0.1401 -0.1494 -0.2201
15670W        W32517   3.844  15.538   0.487  0.2564  0.4066 -0.0366
15671W        W32518  11.698  16.820  13.862 -0.2833 -0.2340  0.0416
15672W        W32519  10.811  11.782   2.038 -0.0340 -0.1011 -0.1901
15673W        W32520  13.747   9.830  14.386  0.0896 -0.0054  0.1185
15674W        W32521  10.032  11.011   2.879 -0.1711  0.1648 -0.2182
15675W        W32522   8.016  18.491  12.288  0.1472 -0.0647 -0.1667
15676W        W32523  14.678  15.360   5.360 -0.0360 -0.3516 -0.0866
15677W        W32524   9.062  13.786  10.864  0.2765 -0.0603 -0.2040
15678W        W32525   8.166   1.983   1.506 -0.0065 -0.1965  0.0926
15679W        W32526  15.285  17.360  14.073  0.2262 -0.1361  0.1279
15680W        W32527  12.656  10.023   9.901 -0.0519  0.1098  0.2004
15681W        W32528  16.214  10.638   3.352 -0.3142 -0.2458  0.0772
15682W        W32529   6.235   1.499   1.632 -0.3028  0.0150  0.0893
15683W        W32530  16.155   3.575   1.853 -0.1130 -0.0405  0.1118
15684W        W32531  13.634  10.957   0.513  0.1404  0.3554 -0.1115
15685W        W32532  12.948  15.679  13.039  0.1577  0.2470  0.0917
15686W        W32533   8.186  16.269  13.064  0.2316 -0.0513 -0.1551
15687W        W32534   3.161   9.354   0.368 -0.3232 -0.4623 -0.1134
15688W        W32535   1.077  10.882  10.052  0.3713  0.0332 -0.0726
15689W        W32536  11.539  19.009   0.266  0.0300  0.0068 -0.0544
15690W        W32537  14.226  14.735   3.849  0.1786  0.0478  0.0782
15691W        W32538   8.058   1.398  12.777  0.2481  0.0051  0.1586
15692W        W32539   5.659   3.111  10.767 -0.0102 -0.2849  0.3021
15693W        W32540   8.470  11.912  10.335 -0.3824 -0.2041 -0.1544
15694W        W32541   8.718  13.636  13.445  0.0898  0.2390 -0.0458
15695W        W32542  18.956   6.002  13.737 -0.0679  0.0847 -0.0362
15696W        W32543   1.875   8.653   4.449  0.0063  0.2035  0.0192
15697W        W32544   5.115   6.594   0.248  0.1262 -0.3417  0.0502
15698W        W32545   7.969  13.870  14.965 -0.1962  0.2486 -0.1797
15699W        W32546  15.371  15.166  12.072  0.0643 -0.2542 -0.3742
15700W        W32547  17.424  18.657  11.639  0.1097 -0.2681 -0.0775
15701W        W32548   3.889  15.555  12.926 -0.0210  0.2280 -0.2884
15702W        W32549  10.660   5.334   2.812 -0.1394  0.0543 -0.1846
15703W        W32550   6.153   2.963  12.551 -0.1027  0.0109 -0.1295
15704W        W32551  13.341  18.549   1.034 -0.1408 -0.1758  0.0066
15705W        W32552   4.556  18.248  13.363  0.0541 -0.0511 -0.3410
15706W        W32553  13.565  10.573  11.584 -0.1129 -0.1619 -0.1490
15707W        W32554  14.227   6.182   4.290  0.0846 -0.1971 -0.4325
15708W        W32555   0.135  14.521  12.858  0.4510  0.3442 -0.1048
15709W        W32556  16.513   7.642  11.011  0.0553  0.0351 -0.2003
15710W        W32557   6.350  14.521   1.021 -0.0522 -0.2134 -0.0078
15711W        W32558  19.164   0.589  12.407  0.0851 -0.1876 -0.2016
15712W        W32559   3.250   7.747  11.763  0.1044 -0.5486 -0.1702
15713W        W32560   7.146   4.713   3.228  0.4624 -0.2162 -0.1084
15714W        W32561   6.871   2.754   4.749 -0.1356  0.0746 -0.1353
15715W        W32562   7.881  10.594  12.455 -0.2010  0.1503 -0.1366
15716W        W32563   0.587  18.036  13.697 -0.2980  0.1096  0.1002
15717W        W32564   8.752  17.613   3.444  0.0141 -0.1379  0.0399
15718W        W32565   6.565  14.576   3.294  0.0661  0.4188  0.0085
15719W        W32566   3.884   5.061  10.583 -0.0394 -0.1664  0.5170
15720W        W32567   7.714   0.553   0.860 -0.2530 -0.1289 -0.2401
15721W        W32568  17.626   1.518   1.100 -0.1765 -0.0434 -0.0970
15722W        W32569  16.001   8.058   2.081  0.0256 -0.0918  0.2939
15723W        W32570  10.064  12.593  11.295 -0.2014 -0.0342  0.0790
15724W        W32571  17.215  12.317  12.234 -0.0047  0.0608 -0.2280
15725W        W32572  11.102  15.979   4.058  0.0250  0.0320  0.3104
15726W        W32573  15.706   1.154   3.515 -0.1164 -0.0532 -0.2316
15727W        W32574   5.331   5.544   3.416  0.0083 -0.1120  0.3852
15728W        W32575   3.181   2.274   3.237 -0.4831  0.0646  0.1843
15729W        W32576   4.487   4.504   0.658 -0.1258 -0.3112  0.0567
15730W        W32577  17.133  16.073  12.522 -0.1845  0.2241  0.1765
15731W        W32578   5.718  13.391  14.024  0.2739  0.0479 -0.2278
15732W        W32579  10.817  18.826  12.801  0.0009 -0.0468  0.3837
15733W        W32580   7.051   4.261   0.184 -0.0265  0.3443  0.1387
15734W        W32581  17.104   8.905  13.615  0.5272  0.2944  0.0595
15735W        W32582  19.221   5.217   0.736 -0.1455 -0.0411  0.0043
15736W        W32583   0.139   4.974   0.057  0.0873 -0.2042 -0.0737
15737W        W32584   6.566   0.234  14.796  0.0566  0.0863 -0.2488
15738W        W32585   7.437  14.340   3.765 -0.6674  0.2333 -0.0067
15739W        W32586   1.481   1.642   2.126 -0.1606 -0.6071  0.0797
15740W        W32587   0.867   1.012   3.769 -0.0474 -0.0641 -0.1099
15741W        W32588  10.640  17.650   0.343 -0.0578 -0.0785  0.0428
15742W        W32589  18.086  13.307   1.141  0.2948  0.0658 -0.0610
15743W        W32590   6.665  19.027   4.361 -0.1920 -0.1356  0.1121
15744W        W32591  15.281   0.118  12.389 -0.0728  0.3060 -0.1323
15745W        W32592   7.696  18.101  14.151 -0.2192 -0.0091  0.1200
15746W        W32593   1.011  13.976   5.024 -0.0675 -0.0875  0.1418
15747W        W32594   0.214  12.601  11.666  0.4154  0.1001  0.0009
15748W        W32595   4.534  18.447   0.339 -0.0168  0.2816 -0.0300
15749W        W32596   7.896  14.368   0.872 -0.1211  0.1086  0.1238
15750W        W32597   5.462  14.014  11.833 -0.1231 -0.4624 -0.0021
15751W        W32598   1.152   2.072   5.611  0.1245  0.1046 -0.4641
15752W        W32599  12.600   1.333   2.243  0.1298 -0.0765  0.0572
15753W        W32600   9.639  15.921   2.299 -0.0991  0.1901  0.2557
15754W        W32601   9.553  17.511   1.070  0.2339  0.2373  0.2206
15755W        W32602  10.039  16.297   0.279 -0.0331 -0.0414  0.0991
15756W        W32603  16.519  10.411  11.863  0.1233  0.0104 -0.0350
15757W        W32604  15.930  10.587   4.815 -0.0599  0.2090  0.0614
15758W        W32605   2.144  18.353  13.953  0.5366 -0.1148 -0.0179
15759W        W32606  13.362   7.848   9.285  0.0320  0.0012 -0.2541
15760W        W32607   4.680  17.808   1.259  0.1258 -0.4385 -0.0185
15761W        W32608  18.240   0.498   1.344  0.1283 -0.2282  0.2706
15762W        W32609  13.557  18.295   3.141 -0.1043  0.3591 -0.2115
15763W        W32610   0.802   0.502  12.213 -0.2220 -0.2684 -0.1639
15764W        W32611  10.431  13.466  10.727 -0.2983  0.1599 -0.0001
15765W        W32612  13.405   5.850  11.751  0.3038  0.1422  0.0310
15766W        W32613  17.425   4.063   5.098 -0.2302 -0.3157  0.0757
15767W        W32614   7.445  18.931   1.111 -0.0785  0.0703  0.0183
15768W        W32615   6.745  13.239  10.406 -0.2657  0.1167 -0.0330
15769W        W32616   4.642   1.904  13.596 -0.1725  0.0207  0.1338
15770W        W32617   4.495   8.111   0.439  0.0276 -0.2184  0.3187
15771W        W32618  12.603   6.586   4.400  0.0231 -0.1810 -0.2959
15772W        W32619  10.843   5.921  11.045  0.0081 -0.0962 -0.0685
15773W        W32620  11.174   6.095  12.150 -0.0765  0.0993  0.0211
15774W        W32621  14.747  11.629   4.079 -0.2778 -0.1326  0.0613
15775W        W32622   0.149   0.580  10.118  0.2236  0.1559 -0.0898
15776W        W32623  13.644   9.350  12.283 -0.4025  0.2265 -0.0019
15777W        W32624   9.258  14.657   4.260 -0.0635 -0.2284 -0.3100
15778W        W32625   2.842  17.326  11.721  0.2458  0.0778 -0.0397
15779W        W32626   7.916  16.219   1.081 -0.0690 -0.0273 -0.0643
15780W        W32627  14.435   3.660  13.860  0.1630 -0.1612  0.2323
15781W        W32628   1.145   7.504  11.094  0.1501  0.0536 -0.2157
15782W        W32629   4.586   7.900   4.683 -0.0652  0.1290 -0.1718
15783W        W32630   7.078  16.885   2.384 -0.0905 -0.0712 -0.0083
15784W        W32631  13.941   7.044  13.900  0.2599  0.1142  0.4050
15785W        W32632   9.735  18.330   2.712  0.1962  0.2940  0.0720
15786W        W32633   4.602  18.421  13.799 -0.0519 -0.0775  0.3771
15787W        W32634   7.617  13.877  14.509  0.0140 -0.2284  0.1790
15788W        W32635  12.791  16.389  12.007 -0.0947 -0.2039 -0.1186
15789W        W32636   0.821   7.872  13.020  0.5935  0.3225 -0.0040
15790W        W32637   2.688  17.834  12.752 -0.0166  0.3826  0.0121
15791W        W32638  10.540   6.874   1.433  0.2530  0.0546  0.2403
15792W        W32639  14.569  13.856  13.832 -0.0383  0.1815  0.0311
15793W        W32640   9.108  12.457  12.140 -0.3656 -0.1049  0.0400
15794W        W32641  10.336  18.684   0.190 -0.4319 -0.0030  0.5664
15795W        W32642   0.579   1.358   4.957 -0.4365  0.1535  0.0285
15796W        W32643  13.845   5.200   1.535  0.0875 -0.0066  0.2937
15797W        W32644  17.761   7.104   2.298  0.0566 -0.0151 -0.0194
15798W        W32645   8.500  16.728  10.238  0.0117 -0.1595 -0.2678
15799W        W32646   2.758   3.564   0.533  0.0445 -0.0130  0.3956
15800W        W32647   0.787  10.281   1.753  0.0266 -0.1039 -0.0707
15801W        W32648  15.581  10.757  12.389  0.1489  0.2821 -0.1766
15802W        W32649   7.940   8.296  13.163  0.1121 -0.1764 -0.0865
15803W        W32650  13.635  14.484   2.530 -0.0955  0.0818 -0.2290
15804W        W32651   3.851   8.369  13.346 -0.1686 -0.3022  0.0661
15805W        W32652   0.094   2.161  12.674 -0.3465 -0.0890 -0.0170
15806W        W32653  12.258   8.741   1.498  0.4857 -0.0222 -0.4975
15807W        W32654  14.451   8.763   4.793  0.2368  0.1537 -0.1992
15808W        W32655   6.291  13.936   0.839 -0.0129  0.0653  0.1602
15809W        W32656   2.150  16.844   4.196  0.3159  0.1575  0.4884
15810W        W32657  13.336  16.762   2.519 -0.1622 -0.2331 -0.3192
15811W        W32658  15.751  15.886   0.856 -0.0710 -0.0068 -0.3170
15812W        W32659  11.318   6.827   1.105 -0.0140 -0.0207  0.2939
15813W        W32660  10.111   6.642  14.622  0.2560  0.2908 -0.3127
15814W        W32661   5.569   9.411   3.464  0.0703 -0.2206 -0.2211
15815W        W32662  10.539   8.645  13.616 -0.0086  0.0948  0.0884
15816W        W32663   4.242  15.061  11.193 -0.3803  0.2877 -0.1902
15817W        W32664   7.980   0.641   1.307  0.0990  0.2129  0.1292
15818W        W32665   8.107   2.175  13.295  0.0753 -0.0703  0.1717
15819W        W32666   7.830   3.405   3.121  0.2316 -0.0879 -0.1730
15820W        W32667   9.998   1.831  11.629  0.0383  0.1928 -0.0764
15821W        W32668  11.319   4.960   2.655  0.2102  0.2873  0.0528
15822W        W32669  16.468   0.312   0.592 -0.0581  0.0744  0.2694
15823W        W32670  18.582  14.578  10.773  0.1964  0.1150  0.2192
15824W        W32671  19.119   3.199   9.544 -0.1725 -0.1699 -0.0410
15825W        W32672   9.373   8.664   3.890 -0.3014  0.1487  0.3665
15826W        W32673  18.164   5.912  11.688  0.0014  0.1350 -0.0623
15827W        W32674   5.406  12.009   1.883  0.2309 -0.0984  0.0722
15828W        W32675   9.686   7.293   2.727  0.0098  0.0538  0.0148
15829W        W32676  14.432   7.732   4.776 -0.0146  0.0940 -0.1542
15830W        W32677  13.410   8.518  12.385  0.0996  0.0514  0.0250
15831W        W32678   3.803  11.569  12.392  0.1801 -0.2393  0.0341
15832W        W32679  17.149   6.430   3.574 -0.2385 -0.2948 -0.1002
15833W        W32680   3.159   9.769   3.981  0.0673  0.0947 -0.0983
15834W        W32681   6.218  12.267   4.090  0.1815  0.1606  0.0620
15835W        W32682   8.580   1.666   4.764  0.2034  0.0458 -0.0779
15836W        W32683   1.212  15.730  14.674  0.0955  0.2209  0.1096
15837W        W32684  18.700  18.390  12.648 -0.0729  0.1075 -0.2518
15838W        W32685   0.264   6.785  10.480 -0.1170 -0.0645  0.0581
15839W        W32686  18.577  11.441   2.129 -0.0552  0.2015  0.0082
15840W        W32687  16.252  16.419  11.778  0.1680  0.0729  0.0407
15841W        W32688  17.781  10.325   4.037  0.0441 -0.1809  0.0526
15842W        W32689  18.020  16.805   2.539  0.3707  0.1201 -0.1472
15843W        W32690  12.795   3.445  14.643  0.0307 -0.0321  0.0489
15844W        W32691  13.147  15.330  13.255 -0.1886  0.2803 -0.3853
15845W        W32692  11.102   8.755  14.378 -0.0504  0.0582  0.2197
15846W        W32693  17.643  12.713  10.233 -0.1703  0.0147 -0.2316
15847W        W32694   8.779   2.894   2.882 -0.2549  0.2052  0.1498
15848W        W32695  12.470  15.327  14.002 -0.1693  0.0565  0.0001
15849W        W32696   0.788   1.679  10.581 -0.0558  0.3775 -0.0459
15850W        W32697  16.010   4.670   1.692 -0.3841 -0.1944 -0.2944
15851W        W32698  14.612  13.336  12.435 -0.1390  0.2886 -0.0393
15852W        W32699   3.578  19.281  11.874  0.0750 -0.2379  0.1051
15853W        W32700   1.302   3.178  12.217 -0.1215  0.1782  0.0468
15854W        W32701   0.470   6.778  13.741 -0.1705  0.1004 -0.2114
15855W        W32702  15.327   0.066   3.801 -0.0336  0.1760  0.1675
15856W        W32703   9.678   2.562  13.245 -0.1266  0.0560 -0.0954
15857W        W32704  12.188   4.974   4.146 -0.5231  0.0830  0.0659
15858W        W32705  18.380  10.233   2.785 -0.0060 -0.2372 -0.1649
15859W        W32706  14.680   0.395  14.288  0.2215 -0.0521 -0.3519
15860W        W32707   9.013   9.005   3.700  0.0465 -0.1822 -0.0073
15861W        W32708   4.645  10.774   1.379 -0.0307  0.3281 -0.0480
15862W        W32709   3.721   8.137  10.294  0.2242 -0.1064 -0.1472
15863W        W32710   6.886   6.175   1.223  0.1255  0.1212  0.1037
15864W        W32711   2.298   9.068   2.979 -0.1817  0.2736  0.1386
15865W        W32712  14.434   2.380   4.648  0.4125  0.1269  0.2397
15866W        W32713  13.289  10.150   4.713 -0.0152 -0.3060  0.0429
15867W        W32714   1.904   3.953  11.093  0.2261 -0.1991 -0.0625
15868W        W32715  11.684  10.418   2.927  0.0399  0.1787  0.1018
15869W        W32716   9.136  15.213   3.337  0.0731  0.0035  0.4204
15870W        W32717   1.989  13.036   0.405 -0.2802 -0.2459 -0.4180
15871W        W32718  18.184   0.757  12.690 -0.1269 -0.3062 -0.0124
15872W        W32719   0.347  17.768  14.113 -0.1205  0.1268 -0.1894
15873W        W32720   7.633  18.389  11.886 -0.2099  0.1019 -0.1211
15874W        W32721  10.757   6.565  13.627  0.1652  0.0966  0.2752
15875W        W32722   3.557   9.026  14.012 -0.1249 -0.0952  0.2112
15876W        W32723   3.123   1.402   4.633 -0.3405  0.0450 -0.1743
15877W        W32724  16.801  11.064  10.732 -0.0447 -0.0738 -0.0400
15878W        W32725   7.772   9.254  10.230 -0.0167  0.3721  0.0309
15879W        W32726   4.121  13.559  11.583  0.1709  0.2949 -0.2011
15880W        W32727  18.132  11.137   4.172 -0.1074 -0.2459 -0.1153
15881W        W32728   8.310   3.044  12.617 -0.1892 -0.2183  0.2972
15882W        W32729  10.956   1.745   1.247  0.0639  0.1539  0.0962
15883W        W32730   4.114  17.218  12.311 -0.0340  0.2608  0.2565
15884W        W32731   2.540   3.621  11.482  0.0770  0.1519  0.1263
15885W        W32732  13.181  14.682  14.138  0.0376 -0.1038 -0.1536
15886W        W32733  11.569   7.793  13.047  0.0329  0.2465 -0.0191
15887W        W32734   6.425   6.729  14.639  0.1849  0.1607 -0.0655
15888W        W32735   7.656   9.779   4.212  0.3772  0.0214 -0.4530
15889W        W32736  17.180   8.905  10.230  0.0706 -0.0779  0.0560
15890W        W32737   2.455  16.483  13.919  0.1050  0.3006  0.1529
15891W        W32738  11.738  17.391   1.506  0.1345 -0.0136  0.0441
15892W        W32739   7.999  10.895   4.167 -0.0069  0.2182 -0.1342
15893W        W32740   4.173   5.594  11.422  0.0038  0.0086  0.0399
15894W        W32741  14.853   1.546   2.210 -0.1227 -0.0434  0.4068
15895W        W32742  13.921  15.526   3.207  0.1039  0.2371 -0.0496
15896W        W32743   9.837   1.090   9.721  0.3374 -0.1539  0.2561
15897W        W32744  16.782   8.360   4.851 -0.2380  0.3042  0.0835
15898W        W32745  12.503  13.055   1.760 -0.3043  0.0467 -0.1328
15899W        W32746   7.387   6.935  10.543 -0.0414  0.0718  0.1885
15900W        W32747  14.542   1.255  12.236  0.2535  0.1945 -0.1313
15901W        W32748   2.815   9.223  14.485  0.5124  0.1014 -0.1998
15902W        W32749  12.573  11.137   0.312  0.1326  0.2693 -0.0110
15903W        W32750   0.973   1.301  11.838  0.1062  0.1996  0.0969
15904W        W32751   2.092  17.868  13.786 -0.2140  0.0020 -0.3480
15905W        W32752   5.128   0.895  12.748  0.1040  0.0587  0.0441
15906W        W32753   5.751   9.525   2.234  0.0903  0.2265  0.2314
15907W        W32754  18.803  15.434   5.508  0.1613  0.0344 -0.1364
15908W        W32755  14.674   5.096   2.479  0.0947 -0.0864 -0.3492
15909W        W32756  13.776   5.529  13.768  0.0343  0.4308 -0.0721
15910W        W32757  11.761   0.128   0.314 -0.2069 -0.4371  0.1631
15911W        W32758  17.373   4.378  13.753 -0.0045  0.3395 -0.0119
15912W        W32759   1.316  18.887   4.298  0.0196  0.2345  0.1165
15913W        W32760   7.416  17.502  12.348  0.2384 -0.0473 -0.0706
15914W        W32761  12.942   9.558   3.917 -0.1149  0.0834 -0.2016
15915W        W32762   6.664  11.805  11.621 -0.0083 -0.2907  0.0340
15916W        W32763  14.150   6.626  14.068  0.0232  0.1050  0.3100
15917W        W32764   1.679   4.511  14.980 -0.1242  0.2082 -0.1351
15918W        W32765  18.602  16.915   3.965  0.1232 -0.1941 -0.1370
15919W        W32766   9.301   4.058   4.787 -0.1713 -0.2886 -0.0935
15920W        W32767   7.101  17.630  10.666  0.0698 -0.1380 -0.1929
15921W        W32768   0.517   2.889  12.888 -0.1697  0.1097  0.1491
15922W        W32769  18.227   8.002   1.869  0.1427 -0.2639 -0.0020
15923W        W32770  16.835  17.323   4.342 -0.0425  0.0443 -0.2276
15924W        W32771   8.801   9.293   3.339  0.2207  0.1305  0.0243
15925W        W32772   9.344  17.794  13.566  0.1735  0.0209  0.0472
15926W        W32773   4.480   7.708  14.180  0.0449  0.2016 -0.0853
15927W        W32774  14.187  10.675   3.808 -0.1937 -0.1158  0.2933
15928W        W32775   2.569   2.633   3.991 -0.0361 -0.0997 -0.1416
15929W        W32776   3.696   5.930   2.512 -0.0900  0.0882  0.1530
15930W        W32777  11.612   6.894  11.897  0.0150  0.1789  0.3503
15931W        W32778   2.945   3.760  11.121 -0.2008  0.0267 -0.0421
15932W        W32779   7.230   5.051   1.593  0.0417 -0.0255 -0.1495
15933W        W32780   1.761  10.965   0.058 -0.1639  0.4109  0.0413
15934W        W32781  12.498   2.005   0.427  0.1184 -0.0324 -0.1737
15935W        W32782  10.307   3.512   3.662 -0.2229 -0.0393 -0.1711
15936W        W32783   4.976   6.633   3.525  0.0013  0.0937  0.1809
15937W        W32784  13.874   6.963  11.543 -0.0679 -0.1880 -0.1916
15938W        W32785   1.762  17.742   2.609  0.1957  0.0594  0.2041
15939W        W32786   2.192   2.909  12.260 -0.0534  0.0646  0.0018
15940W        W32787  18.935   9.628   0.873  0.1368 -0.2227  0.1229
15941W        W32788  18.460  18.922  13.796 -0.0191  0.0867 -0.0456
15942W        W32789  12.045  11.962  14.758 -0.0748 -0.2117  0.3042
15943W        W32790   6.018   7.948   1.375  0.0828 -0.1289  0.0129
15944W        W32791   2.061  15.024   1.081  0.3064  0.1755  0.2180
15945W        W32792  13.361   5.809  13.695  0.3366  0.2113 -0.1648
15946W        W32793  18.377   7.515   0.535  0.2161  0.1125 -0.0463
15947W        W32794   9.708  16.839  14.792 -0.1784 -0.5181 -0.0035
15948W        W32795  17.830   1.781   3.728 -0.0794 -0.1731 -0.1068
15949W        W32796  14.106  11.785  14.902 -0.0267  0.0659 -0.0275
15950W        W32797  18.884  13.171  11.140  0.1521 -0.2523  0.5342
15951W        W32798   6.748   3.309  14.767  0.2307 -0.0394 -0.1854
15952W        W32799   1.601  12.714   2.788 -0.1645 -0.2012 -0.1153
15953W        W32800   3.921  12.009   9.324 -0.1165 -0.0964 -0.0082
15954W        W32801  12.950  11.107  13.802 -0.0301  0.0790  0.1722
15955W        W32802   6.187   7.700   3.856  0.0392  0.2461 -0.2944
15956W        W32803   5.982  16.518  11.129  0.1518  0.1801 -0.2968
15957W        W32804  11.740   9.596  12.964 -0.1974  0.0028  0.1286
15958W        W32805  16.077   2.987  12.241  0.0049 -0.3094  0.1062
15959W        W32806   7.817  17.104  10.613  0.0244  0.4182 -0.0427
15960W        W32807  12.546  15.556   2.270  0.1834  0.3842 -0.0310
15961W        W32808   9.851  10.038   1.250 -0.3270  0.2441  0.2798
15962W        W32809  17.918   9.944   0.631 -0.0468  0.0687  0.1451
15963W        W32810   3.759   6.481  14.624  0.2623 -0.2080  0.1431
15964W        W32811  17.075  11.003   4.927  0.0316  0.3109 -0.3403
15965W        W32812  15.425  13.294   3.718 -0.2751  0.0083 -0.0841
15966W        W32813   0.972  17.127  14.976 -0.4134  0.1718  0.1040
15967W        W32814  17.722  14.793   0.922 -0.0079 -0.2986 -0.1798
15968W        W32815  12.722  14.155  14.784 -0.0717 -0.3476 -0.1827
15969W        W32816  18.255   7.984  11.993  0.2593 -0.2346  0.2558
15970W        W32817   9.050  10.073   1.696 -0.0251 -0.0535 -0.2574
15971W        W32818   6.285  10.506   1.079  0.1882  0.2229  0.1957
15972W        W32819  13.415   3.399   1.939 -0.2020 -0.3689 -0.0810
15973W        W32820   7.806   1.209  13.280 -0.2381 -0.1432  0.0432
15974W        W32821   5.820   5.008  11.035  0.3099  0.1863  0.2785
15975W        W32822  19.117   2.736   2.160 -0.2953 -0.1257  0.1402
15976W        W32823  14.497   4.332   2.502 -0.1706 -0.3874 -0.2658
15977W        W32824  13.125   3.024   1.639 -0.0672 -0.1151  0.2519
15978W        W32825   2.998  13.173   0.165  0.1914 -0.1567  0.0444
15979W        W32826  14.152   5.377  13.125 -0.2097 -0.2866 -0.0131
15980W        W32827  10.576  14.895  12.246 -0.3412 -0.0277 -0.2420
15981W        W32828  10.746   3.593   1.094  0.3475 -0.1017  0.1227
15982W        W32829   5.512  18.294   1.481 -0.3703  0.0906 -0.0306
15983W        W32830  11.333  11.665  11.374  0.0681  0.0499 -0.2896
15984W        W32831  14.929   1.006   2.171  0.0340 -0.1280 -0.0762
15985W        W32832  15.050  16.531  12.040  0.0382 -0.3681 -0.1377
15986W        W32833   2.372   9.306  11.086  0.0375 -0.1999  0.1061
15987W        W32834   0.149  14.693   3.370 -0.3073 -0.1093  0.4624
15988W        W32835  15.872   5.801   3.485  0.1769  0.3229 -0.0867
15989W        W32836   1.554  14.812   1.850  0.0594  0.0965  0.0126
15990W        W32837  17.252   1.168  14.810 -0.1092 -0.2720 -0.0986
15991W        W32838  13.009   9.216  12.042 -0.1263 -0.1293 -0.2990
15992W        W32839   4.722  11.103   0.074  0.1474  0.1423  0.0417
15993W        W32840  15.116  10.401   4.199  0.0836 -0.1192 -0.0365
15994W        W32841   3.930   3.222  13.982  0.1165 -0.0432 -0.0334
15995W        W32842  14.193  15.082   0.107  0.0259 -0.0978 -0.1874
15996W        W32843   9.527  16.534   5.540 -0.1962 -0.1829  0.1242
15997W        W32844  14.003  18.191  10.200 -0.3138 -0.2468  0.1873
15998W        W32845   3.467   7.174   1.645  0.1149 -0.0244  0.1233
15999W        W32846  12.260   1.244   0.505 -0.1871 -0.0398  0.3481
16000W        W32847   1.485   2.700   1.622 -0.1833  0.2708 -0.0618
16001W        W32848  12.163  13.185  13.189 -0.3906  0.0494 -0.0343
16002W        W32849   8.016  11.772  10.498  0.3711 -0.3201  0.2235
16003W        W32850  12.015  17.142   0.325 -0.3737  0.2054 -0.1252
16004W        W32851   3.471   8.154  12.681  0.0931 -0.1870  0.1160
16005W        W32852   7.931  10.066  13.338 -0.2599  0.0055  0.1273
16006W        W32853   7.220   5.636  14.122 -0.2073 -0.0347 -0.0023
16007W        W32854  17.940  13.725  13.388 -0.1619 -0.1689  0.4270
16008W        W32855   9.205   6.146  10.920  0.0639  0.1671 -0.1868
16009W        W32856   3.054  17.009  13.209  0.2535 -0.2470  0.2559
16010W        W32857  17.689  14.392   3.045 -0.0770  0.1416 -0.0828
16011W        W32858  14.449  15.909   0.478 -0.1667 -0.2944  0.0171
16012W        W32859   9.197  16.575  14.352  0.0884  0.3970 -0.0314
16013W        W32860   7.451   7.051  13.971 -0.0417  0.2626  0.1406
16014W        W32861  16.206  16.985   4.384  0.0841 -0.2730 -0.1839
16015W        W32862   1.120   5.934  10.765  0.2676  0.3734  0.0769
16016W        W32863   4.164  15.899  14.142  0.1616 -0.0722 -0.0116
16017W        W32864   3.142   2.166   5.414 -0.3956 -0.0288 -0.2563
16018W        W32865  13.950   8.165   2.321  0.1645 -0.2048 -0.3215
16019W        W32866  16.591  12.373  11.222 -0.4746 -0.1955  0.1618
16020W        W32867  13.741   5.729  12.170  0.3756  0.0391  0.0008
16021W        W32868   0.465  13.659   0.507 -0.0856 -0.0004  0.0974
16022W        W32869  12.988   9.322   1.146 -0.0873  0.0850  0.4397
16023W        W32870  13.227   7.290   2.558  0.0312 -0.0651  0.2034
16024W        W32871  10.727  17.277   1.249  0.1880 -0.2540 -0.1396
16025W        W32872  16.320   1.880   4.430  0.0809 -0.4132 -0.0445
16026W        W32873   9.519  15.666   0.624  0.1608  0.0395 -0.1034
16027W        W32874   7.500   7.000  13.407 -0.1215  0.2205  0.0005
16028W        W32875  11.047  10.534  10.635 -0.3267  0.4124 -0.0673
16029W        W32876   3.026   8.294  12.380 -0.2914  0.0701  0.0137
16030W        W32877   8.721   8.393  10.379 -0.1552  0.1295  0.0187
16031W        W32878   7.219   3.721  13.933 -0.0982 -0.1263 -0.0670
16032W        W32879   0.428  12.212   4.803  0.0917 -0.0471 -0.4324
16033W        W32880   5.217  10.601   1.977  0.0537  0.1720 -0.1127
16034W        W32881   7.275  14.620   0.669  0.1588  0.1597  0.0524
16035W        W32882   7.532   8.238   2.267 -0.1164  0.3264 -0.2545
16036W        W32883   1.831  13.632   3.225 -0.0478  0.0552 -0.2040
16037W        W32884   7.939   4.768  12.652 -0.2137  0.0127  0.1690
16038W        W32885  15.633  12.406   3.207 -0.0220 -0.3273  0.1483
16039W        W32886  15.077  13.501  14.217  0.1022  0.2452 -0.0295
16040W        W32887  11.126   5.128   3.848  0.2816  0.2054  0.0007
16041W        W32888   4.720  12.754  14.213 -0.3201  0.0369 -0.0254
16042W        W32889  10.793   6.742   2.368  0.0550 -0.2328 -0.1473
16043W        W32890  18.146   7.161  13.350  0.1835 -0.2357  0.0139
16044W        W32891   0.444   9.594  10.424  0.0454  0.0280  0.3210
16045W        W32892  17.890  16.056   3.178 -0.0650  0.4224 -0.0188
16046W        W32893   7.238  12.464   4.818 -0.1206 -0.1497  0.1888
16047W        W32894   6.136   3.691   4.149 -0.0009 -0.0515 -0.1822
16048W        W32895   8.540   8.860  10.232  0.2450 -0.0554  0.2822
16049W        W32896  14.955   3.580   2.378 -0.2863  0.0147  0.2177
16050W        W32897   1.725  13.368  13.621 -0.1022 -0.1448  0.2099
16051W        W32898   4.404   0.041   2.152 -0.2440 -0.4673  0.0039
16052W        W32899  18.809  17.138   4.350 -0.2653 -0.0004  0.0622
16053W        W32900  10.451   8.473   9.913  0.2445  0.0093  0.2021
16054W        W32901  12.603   9.622  13.141  0.3084 -0.0447  0.0939
16055W        W32902   1.088  18.743  14.856  0.0508 -0.2245 -0.3866
16056W        W32903   8.670  15.393  13.107  0.0513 -0.0848 -0.2075
16057W        W32904   6.120   1.044  14.002  0.2205  0.1184  0.0834
16058W        W32905  15.130   9.744  11.174 -0.0620  0.2168 -0.0199
16059W        W32906   4.006  13.274   0.326  0.2042 -0.1639  0.1251
16060W        W32907   2.463  17.455   1.301  0.1522  0.0925  0.0573
16061W        W32908  17.331  17.749   2.156  0.1904  0.0996  0.1868
16062W        W32909   7.430  19.116   4.823 -0.1325  0.2773  0.1440
16063W        W32910  12.043  18.064   4.283 -0.2814  0.0067 -0.1371
16064W        W32911  18.085  16.019  14.909 -0.2474  0.0102 -0.0500
16065W        W32912  11.296  15.718  14.321  0.2849 -0.0027  0.1054
16066W        W32913  11.458  17.721   2.884  0.2405 -0.0733 -0.2233
16067W        W32914  16.899   5.790   2.940 -0.1051  0.1968 -0.1403
16068W        W32915   1.317  11.684  11.056 -0.0408 -0.2298 -0.0064
16069W        W32916  15.493  15.263  11.131  0.3264  0.2450 -0.1221
16070W        W32917   4.022  16.047  13.229 -0.0150 -0.2540 -0.3104
16071W        W32918  13.729   7.838  14.162 -0.3509  0.0380  0.2549
16072W        W32919   1.301  12.925   2.036 -0.0460  0.3174 -0.3078
16073W        W32920  12.318  12.456  13.058  0.0985 -0.0154 -0.0594
16074W        W32921   5.486  14.764  14.111 -0.2885 -0.0420 -0.2185
16075W        W32922  10.018  11.000   4.871 -0.0266 -0.0078  0.0319
16076W        W32923   4.457   5.124   3.211  0.0576 -0.0081  0.0662
16077W        W32924   4.650  14.602  11.998  0.3088  0.0865  0.0995
16078W        W32925  14.623  14.828  10.928  0.0416  0.1786  0.0096
16079W        W32926  15.133   8.518   9.774  0.1295 -0.0326  0.2303
16080W        W32927   9.533   2.006  11.540 -0.0107  0.0448  0.0380
16081W        W32928  19.095  12.046   0.620 -0.0656 -0.3089  0.3131
16082W        W32929  15.131   9.317   4.936 -0.0021 -0.1538 -0.0262
16083W        W32930  14.153  16.526   4.843  0.2288 -0.1815  0.1933
16084W        W32931   5.397  15.197  13.668 -0.0067  0.0203 -0.1842
16085W        W32932  11.784  15.267  10.335  0.1914  0.0395  0.3157
16086W        W32933  15.412  16.022  11.741  0.2235  0.1429 -0.1072
16087W        W32934  14.250   3.186  11.491 -0.0039 -0.0392  0.0779
16088W        W32935  18.257   3.964   2.081 -0.0915 -0.0950 -0.2390
16089W        W32936  10.794   6.884   1.877 -0.3437  0.0006 -0.0562
16090W        W32937  12.977  17.659   3.531 -0.0790 -0.0546  0.0066
16091W        W32938   9.750   1.681   0.409  0.0833 -0.0693 -0.1781
16092W        W32939   8.297   4.674  13.166 -0.2344 -0.3078  0.0782
16093W        W32940   4.402  11.215   0.526  0.1404 -0.1907  0.1326
16094W        W32941   1.167   4.546  14.521  0.1113  0.1337  0.0533
16095W        W32942   6.203  11.198   3.779  0.1854  0.0119 -0.1408
16096W        W32943  14.398  12.817  11.128  0.0815 -0.1832  0.1160
16097W        W32944   2.284   1.218  13.718 -0.2639  0.0566 -0.0684
16098W        W32945  15.705  16.809   0.951 -0.3039  0.1881 -0.0597
16099W        W32946   0.247   1.364   5.675 -0.2682  0.1398 -0.0084
16100W        W32947  12.872   5.922   2.831 -0.0229 -0.1724  0.2557
16101W        W32948  16.704   5.048  11.823  0.0811  0.0328 -0.1170
16102W        W32949  11.669  13.650   3.206  0.2134  0.0070 -0.0448
16103W        W32950  18.847  16.247   2.577  0.0891 -0.3558 -0.0650
16104W        W32951  14.515   4.973  12.145  0.1324  0.2025 -0.3106
16105W        W32952   0.680   4.968   3.373 -0.1273 -0.0178 -0.0433
16106W        W32953  11.543   1.470  14.996 -0.4492  0.0213  0.0966
16107W        W32954   0.310   7.037  11.206  0.1829  0.0468 -0.1573
16108W        W32955   4.505  13.741   3.883  0.1611  0.0042  0.1371
16109W        W32956  18.727   0.972   5.136 -0.1471 -0.3564  0.2184
16110W        W32957  12.039   8.747  11.854 -0.1746 -0.0906  0.0594
16111W        W32958   6.709   6.078   0.436  0.1424  0.0888  0.0237
16112W        W32959   7.986   4.930  14.233  0.1350 -0.0575 -0.0699
16113W        W32960   4.643  16.642  11.523  0.0865 -0.1401 -0.1690
16114W        W32961   6.511   7.571  14.168  0.0595 -0.3854 -0.0180
16115W        W32962   6.561  11.167  12.236 -0.1751  0.1207  0.1673
16116W        W32963   0.173   6.876   4.909  0.0826 -0.0609  0.1619
16117W        W32964  14.627  16.934   0.893  0.2442  0.3443 -0.2056
16118W        W32965  15.969   8.103  12.381 -0.0519  0.0637 -0.1086
16119W        W32966  15.504   3.643   1.705 -0.1009 -0.0592 -0.0703
16120W        W32967  10.262   5.149   0.048  0.2811 -0.3477  0.0237
16121W        W32968   6.554  17.142   5.030 -0.3916 -0.3706  0.2171
16122W        W32969   3.018   7.598  13.092  0.0424 -0.2138  0.0391
16123W        W32970  19.236   9.306   2.501  0.1706 -0.0842 -0.1328
16124W        W32971  14.575  11.522   0.893  0.1252  0.0826 -0.3600
16125W        W32972   0.940  15.431  13.459 -0.2067 -0.0313  0.0232
16126W        W32973   2.236   6.943  10.259 -0.2779  0.0582  0.0657
16127W        W32974  18.053  12.765  11.181 -0.3275  0.0245 -0.0467
16128W        W32975   4.669  10.435   3.236  0.0428  0.2818 -0.1906
16129W        W32976   9.875   2.663  12.815  0.1870  0.4328 -0.2456
16130W        W32977   5.255  15.188  14.160 -0.1954 -0.0931 -0.2361
16131W        W32978  18.054  13.505   9.569 -0.0003  0.2101  0.2047
16132W        W32979  13.667  13.284  13.416  0.0631  0.4922  0.0420
16133W        W32980  10.591   4.677  10.731  0.2478  0.2933  0.0087
16134W        W32981   5.829  17.947   4.193 -0.1630  0.1082 -0.0341
16135W        W32982   0.085   2.621   0.221 -0.1569  0.1047  0.1636
16136W        W32983   6.853  12.262   4.662  0.1967  0.1845  0.0699
16137W        W32984   3.182  15.149   5.089 -0.1315  0.4319  0.0158
16138W        W32985  10.475  19.197   1.252  0.0946  0.2057 -0.0544
16139W        W32986  17.802   4.491  11.374 -0.0706  0.0132 -0.1017
16140W        W32987   7.179   6.838  14.342  0.2656 -0.1001 -0.3672
16141W        W32988  11.702  15.116   4.840 -0.1042  0.0668  0.0199
16142W        W32989  17.726  13.586   5.245 -0.0892  0.1764  0.5795
16143W        W32990   4.712  16.458   1.735  0.1278  0.0129 -0.2821
16144W        W32991  16.781   3.919  11.164 -0.2002 -0.3954 -0.1080
16145W        W32992  18.272  16.430   0.213 -0.1268 -0.0239  0.0246
16146W        W32993   1.903  19.087  12.854  0.4898 -0.0852 -0.0090
16147W        W32994   3.754   5.653   0.099 -0.2037  0.3245  0.4094
16148W        W32995  19.114   9.469   3.897  0.1218  0.1749 -0.3426
16149W        W32996  16.898  15.973   3.727 -0.1137 -0.0217  0.1938
16150W        W32997   1.760  16.867   4.486 -0.1419 -0.0371  0.1196
16151W        W32998   5.698   1.200   4.944  0.2294  0.0454  0.3293
16152W        W32999   0.149  12.974   3.202  0.0415  0.0352 -0.1796
16153W        W33000  19.040   0.409   4.212 -0.1471  0.2238  0.1880
16154W        W33001   7.831  15.822  11.552  0.1367 -0.1778  0.0291
16155W        W33002   0.042   6.342   4.818  0.1303 -0.1639  0.0690
16156W        W33003  12.151  14.553  13.410  0.4211  0.0291 -0.0535
16157W        W33004  12.231   0.526   5.380 -0.2313 -0.1325 -0.1439
16158W        W33005   1.900   1.316   2.092  0.0157 -0.2664  0.0538
16159W        W33006  15.551   6.891   1.495 -0.2255  0.0822  0.0144
16160W        W33007  12.450   9.584  14.784 -0.0760 -0.0609  0.1678
16161W        W33008  11.418  14.426   0.968 -0.1806  0.0073  0.0167
16162W        W33009   9.720  13.023   3.487 -0.1268 -0.2042 -0.0870
16163W        W33010  14.299  13.936   0.469  0.1913 -0.0104 -0.0924
16164W        W33011  13.467  10.218  11.013  0.1700 -0.2856 -0.0024
16165W        W33012  17.822   6.086  10.471  0.2905  0.0428 -0.0181
16166W        W33013   6.656  18.924  12.911  0.2214 -0.0976  0.2014
16167W        W33014  16.159   5.173   2.259  0.1186  0.2995  0.3366
16168W        W33015   3.454  19.068   4.117  0.1923  0.0040  0.2661
16169W        W33016   4.686  13.671  14.158 -0.1187 -0.0939 -0.2855
16170W        W33017   9.277   2.517  11.773  0.1570  0.2111  0.3257
16171W        W33018   1.310   8.323  14.752 -0.0557 -0.0767  0.2480
16172W        W33019   6.355   8.908  12.488 -0.0191 -0.1398  0.1601
16173W        W33020  16.035  13.007   4.429 -0.1394 -0.0290 -0.2073
16174W        W33021   6.487   6.854   2.232  0.0061  0.1970 -0.3385
16175W        W33022   7.266   1.370  10.639 -0.0959  0.0632  0.1454
16176W        W33023   4.852   5.964  10.828 -0.0218 -0.2659 -0.0582
16177W        W33024  11.679  10.833   3.520 -0.4244 -0.1238 -0.3281
16178W        W33025  11.534  10.040  13.709 -0.0585 -0.3116 -0.0208
16179W        W33026   6.726   1.072  13.939 -0.0874  0.0144  0.1986
16180W        W33027   3.111   2.025   0.071  0.0666 -0.2929  0.0296
16181W        W33028   1.820  17.016  13.710 -0.3343 -0.0205 -0.3325
16182W        W33029  17.510  15.050   3.662  0.4189 -0.1662  0.0522
16183W        W33030   9.979   9.644   1.556 -0.1516  0.0091  0.0959
16184W        W33031   7.295  16.841   3.050  0.4536  0.1322 -0.1404
16185W        W33032  16.823   5.492  12.411  0.2643  0.0779  0.1345
16186W        W33033   0.832   9.440   1.469  0.0003 -0.1989 -0.1161
16187W        W33034   0.548  10.120  11.717 -0.3135 -0.2691  0.1559
16188W        W33035   7.130  15.244  13.249  0.0976  0.0709  0.2457
16189W        W33036   5.873  16.120   2.118  0.2363 -0.4222  0.0592
16190W        W33037  11.918  13.346   0.924  0.1766 -0.4250  0.2312
16191W        W33038   9.755  16.199   1.851  0.2662 -0.0122  0.2163
16192W        W33039   6.138   5.412  11.165  0.0144  0.2241 -0.0323
16193W        W33040  15.032   8.279   4.903 -0.0548 -0.0825 -0.0401
16194W        W33041  11.762  10.030  13.236 -0.1781 -0.3073  0.1063
16195W        W33042   1.287   0.371   1.458 -0.0503  0.1089  0.0855
16196W        W33043  11.866  14.710   2.344  0.2834 -0.1306 -0.0160
16197W        W33044   7.669  11.872  11.482  0.0889 -0.0439 -0.1672
16198W        W33045   4.689   8.308   5.250 -0.3722  0.0945  0.1215
16199W        W33046   4.790   0.563  11.057  0.0357 -0.0828 -0.0587
16200W        W33047  16.167   9.852   2.438  0.1648  0.5841 -0.2038
16201W        W33048   1.816  13.382   4.168  0.1496  0.1068  0.1685
16202W        W33049  19.078  13.252   2.836 -0.3365  0.0837  0.1422
16203W        W33050   6.774   4.216  11.879  0.0934 -0.2269 -0.1145
16204W        W33051   4.036  13.702  15.008  0.2865  0.3876 -0.1093
16205W        W33052   4.734  11.669   1.362 -0.0760  0.0414  0.1276
16206W        W33053   3.649  11.414   1.930 -0.1279  0.2959 -0.2896
16207W        W33054   7.429  19.085   9.844 -0.1896  0.1239  0.1172
16208W        W33055   6.588   8.225   1.953  0.2412  0.1081  0.0410
16209W        W33056  17.389  12.630   1.773 -0.0130 -0.0269 -0.3180
16210W        W33057  14.985   4.131  13.076 -0.1238  0.0480  0.0440
16211W        W33058   2.351   2.582  14.346 -0.2389 -0.0075 -0.1975
16212W        W33059   9.399   0.700   0.871 -0.1277 -0.1876 -0.2138
16213W        W33060   9.061   4.098   1.575 -0.2032 -0.0647 -0.1218
16214W        W33061  18.234   7.051   3.581 -0.1158 -0.0725 -0.0543
16215W        W33062   6.274  12.856   3.091 -0.0734 -0.2852  0.1578
16216W        W33063  14.203   8.323  11.836 -0.1567 -0.0067 -0.0725
16217W        W33064   0.804  18.280  13.182 -0.2131  0.0116  0.1173
16218W        W33065   3.211   9.540   2.761  0.0207 -0.1275 -0.1205
16219W        W33066   2.856  10.374  11.856  0.1350 -0.0119  0.1722
16220W        W33067   7.376  18.808   3.309  0.2587 -0.0108  0.0245
16221W        W33068   2.843   6.891   2.313 -0.2217  0.2411  0.0001
16222W        W33069  15.282   8.149   0.819  0.0344 -0.4167 -0.2137
16223W        W33070  16.482  15.890   0.905 -0.0599 -0.1332 -0.0375
16224W        W33071   8.740   9.992  13.803 -0.1584 -0.5362  0.1808
16225W        W33072   3.843   0.462  12.484  0.3232 -0.2096  0.0272
16226W        W33073  13.181   0.565   5.047 -0.0161 -0.4228 -0.1597
16227W        W33074   1.915   0.580   3.046 -0.2304 -0.0462  0.4192
16228W        W33075   9.690  18.320   3.728  0.1948 -0.0932 -0.0296
16229W        W33076  16.110   0.293   4.426 -0.0756 -0.0086 -0.0193
16230W        W33077   4.605  14.543  10.473 -0.1027 -0.1234 -0.0031
16231W        W33078  12.319   9.966   9.510 -0.0707 -0.0101  0.0312
16232W        W33079  18.004   2.665   3.575 -0.0952 -0.2578  0.0599
16233W        W33080   5.041   5.819  11.686  0.2192  0.1673  0.0169
16234W        W33081   6.964   5.085  12.944  0.3302 -0.3304  0.1055
16235W        W33082   8.134  18.862   3.647 -0.0705 -0.2324 -0.2098
16236W        W33083  11.325  12.769   4.277  0.2916 -0.1588  0.2981
16237W        W33084  13.675  17.571  12.212 -0.1821 -0.3083  0.1922
16238W        W33085   3.535   6.426   1.944  0.1217 -0.1767  0.1415
16239W        W33086   0.925  15.636   2.757  0.0326  0.0437 -0.0376
16240W        W33087   2.622   0.171   1.994  0.1248  0.2878 -0.2151
16241W        W33088  12.034   1.986   0.631 -0.0399  0.0407 -0.0680
16242W        W33089  12.199   1.487  13.129 -0.1382  0.1938 -0.3080
16243W        W33090  11.543   5.385   2.800  0.0120  0.1010 -0.1158
16244W        W33091   3.505  16.558  11.537 -0.3901 -0.0065  0.0692
16245W        W33092   6.547   3.023  13.366  0.0410 -0.3141 -0.0630
16246W        W33093   8.085  11.251  10.324  0.1071 -0.0490  0.1150
16247W        W33094   9.210  18.748  12.419  0.1233 -0.1991  0.0745
16248W        W33095   9.059   5.107  10.747  0.0621 -0.0821 -0.0307
16249W        W33096  12.030   2.416   1.842 -0.0368  0.0080  0.2376
16250W        W33097  13.397   7.375  13.341 -0.1697  0.0191 -0.0001
16251W        W33098  17.103   3.282   0.138  0.0362 -0.0481 -0.0128
16252W        W33099  10.938   7.844  13.163 -0.6409 -0.2816 -0.2007
16253W        W33100   6.872   9.692   2.848 -0.0222 -0.0163 -0.3521
16254W        W33101   3.174  13.403   1.240 -0.2407  0.1767 -0.0082
16255W        W33102   2.151   2.033  12.255 -0.0587  0.0956  0.1438
16256W        W33103  17.921   5.355   3.027  0.2473 -0.1922  0.1471
16257W        W33104   2.552  11.507  12.224  0.0075  0.0747 -0.0227
16258W        W33105   5.914   9.940   0.152  0.0573  0.0948 -0.2360
16259W        W33106   8.861   4.564   1.951  0.0310  0.0729 -0.0393
16260W        W33107   8.254  15.246   5.130 -0.1850 -0.0127  0.0243
16261W        W33108   9.178   7.089   2.825  0.2666  0.0446 -0.2898
16262W        W33109  16.028  12.916   2.665  0.1803  0.0720  0.1031
16263W        W33110  13.502   8.888  12.056 -0.2106 -0.0328  0.0906
16264W        W33111  13.525   1.960  11.912  0.1864  0.0917 -0.1623
16265W        W33112  12.432   7.600  14.662  0.3352 -0.1442 -0.0103
16266W        W33113  12.534   0.596  11.852 -0.0380  0.0702 -0.0290
16267W        W33114   4.375  11.065  13.266 -0.0868  0.0356  0.1677
16268W        W33115  10.854  10.052  10.491 -0.0775 -0.2768  0.0447
16269W        W33116  15.439  10.391  12.742 -0.1282 -0.3348  0.1527
16270W        W33117  16.637  18.402  12.997  0.2133 -0.0175 -0.0728
16271W        W33118  11.264  18.968  14.808 -0.1650 -0.0609 -0.0521
16272W        W33119   1.775   4.665  14.468 -0.1843 -0.2584 -0.0147
16273W        W33120   8.719  13.986  12.541 -0.2602  0.0993  0.1428
16274W        W33121  13.745  14.425  11.725 -0.4546  0.1910 -0.1421
16275W        W33122  11.410  15.295  12.946 -0.2184  0.0437 -0.2782
16276W        W33123   2.370  18.412   4.109 -0.0445  0.4163 -0.0173
16277W        W33124   6.686  10.215   4.023  0.0573  0.3198 -0.4553
16278W        W33125   7.937   4.002  12.567  0.0465 -0.3213  0.2666
16279W        W33126  10.024  10.092  11.876  0.1501 -0.0384 -0.1041
16280W        W33127  15.051   6.734  13.975  0.0657  0.0250  0.3418
16281W        W33128  16.775  11.589   0.277 -0.1406 -0.2213  0.1918
16282W        W33129  13.330   0.606  12.230  0.0441 -0.0706 -0.1659
16283W        W33130   3.555  14.302  14.455 -0.1152  0.2207 -0.2584
16284W        W33131  18.883   8.777  11.838 -0.2033  0.2309 -0.1622
16285W        W33132   5.984  15.840  11.001  0.0583 -0.0784 -0.0602
16286W        W33133   6.760   2.800   1.541 -0.2828 -0.0764 -0.5200
16287W        W33134   9.528   0.377  12.980  0.0975 -0.2246 -0.0125
16288W        W33135  17.192   3.706  14.323  0.2675 -0.1849 -0.0515
16289W        W33136  15.844   7.637  12.163 -0.2546 -0.0220  0.2159
16290W        W33137   2.889  12.060  14.251  0.0922  0.0015  0.0467
16291W        W33138  15.144   0.657  10.958 -0.0136 -0.0199  0.2316
16292W        W33139   9.244  14.881  13.634 -0.3039 -0.3390 -0.0423
16293W        W33140   1.557   5.312  11.796 -0.1100  0.1680 -0.2450
16294W        W33141   3.155   1.889   4.993 -0.1417 -0.0653 -0.0925
16295W        W33142  13.882  12.170   0.448 -0.0619 -0.1800 -0.0180
16296W        W33143  15.713   6.200  13.068 -0.0040  0.0733 -0.0211
16297W        W33144  15.682  10.259   4.008  0.4421 -0.0220  0.1654
16298W        W33145  18.795   1.508  12.946 -0.1739 -0.4179  0.0422
16299W        W33146  10.525  17.545  13.183  0.1064 -0.0131 -0.2171
16300W        W33147  14.297  10.600   4.267  0.0221 -0.2786 -0.1729
16301W        W33148  16.855  11.385  10.154 -0.2685  0.2998 -0.0458
16302W        W33149  10.574  13.158   3.034 -0.2146  0.3485 -0.0194
16303W        W33150  16.376   2.866   0.675  0.2063 -0.1511  0.0889
16304W        W33151  17.016  17.266   2.108  0.0251 -0.1505  0.0613
16305W        W33152  10.274  13.034  11.261 -0.1051 -0.2358  0.2230
16306W        W33153   0.062   5.591   0.346 -0.0017 -0.1222 -0.1204
16307W        W33154  18.193  16.850  13.444  0.1303 -0.0041 -0.2084
16308W        W33155  12.703  11.910  11.087  0.1908  0.0486 -0.0028
16309W        W33156   4.204   7.664  11.661  0.2727  0.0515 -0.0804
16310W        W33157  17.461  12.168   1.455  0.1714  0.0022 -0.0408
16311W        W33158   0.667  17.766  11.972 -0.0346 -0.1836 -0.1527
16312W        W33159  19.029  16.674   5.503 -0.2527  0.4116 -0.1218
16313W        W33160   1.561   0.064  14.516 -0.0299 -0.0871  0.0932
16314W        W33161  16.259  13.245   1.215  0.1651  0.1603 -0.0943
16315W        W33162   1.826  15.379   4.121  0.0564  0.0738  0.0525
16316W        W33163  10.431   9.407  10.786  0.0815  0.1212  0.3101
16317W        W33164   5.137   1.302   4.068 -0.0820  0.0632 -0.1159
16318W        W33165   5.771  13.377   3.496  0.0042  0.0455 -0.1097
16319W        W33166  14.309  15.787  14.618  0.0402  0.0629  0.0173
16320W        W33167   2.287  16.161   2.878 -0.2160  0.2945 -0.1016
16321W        W33168   3.115   5.208   3.383  0.1140 -0.1771  0.0489
16322W        W33169  10.992   5.721  10.414  0.0639  0.2007  0.2827
16323W        W33170   8.668   2.212   1.530  0.3322  0.0492  0.3211
16324W        W33171   9.695   7.743  13.394 -0.1942  0.1042 -0.2643
16325W        W33172   4.138   6.287   0.743 -0.0940 -0.0211 -0.1261
16326W        W33173   4.532   4.791   1.185 -0.0789  0.2178 -0.0398
16327W        W33174   8.087  12.238   2.384  0.2699 -0.4368 -0.0372
16328W        W33175  12.786   4.307   1.857  0.0595  0.0804  0.1295
16329W        W33176   4.048  13.935  11.006 -0.0645 -0.2053 -0.2527
16330W        W33177  17.655   8.855  13.106  0.0839  0.0333  0.2951
16331W        W33178   6.385   4.007  13.989  0.2157  0.1862  0.0865
16332W        W33179   8.444   1.421   3.933  0.1078 -0.0773 -0.4466
16333W        W33180  10.025  17.662  11.660 -0.2047 -0.0816 -0.1438
16334W        W33181   5.070   5.538  10.968 -0.0693 -0.0513 -0.0972
16335W        W33182   3.121   4.868  11.936  0.0689 -0.0155 -0.1600
16336W        W33183  17.549   7.192  11.274  0.2529 -0.1984 -0.3006
16337W        W33184  12.567   2.419  14.828  0.0147 -0.0875 -0.1617
16338W        W33185  16.412   7.749   1.784  0.1434 -0.1524 -0.3454
16339W        W33186   5.404  11.513  10.182  0.2063 -0.0152  0.0617
16340W        W33187  18.252   7.152   3.099  0.0586 -0.0150  0.0702
16341W        W33188   8.939  12.638   2.230  0.0448 -0.1619  0.2410
16342W        W33189   3.654   0.317   2.739  0.5320  0.2263 -0.2509
16343W        W33190   0.214   1.631   4.621 -0.0319  0.1346 -0.1048
16344W        W33191   0.968  17.087   3.594 -0.2431 -0.0175 -0.0125
16345W        W33192   9.363   9.657   1.991 -0.3437  0.0187  0.2793
16346W        W33193   3.010   8.990   1.979  0.1898 -0.0515  0.1937
16347W        W33194   5.136   0.546  11.718  0.0426  0.5100  0.0385
16348W        W33195   5.395   5.084   3.724 -0.1644 -0.0785 -0.0389
16349W        W33196   0.336  10.848   2.197  0.1446  0.1179  0.4281
16350W        W33197  10.989  11.505  13.826  0.1978 -0.0742  0.0973
16351W        W33198   7.193   6.161  14.222  0.2948 -0.2184  0.3868
16352W        W33199   1.454  10.503   1.904 -0.1639 -0.1248 -0.0363
16353W        W33200   2.005   7.869   3.126 -0.2014  0.0476  0.1798
16354W        W33201  18.182   5.906   2.315  0.0584  0.0320 -0.2216
16355W        W33202  17.220   3.862  10.741  0.0656 -0.1875  0.0954
16356W        W33203   2.585  13.492   1.649  0.3733  0.0473 -0.0169
16357W        W33204  15.327   6.050   4.215  0.2972  0.0286 -0.0885
16358W        W33205   4.724  16.251   9.506  0.2824  0.4506  0.1050
16359W        W33206  16.351   6.787  12.141  0.0046  0.1321 -0.0328
16360W        W33207   5.186   5.910   3.102 -0.0812  0.1272 -0.0515
16361W        W33208   7.253  18.016   4.654 -0.2466 -0.0815 -0.0254
16362W        W33209  11.468   8.531  10.292  0.0198 -0.2027 -0.1091
16363W        W33210   9.394   0.846   4.221  0.0083 -0.1459  0.2204
16364W        W33211  16.069   0.370  13.307  0.3855  0.0081 -0.0972
16365W        W33212   9.092   7.109  11.145  0.2363  0.0480 -0.2217
16366W        W33213  12.903   7.011   4.442 -0.0624 -0.0018  0.2267
16367W        W33214   5.220  15.593   3.488 -0.0792  0.3224  0.1340
16368W        W33215   7.732   8.806  12.239 -0.0229  0.1567  0.3219
16369W        W33216   3.946   1.318  12.290  0.0316  0.0778 -0.1762
16370W        W33217   7.375  18.579  10.663  0.0853  0.2628 -0.2417
16371W        W33218   1.661   5.677  10.883 -0.2516 -0.2273 -0.0612
16372W        W33219  11.010   0.077   5.489 -0.0351 -0.1014 -0.2663
16373W        W33220  10.131   4.842  14.637  0.1700 -0.0892 -0.0746
16374W        W33221  18.783   9.648  14.217 -0.4446 -0.0601  0.0629
16375W        W33222   8.844   8.295   1.072  0.0159  0.4837 -0.1402
16376W        W33223  13.324   9.769   1.494 -0.2511  0.0357 -0.0946
16377W        W33224  17.379  16.905   0.726  0.0545 -0.1215 -0.2028
16378W        W33225  17.202   6.549  14.102 -0.0262 -0.2527  0.0042
16379W        W33226  14.179  14.431   5.599 -0.0467  0.1490 -0.3362
16380W        W33227   3.693  11.465   1.262 -0.1465 -0.1997  0.0317
16381W        W33228   5.199   4.523   0.208  0.3290  0.0115  0.1757
16382W        W33229  13.613  18.037   5.057  0.1163 -0.0493  0.1412
16383W        W33230   3.288   7.032  13.985 -0.0346 -0.2830 -0.0746
16384W        W33231   0.271   4.666   3.501 -0.1285 -0.1605 -0.1769
16385W        W33232  17.289   4.072   4.596 -0.0414 -0.0256  0.2318
16386W        W33233   0.922   2.106   2.927 -0.0863  0.3587 -0.1937
16387W        W33234   5.395   5.938   1.855 -0.0479  0.3011  0.0505
16388W        W33235  14.920  16.376   1.141  0.2561 -0.1152 -0.0197
16389W        W33236   2.645  19.261   3.535  0.1994 -0.1680 -0.2799
16390W        W33237  18.211  17.295   2.383 -0.3686  0.3761 -0.1762
16391W        W33238   9.839   7.293  12.478 -0.1184  0.1296  0.1717
16392W        W33239   8.206   2.985  10.327 -0.4448  0.1550 -0.0736
16393W        W33240  17.341  16.568  11.192  0.0260 -0.1173  0.0051
16394W        W33241   8.604   0.586  11.661 -0.0509 -0.1009  0.0654
16395W        W33242   4.619   9.326   0.361 -0.1900 -0.3069 -0.0345
16396W        W33243  12.550   5.226  12.871 -0.2375 -0.2107  0.1511
16397W        W33244   2.688   7.669  11.066 -0.1077  0.1844  0.1705
16398W        W33245  14.882  17.315   4.487  0.1486  0.1278 -0.0989
16399W        W33246   7.700  18.594   3.645 -0.1507 -0.1089  0.1568
16400W        W33247  13.220  15.364  11.254  0.0417 -0.1815  0.0253
16401W        W33248   8.458   3.369  14.147 -0.1025 -0.1328  0.0088
16402W        W33249   7.307   2.058   2.006 -0.2410  0.1414 -0.1040
16403W        W33250   8.497  10.971  10.674 -0.1445 -0.3731 -0.0768
16404W        W33251   7.710  13.433   0.066  0.2778  0.1543 -0.0283
16405W        W33252  10.611   7.205   0.676  0.0498 -0.0173  0.0169
16406W        W33253  16.757   4.658   3.749 -0.0806 -0.3538 -0.1565
16407W        W33254   1.024   4.041  13.195  0.0449  0.0229 -0.3075
16408W        W33255  18.512   9.367  12.691 -0.0939 -0.0310  0.2268
16409W        W33256   8.364  12.756  11.415  0.1962  0.2702  0.1949
16410W        W33257   8.004  15.621  14.670  0.0942  0.1489 -0.2265
16411W        W33258   3.638   8.875  10.715 -0.3291  0.0512 -0.1636
16412W        W33259  17.822  15.477   3.250 -0.1469  0.0634 -0.3183
16413W        W33260   8.541  15.651   1.171 -0.1639 -0.2748  0.2976
16414W        W33261   7.508   4.417  15.002  0.0164  0.0220 -0.0157
16415W        W33262   0.950   5.906   3.253 -0.0391 -0.1316 -0.0383
16416W        W33263   5.606   3.763   3.881 -0.2380  0.0259 -0.0409
16417W        W33264   0.843  17.522   3.477 -0.1652  0.0514  0.1640
16418W        W33265   2.887  12.748   2.685  0.0169  0.0308 -0.2359
16419W        W33266   0.501  18.671   4.858  0.2079  0.3297  0.2006
16420W        W33267  11.240  15.718   2.504  0.0069  0.1906  0.0037
16421W        W33268   8.956   1.598  12.773 -0.1952 -0.1014  0.4110
16422W        W33269  13.747  17.904   4.346 -0.0956 -0.0195 -0.0196
16423W        W33270  15.553  18.478   2.656  0.0693  0.0575 -0.1750
16424W        W33271   9.820   1.892   4.063 -0.3970  0.2382 -0.1299
16425W        W33272  15.365   5.809  11.474 -0.2601  0.0892 -0.0200
16426W        W33273  16.669   8.942   5.032  0.0474  0.0430 -0.2077
16427W        W33274   9.201  10.735  11.291 -0.1203 -0.0290  0.0901
16428W        W33275   1.696  18.583   1.186 -0.2984 -0.1017  0.0047
16429W        W33276   7.930  10.069   2.305 -0.5433  0.1300  0.0823
16430W        W33277   1.967   8.164  14.613 -0.3649 -0.1380 -0.1012
16431W        W33278   8.813  16.712   5.048 -0.0113  0.1246 -0.0920
16432W        W33279  13.537   0.481   2.717  0.4365  0.1469 -0.2103
16433W        W33280  12.966   8.359   2.198  0.0998  0.3153 -0.2968
16434W        W33281  10.882  18.562  14.380 -0.2032 -0.1309  0.2757
16435W        W33282  15.373  16.490   1.295 -0.0444  0.2746  0.2907
16436W        W33283   4.361  10.336   4.826 -0.1873  0.2956 -0.1837
16437W        W33284   8.616  17.951   5.291  0.2495  0.1582 -0.1941
16438W        W33285  13.311   6.131  10.638 -0.2606 -0.0886 -0.1186
16439W        W33286   9.538   2.825   0.736  0.2655  0.0790 -0.1019
16440W        W33287   2.718  10.143  11.342 -0.0912 -0.1426 -0.0677
16441W        W33288  10.909  12.625  13.044  0.1597 -0.1286 -0.0728
16442W        W33289   0.148   8.082   2.145 -0.1311  0.0096 -0.0663
16443W        W33290  11.195   0.188  11.707 -0.2210  0.0822  0.0044
16444W        W33291   6.374   6.438   0.202 -0.1238 -0.0505 -0.1242
16445W        W33292   3.865  15.666  11.523 -0.1565  0.2591  0.0885
16446W        W33293   3.416  19.283   3.120 -0.3054 -0.2630 -0.1279
16447W        W33294  19.006   6.365   1.121  0.0974  0.0380  0.0518
16448W        W33295   0.223   3.276   2.726  0.3284  0.1830 -0.5201
16449W        W33296   7.248   2.180   4.121 -0.2244  0.2007 -0.0418
16450W        W33297   0.088  11.890  14.868  0.0852  0.0086 -0.3649
16451W        W33298   3.359   0.220  14.841  0.1194 -0.0787 -0.0510
16452W        W33299   9.942  17.940  14.810 -0.0040  0.0431  0.0977
16453W        W33300   6.303   9.400   4.591 -0.5203  0.0369 -0.0609
16454W        W33301  19.148   7.692   3.556  0.1678 -0.1670 -0.0810
16455W        W33302   9.346  11.654   5.184 -0.0525 -0.1820 -0.1345
16456W        W33303  11.822  14.780   9.652 -0.4587 -0.2545 -0.1486
16457W        W33304  12.355  10.011   2.669 -0.2598 -0.0103 -0.0859
16458W        W33305   7.611  15.117  11.687  0.2937 -0.3158 -0.0835
16459W        W33306   5.853   1.959   2.987 -0.1529  0.1826 -0.0264
16460W        W33307   8.524  14.547  10.772 -0.3360  0.0514 -0.0845
16461W        W33308   9.456   9.259  13.969 -0.0743 -0.2718 -0.2828
16462W        W33309   8.393  15.331   0.612 -0.0463  0.0881  0.3785
16463W        W33310  13.538   3.278   2.985 -0.2617  0.0406 -0.0134
16464W        W33311   4.863   2.996   0.501 -0.0319 -0.1317 -0.3257
16465W        W33312  15.796   8.600  10.561  0.1601  0.3299 -0.0595
16466W        W33313  18.273  12.939   1.999  0.0742  0.2961 -0.1168
16467W        W33314   1.984  15.666  14.794  0.1767 -0.0640 -0.2862
16468W        W33315  18.429  12.452   3.636  0.2586  0.2130 -0.1257
16469W        W33316  14.561   6.544   4.366  0.0004  0.2071  0.0545
16470W        W33317   5.319  18.642  12.946  0.3994 -0.2699 -0.0762
16471W        W33318   8.447  10.838   3.974 -0.1540 -0.1932 -0.0909
16472W        W33319   0.146  17.667  13.657  0.1736  0.0866  0.2112
16473W        W33320  10.860  10.175  10.987  0.2666 -0.0151 -0.0013
16474W        W33321  13.216  13.335  14.030 -0.0309  0.2448  0.3388
16475W        W33322   9.946   4.396   4.207 -0.0306  0.1643 -0.2010
16476W        W33323  13.954   8.806   3.422 -0.0138 -0.0798 -0.1585
16477W        W33324   3.305   7.908  12.222  0.2828  0.0450  0.0954
16478W        W33325   8.949   5.374   2.643 -0.0238  0.1795 -0.0808
16479W        W33326   8.554  12.898   4.257 -0.0240  0.2345 -0.3560
16480W        W33327  13.750   9.719   0.081  0.2268  0.2967  0.0116
16481W        W33328   3.299  19.233   0.230  0.1040  0.0090  0.0938
16482W        W33329  14.143  10.354  10.463 -0.0533  0.1983 -0.1968
16483W        W33330  17.165   1.507   1.518 -0.1893 -0.1003  0.1309
16484W        W33331  19.128  10.064  12.683  0.0714 -0.2730 -0.0782
16485W        W33332   7.454   3.182   0.193 -0.0028 -0.2503 -0.0054
16486W        W33333  17.120  18.842   3.949  0.1054  0.2207  0.0204
16487W        W33334   0.749  16.442  14.620 -0.1613 -0.0682  0.0800
16488W        W33335   8.273   5.442   0.005  0.0200  0.1091 -0.1418
16489W        W33336   9.246   4.732  14.733 -0.1231  0.0823 -0.0881
16490W        W33337  14.314   6.304  14.543 -0.0610  0.0596 -0.1135
16491W        W33338   3.766   2.186  12.976 -0.1009  0.4908  0.2295
16492W        W33339   0.588   7.222  13.580 -0.3478  0.0204  0.1592
16493W        W33340  14.981  14.534  10.691  0.1715  0.1131 -0.0054
16494W        W33341   5.477   0.712   0.739  0.0134  0.4533  0.0944
16495W        W33342   7.951  18.218  12.682 -0.3285 -0.1393  0.2860
16496W        W33343  18.298   8.194  14.108 -0.2576 -0.2434 -0.1683
16497W        W33344   8.027  10.454  13.059 -0.1034 -0.1833  0.0940
16498W        W33345   5.339   5.193  10.599 -0.1751  0.4586 -0.1487
16499W        W33346   8.032   6.895   1.817  0.2510  0.1832 -0.1059
16500W        W33347  17.187   4.944  14.672 -0.0000 -0.0095  0.3796
16501W        W33348  14.335   0.672  14.919 -0.2021  0.3085  0.0113
16502W        W33349   1.265  18.240  11.540 -0.0861  0.0282  0.1741
16503W        W33350   1.856   0.120   0.741 -0.1148 -0.0934 -0.1484
16504W        W33351  11.128  14.772   1.643 -0.3098 -0.1565  0.0630
16505W        W33352   9.252  15.419   2.768  0.1857  0.2256  0.0484
16506W        W33353   5.975  14.603   1.396 -0.0325 -0.1030 -0.1103
16507W        W33354   9.666  11.799  12.054  0.2338 -0.1934 -0.0801
16508W        W33355  13.720   8.730   0.147  0.3894 -0.0817  0.3219
16509W        W33356  13.124  11.261   3.358 -0.0926  0.1425  0.0449
16510W        W33357   3.409   9.418  11.113 -0.0220  0.1732 -0.2155
16511W        W33358   7.746   6.825  10.921  0.0611  0.2332  0.0999
16512W        W33359   8.641   2.759   1.175  0.2170  0.0266 -0.1584
16513W        W33360   5.654   2.029  12.826 -0.0365  0.1111  0.1961
16514W        W33361   2.467  12.267  10.265  0.2366  0.0032 -0.0258
16515W        W33362   5.506   2.042   2.114  0.2775  0.2170  0.1773
16516W        W33363  11.967   7.016   1.829 -0.1728  0.4181 -0.0711
16517W        W33364   6.207   6.591   3.078  0.1030  0.0733  0.1452
16518W        W33365  18.870  10.640  14.465  0.0351  0.3487 -0.6068
16519W        W33366   8.989  11.385   2.865 -0.0027  0.1641  0.1841
16520W        W33367   5.110   1.237   0.864  0.0684 -0.1007 -0.0254
16521W        W33368  10.002   6.172   2.612  0.0221 -0.1876  0.1330
16522W        W33369   5.276  12.601   1.254  0.0750 -0.0151  0.0013
16523W        W33370   8.503  16.725  11.782  0.0761 -0.1321 -0.4250
16524W        W33371  14.664   9.302   4.885 -0.1266  0.1055  0.0680
16525W        W33372  12.328   3.301  13.372 -0.1391  0.0637 -0.0469
16526W        W33373  11.876   6.869  11.034  0.1830  0.1199  0.0092
16527W        W33374  12.746  11.389   2.907 -0.0243  0.0041 -0.2822
16528W        W33375   9.156   5.280  13.607  0.0208  0.2578  0.2799
16529W        W33376  15.489  15.062  14.208 -0.0858 -0.1043  0.2602
16530W        W33377   8.539  16.642   1.274 -0.1187  0.0006 -0.1369
16531W        W33378   9.386  16.303   3.874 -0.0567 -0.2488  0.1713
16532W        W33379   7.839   2.282   0.095  0.0303  0.2685 -0.3088
16533W        W33380  15.888  12.024   2.067  0.1623  0.0957 -0.0909
16534W        W33381  15.008  15.519   2.592  0.0607 -0.2487  0.3122
16535W        W33382  12.376  18.512   3.472  0.1829 -0.1528 -0.1362
16536W        W33383   7.703   9.506  13.389  0.0041  0.2757 -0.1406
16537W        W33384  13.044   1.849   2.470 -0.0975  0.1914 -0.0526
16538W        W33385   5.732  11.917  12.353  0.3009  0.1228  0.0904
16539W        W33386   5.688  11.257  10.505 -0.1021 -0.0725 -0.2508
16540W        W33387   6.207   6.080   3.056 -0.1081  0.2177 -0.1532
16541W        W33388   6.297  10.852  12.459  0.1787 -0.1132 -0.1635
16542W        W33389   6.105   4.654   2.667 -0.1022  0.1082  0.0097
16543W        W33390   9.833  10.450   3.627 -0.0092 -0.1299  0.2601
16544W        W33391   5.923   1.364  14.371  0.0807 -0.2030 -0.1041
16545W        W33392   0.470  10.489   2.930  0.0259  0.0165  0.0567
16546W        W33393   6.870   3.142   3.895  0.2462 -0.1677  0.0348
16547W        W33394  14.074  18.334  11.656 -0.0722  0.0078 -0.2832
16548W        W33395  17.511   7.135  12.357  0.1124  0.0035 -0.0978
16549W        W33396  18.917   3.722  14.324  0.0057  0.0597  0.1125
16550W        W33397  18.052  15.977  11.787  0.1789  0.2330 -0.2476
16551W        W33398   6.288  10.826  13.217 -0.2712  0.5316  0.0882
16552W        W33399   2.403  18.196  13.512 -0.1389 -0.0625  0.2320
16553W        W33400  12.548   9.565   2.616  0.2246  0.2127 -0.0064
16554W        W33401   4.025  17.313   0.721 -0.1812 -0.2625  0.0406
16555W        W33402  13.862  11.013  14.432 -0.1529 -0.0509  0.0462
16556W        W33403  10.247   8.196  14.507 -0.1145  0.4636 -0.0726
16557W        W33404  12.820  10.916  13.315  0.0655 -0.1885  0.0376
16558W        W33405  14.681  10.383   4.571 -0.1244 -0.0995  0.0885
16559W        W33406  11.163   8.661   1.418  0.1830 -0.2060  0.2342
16560W        W33407  15.121   5.915  13.656  0.1689 -0.0468 -0.0052
16561W        W33408  14.929  13.926   2.437  0.3253 -0.0793 -0.0566
16562W        W33409  15.412  15.007   2.071 -0.4598 -0.5324  0.0510
16563W        W33410   1.363   9.371   1.197  0.3278 -0.0559 -0.0346
16564W        W33411  13.316  16.870  10.101 -0.0370  0.3230 -0.2045
16565W        W33412   0.166  16.763  10.884 -0.0717  0.1972  0.0619
16566W        W33413  12.660  17.859  12.079  0.2095 -0.0049  0.0009
16567W        W33414  18.004   1.958   2.332 -0.2336  0.1132  0.1152
16568W        W33415   0.283   1.095  11.773  0.1290  0.2166  0.0213
16569W        W33416  13.877  10.413  11.229  0.0225 -0.1906 -0.0407
16570W        W33417   2.600   8.371  12.855  0.1008  0.0210 -0.0128
16571W        W33418   9.659  13.616   4.237  0.2616 -0.1437 -0.0911
16572W        W33419  16.510   4.649   1.541 -0.0968  0.0539 -0.0582
16573W        W33420   5.871   4.848   0.435  0.1533  0.2669  0.0146
16574W        W33421   1.495  14.680  11.310  0.0542  0.0535  0.3943
16575W        W33422   0.768   0.031   2.878 -0.5284 -0.3155  0.0338
16576W        W33423   4.732  11.351   4.197  0.3106 -0.1191  0.0085
16577W        W33424  17.481   9.004   4.687  0.2613  0.1977 -0.2934
16578W        W33425   3.348  13.567  13.560 -0.1947 -0.2524 -0.1271
16579W        W33426  14.984   7.975  14.764  0.0671  0.0973 -0.1541
16580W        W33427   3.856   4.463   0.493 -0.0327  0.0360  0.1643
16581W        W33428   4.263   8.924   3.853  0.1087  0.0652  0.1581
16582W        W33429  15.265  10.497  10.837  0.0011  0.0877  0.1711
16583W        W33430  10.737  14.694  14.432 -0.1342  0.2411 -0.1336
16584W        W33431   4.751  18.873   2.951 -0.0624 -0.0652 -0.0189
16585W        W33432  17.116   6.986  13.683  0.0218  0.0799  0.3364
16586W        W33433  13.339   7.199   3.511  0.0575 -0.0206  0.3148
16587W        W33434  12.655  16.923  13.523  0.3152  0.0864  0.0058
16588W        W33435  15.227   1.109  10.651  0.0838 -0.3632  0.2340
16589W        W33436  11.167   4.823  14.925 -0.1096  0.1325  0.0110
16590W        W33437   7.355  15.666  11.620  0.3052  0.1865  0.3029
16591W        W33438  12.655  17.827   3.108 -0.0612  0.2446  0.3605
16592W        W33439  11.423   6.252   5.203  0.0404 -0.0943  0.2774
16593W        W33440   2.320   6.519  11.498  0.0393 -0.0913  0.3213
16594W        W33441  13.311   2.386  11.907 -0.2444  0.0961 -0.4347
16595W        W33442  11.437  14.213   4.202  0.1711  0.2490  0.0742
16596W        W33443   9.105   0.857   9.699 -0.2400 -0.1971  0.1153
16597W        W33444   7.237  17.662   2.412 -0.2143 -0.0044  0.3604
16598W        W33445   6.727   7.398  11.088 -0.4769  0.0055  0.1248
16599W        W33446   5.716  11.520  13.260  0.0770  0.2419  0.4988
16600W        W33447  13.718  15.610   3.767 -0.0039  0.1927 -0.0241
16601W        W33448   7.697  11.694   3.574 -0.0221  0.2513  0.0329
16602W        W33449  16.247  16.617   1.846 -0.2815  0.2148  0.1528
16603W        W33450   9.065  18.732  11.532 -0.0799 -0.2412 -0.0590
16604W        W33451   4.367   7.219   2.945 -0.1080 -0.0914  0.2637
16605W        W33452  13.834   5.630   2.797 -0.1427  0.0336  0.0687
16606W        W33453   1.099   2.701   1.122 -0.0358  0.1089  0.1226
16607W        W33454   8.854  15.123   0.050 -0.3777 -0.0149 -0.0638
16608W        W33455  15.789  18.958  14.834  0.0214  0.2403 -0.0170
16609W        W33456  10.380  17.340  11.520 -0.0372  0.0743  0.0728
16610W        W33457   4.201   6.546   1.253 -0.3454 -0.1191  0.1127
16611W        W33458   9.549   4.023  13.902  0.0534 -0.1250  0.1729
16612W        W33459  13.617  10.040   0.730  0.0686  0.1663  0.3093
16613W        W33460  15.228  14.750   5.725  0.2681 -0.1182  0.2640
16614W        W33461   0.949  13.789   0.413  0.0249  0.0183  0.2100
16615W        W33462   0.882   9.764   0.283 -0.1391 -0.4893 -0.0439
16616W        W33463   0.296   5.564   0.922 -0.1628 -0.1690 -0.0421
16617W        W33464   4.467   4.672   3.409 -0.1411  0.0656 -0.2135
16618W        W33465   4.354  11.849   5.107  0.0439  0.4360 -0.2389
16619W        W33466  18.947  12.213   3.247  0.0243  0.2299  0.2270
16620W        W33467   3.917   4.945   0.409 -0.5018 -0.0128  0.2264
16621W        W33468  13.943  18.667  11.316 -0.0426 -0.0098  0.3164
16622W        W33469  13.349  18.035   4.109  0.2241  0.2537 -0.2113
16623W        W33470  12.110   7.000  10.232  0.3324  0.1890  0.1881
16624W        W33471   8.074   8.548   3.765  0.0376  0.2274  0.0693
16625W        W33472   2.866   2.558  13.656  0.3437  0.0934  0.0059
16626W        W33473   6.423   6.198  14.511 -0.3674 -0.1026 -0.2210
16627W        W33474   8.730  12.386   4.945 -0.0013  0.2413 -0.0044
16628W        W33475  13.787   5.623   4.718  0.0404  0.0849  0.2415
16629W        W33476   1.138   5.976  12.999  0.0932 -0.0172  0.3731
16630W        W33477   7.486  11.266   5.372 -0.1458  0.0268  0.2696
16631W        W33478  15.992   4.904   0.178 -0.1662 -0.3148  0.1195
16632W        W33479  10.516  13.883   4.038 -0.0358  0.0629 -0.0236
16633W        W33480  16.128   1.043   3.097  0.1439  0.1237  0.2428
16634W        W33481   1.163   1.995   0.900 -0.0980 -0.0788  0.3914
16635W        W33482   0.852  17.542  14.096  0.0380  0.1044  0.0272
16636W        W33483  12.460   3.930  14.059  0.2681 -0.2731 -0.0421
16637W        W33484  18.100   4.588  14.918 -0.2865  0.1084 -0.4423
16638W        W33485   8.290   1.296  11.073  0.3938  0.0425 -0.2609
16639W        W33486   6.989  17.507  12.799 -0.2009 -0.3512  0.1653
16640W        W33487  17.641   9.214   5.094  0.2705 -0.4546  0.0679
16641W        W33488  13.151  10.387  14.923 -0.2306  0.0079 -0.0384
16642W        W33489  15.144   8.547   2.520 -0.1074 -0.0121  0.0836
16643W        W33490   9.585  13.756   0.419 -0.1662  0.0569 -0.0224
16644W        W33491   5.471   6.098  12.930  0.5148 -0.3290  0.0933
16645W        W33492   1.995  12.343   5.281  0.0798  0.0075 -0.0932
16646W        W33493  10.851  14.848   3.121 -0.0860  0.1082 -0.1305
16647W        W33494   1.887   2.307   4.453  0.1100 -0.0754  0.0446
16648W        W33495  12.596   7.202  10.312  0.2264 -0.0838  0.2112
16649W        W33496   9.942   4.145   0.952 -0.0287 -0.1776  0.1619
16650W        W33497   3.514   6.890  10.885 -0.3495 -0.0783  0.5254
16651W        W33498  15.859   6.243  13.956  0.0682 -0.3759  0.2504
16652W        W33499   8.908   5.247  14.099  0.1898  0.1303 -0.1545
16653W        W33500  17.389   2.823  13.802 -0.1623 -0.1953 -0.0769
16654W        W33501  12.116   0.305  12.035  0.0968 -0.1449  0.0337
16655W        W33502   3.037   9.287   4.182  0.3001  0.1647 -0.0759
16656W        W33503  14.561  14.312   1.173 -0.1383 -0.1027  0.4260
16657W        W33504  16.099  15.347   5.030 -0.0751 -0.0414  0.0700
16658W        W33505  12.451  18.716   2.236 -0.2530 -0.0859  0.0657
16659W        W33506   9.235   7.023  10.672 -0.2127 -0.1912 -0.2260
16660W        W33507   4.803   4.843   4.260  0.1162  0.0727  0.0642
16661W        W33508  11.843   8.872   1.138 -0.1943  0.0473 -0.0577
16662W        W33509   7.859   5.981  10.961 -0.2381  0.3805 -0.0196
16663W        W33510   8.515   4.870  14.070 -0.0039  0.1199 -0.1417
16664W        W33511  11.316  16.394   1.491  0.1404 -0.3099  0.1248
16665W        W33512  10.769   0.412   1.184 -0.0282  0.4078  0.1067
16666W        W33513  13.908   7.649  13.597 -0.1386  0.0227 -0.1915
16667W        W33514  16.168  16.077  12.861 -0.1099  0.0263  0.2412
16668W        W33515   8.809  18.005  13.495  0.2328 -0.0715 -0.0501
16669W        W33516  15.494   3.012   0.797  0.0897 -0.0690  0.1036
16670W        W33517  10.862   2.772   2.299 -0.0044  0.0805 -0.1927
16671W        W33518  16.371   2.177   0.023  0.2722  0.0550  0.1195
16672W        W33519  14.846  10.412   1.215  0.3983 -0.0553  0.1043
16673W        W33520   7.222   4.786   2.451 -0.1275  0.2953 -0.1145
16674W        W33521   3.376  12.871  12.562 -0.3316  0.0103  0.2479
16675W        W33522  18.511   0.396   2.084  0.1466 -0.0633 -0.0519
16676W        W33523   0.116   4.303  10.968 -0.2125  0.0476 -0.2311
16677W        W33524   7.654  11.019  11.607  0.0669  0.1158 -0.0667
16678W        W33525  12.688   1.946   1.448 -0.1685  0.1604 -0.1024
16679W        W33526   0.970   3.881   1.299 -0.0494  0.1169 -0.2059
16680W        W33527  14.339   3.416   1.086  0.1358  0.1411 -0.1198
16681W        W33528   6.639  16.299   1.213  0.0133 -0.0141  0.2741
16682W        W33529  17.643   8.478   1.355  0.2072 -0.3866 -0.0323
16683W        W33530   0.628  14.813   4.019  0.1370 -0.2031  0.0762
16684W        W33531  15.996   6.142   3.084 -0.1410 -0.2870 -0.0101
16685W        W33532  10.032   4.876   3.985 -0.0168 -0.1040  0.0343
16686W        W33533  11.293   5.250  14.253  0.1927  0.0499  0.0742
16687W        W33534  16.976   3.098  11.646 -0.0734  0.0284 -0.0304
16688W        W33535  16.152   9.155  10.872  0.0001 -0.0691 -0.2694
16689W        W33536  10.862   1.841  10.894  0.1406 -0.0245 -0.2231
16690W        W33537  11.774  18.280   5.141 -0.5583  0.0881 -0.3975
16691W        W33538  15.439  10.127  14.170  0.2884 -0.1494 -0.1396
16692W        W33539  13.862  15.657  12.555 -0.1637 -0.1532  0.2685
16693W        W33540  11.920  10.879  11.149 -0.0738 -0.1706  0.0434
16694W        W33541  13.294   4.270   5.574 -0.0916 -0.0604 -0.2285
16695W        W33542   3.235   5.171  14.073  0.0200 -0.0161  0.3785
16696W        W33543  19.143   6.158  11.410 -0.0235  0.0493 -0.2107
16697W        W33544   3.626   7.290  13.719  0.0446  0.0117 -0.1511
16698W        W33545   7.208   7.263   1.975  0.2637 -0.2475  0.3366
16699W        W33546  17.496   4.547  14.844 -0.0425 -0.0468  0.2716
16700W        W33547  15.431  17.952   3.416 -0.2352 -0.0389  0.3553
16701W        W33548  10.326   3.175  14.038  0.3848  0.1630 -0.2057
16702W        W33549  15.090  15.387   1.230 -0.3858 -0.0216  0.0129
16703W        W33550   8.856  13.904  14.337 -0.0547 -0.0269  0.2867
16704W        W33551   7.079   2.066  13.461  0.2723  0.2212 -0.0553
16705W        W33552   3.412  13.208   3.638 -0.1090  0.0107 -0.2353
16706W        W33553  10.284   7.266  10.926 -0.0291  0.0160 -0.1363
16707W        W33554   2.928  15.695   1.838  0.5019 -0.1381 -0.2363
16708W        W33555  16.119   3.317   5.558 -0.1999  0.0879 -0.0140
16709W        W33556  14.836   3.897  14.664  0.2251 -0.0322  0.2218
16710W        W33557   1.303  14.060   2.433  0.2322 -0.0710 -0.0300
16711W        W33558   0.841  15.370   1.611 -0.1219 -0.0676  0.2379
16712W        W33559   0.623  12.560  12.160  0.2125  0.2089 -0.0345
16713W        W33560   3.031   1.273   2.273 -0.1387  0.1690  0.1226
16714W        W33561   4.734   3.414  13.276 -0.0288 -0.1316  0.3162
16715W        W33562   5.430   5.973  11.922  0.1206  0.2084 -0.1002
16716W        W33563  13.496   9.051  13.239 -0.0484  0.0640 -0.0254
16717W        W33564   6.770  12.476   0.070  0.2869  0.1835 -0.0163
16718W        W33565  16.771  14.264  13.211 -0.0059 -0.3794  0.3717
16719W        W33566  11.777   8.495   0.079  0.0404  0.1193  0.0307
16720W        W33567   3.247  17.763   2.647 -0.1925  0.0168  0.0253
16721W        W33568   3.563  10.969  13.289 -0.1210  0.0784  0.0661
16722W        W33569  16.362   4.961  10.885 -0.2407 -0.0469  0.1456
16723W        W33570  16.389  15.690   5.411 -0.1914 -0.2308 -0.1402
16724W        W33571   5.159   0.548   5.157 -0.1997  0.3522  0.0924
16725W        W33572  16.210  11.579   0.886  0.0027 -0.1893 -0.2411
16726W        W33573  18.940   2.362   1.905 -0.1376 -0.0635  0.0602
16727W        W33574   3.176   7.523  11.313 -0.3295 -0.0481 -0.0541
16728W        W33575   6.648  19.206  13.880  0.1201 -0.1948  0.3723
16729W        W33576  17.280  12.345   4.860 -0.1206 -0.1300  0.0397
16730W        W33577   9.461  10.123  15.000 -0.0586  0.0034 -0.1662
16731W        W33578  14.636  18.398   1.655 -0.2102 -0.4386 -0.4398
16732W        W33579   2.181  15.689   4.285 -0.5090 -0.0226 -0.0836
16733W        W33580   4.187  17.846   1.073 -0.3430  0.1086 -0.1947
16734W        W33581  18.076  19.061  14.141 -0.0740 -0.1661 -0.0084
16735W        W33582  16.077  19.208   5.307 -0.0769 -0.0173  0.0086
16736W        W33583  16.215  10.804  10.758  0.1222  0.0447  0.2125
16737W        W33584  16.134   0.994  14.461  0.0645  0.2707 -0.0102
16738W        W33585  10.209   3.297   9.556  0.1542  0.1687 -0.2090
16739W        W33586   0.311   3.532   2.300  0.3027 -0.1693 -0.0116
16740W        W33587   9.241  11.217  12.924  0.2345  0.2007 -0.0214
16741W        W33588  12.903  19.108  14.956  0.2282  0.1192  0.0627
16742W        W33589   4.842  18.309   4.323 -0.1285 -0.0484 -0.2286
16743W        W33590   6.454   0.674   1.291 -0.6024  0.0561 -0.2164
16744W        W33591   1.863  17.226   2.475  0.4351  0.0734  0.2049
16745W        W33592   0.902   2.368   3.710 -0.0619  0.2601 -0.1166
16746W        W33593   2.053  16.280   0.644  0.2510 -0.0562  0.4712
16747W        W33594   5.541  15.745   4.234 -0.1729 -0.0514 -0.0559
16748W        W33595   7.788   3.937  13.549  0.1675  0.0169  0.1334
16749W        W33596  14.950   3.531   1.820  0.0500 -0.0397  0.3532
16750W        W33597   6.453   5.052  11.280  0.2245 -0.0956 -0.2384
16751W        W33598  16.939  18.596  11.604  0.0611  0.1739 -0.2434
16752W        W33599  15.414   4.233  12.857 -0.2022  0.0945  0.0038
16753W        W33600   5.349   2.134   0.514 -0.2666 -0.1715  0.1217
16754W        W33601  11.421  15.930   5.198 -0.1626 -0.2778 -0.1766
16755W        W33602   7.395   1.827   2.439  0.3408 -0.0929  0.2003
16756W        W33603   1.519   4.719  11.159  0.1057 -0.0516 -0.1086
16757W        W33604   4.090   9.758   1.519 -0.0737 -0.2414 -0.1048
16758W        W33605  18.785  16.722  14.375  0.1204 -0.2829 -0.0347
16759W        W33606  14.495   7.469   3.897 -0.2458 -0.0121  0.1541
16760W        W33607  17.068  18.022   2.800 -0.0547  0.0573 -0.0454
16761W        W33608  14.668   2.650  10.464  0.3271  0.0735  0.0599
16762W        W33609   2.488   8.016   4.732 -0.1287 -0.1609  0.1646
16763W        W33610  11.177  12.391   3.154 -0.0846 -0.0678  0.1585
16764W        W33611   1.288   1.760  11.074  0.0844 -0.0120 -0.1871
16765W        W33612   4.219  19.158   4.130  0.0725  0.1306 -0.1953
16766W        W33613  12.461  19.137  13.444  0.1635 -0.1908 -0.1404
16767W        W33614  12.573  14.859  11.083 -0.2788  0.1208  0.1800
16768W        W33615  11.929  15.612  10.752  0.0688  0.1822  0.0331
16769W        W33616  13.940  17.015   3.370 -0.0594  0.0993 -0.0557
16770W        W33617   1.049  13.455   1.743  0.0065 -0.0781 -0.1697
16771W        W33618  12.344  13.065   0.783  0.1150 -0.3658  0.1530
16772W        W33619  12.374   0.815   2.843  0.1223 -0.2241  0.3124
16773W        W33620  14.054  18.711   6.084 -0.4097  0.0858 -0.0797
16774W        W33621   6.637   5.100   1.600 -0.2504  0.0800 -0.0512
16775W        W33622   7.949  10.658   4.643 -0.2537  0.2889 -0.1619
16776W        W33623   8.161   0.769  14.145  0.0633  0.1460  0.2903
16777W        W33624  13.420   9.308  11.835 -0.0230  0.0669 -0.1223
16778W        W33625   0.610  12.689   1.652 -0.1782  0.0831  0.2122
16779W        W33626  14.457   8.258  13.558  0.1063 -0.0500  0.5194
16780W        W33627   9.560  18.636  14.622  0.0653  0.1255 -0.1245
16781W        W33628  17.783  18.163   3.463  0.1687  0.0721  0.0110
16782W        W33629  16.965   4.121   2.195 -0.2968 -0.2057  0.0189
16783W        W33630  13.480   6.491  12.724 -0.2361  0.1759  0.1273
16784W        W33631  13.554   3.880   4.550  0.1432 -0.1806 -0.1794
16785W        W33632  15.408   0.836   2.397 -0.0333  0.2410  0.2228
16786W        W33633   3.818   6.616   1.588  0.1278 -0.3484  0.4252
16787W        W33634   7.744   5.501  11.215  0.3132 -0.2107 -0.0739
16788W        W33635  17.235   0.490   3.895  0.2325  0.0706 -0.2601
16789W        W33636  10.518   5.363  13.360  0.1016 -0.2695  0.0424
16790W        W33637  13.111  18.563   0.049 -0.0662  0.4041 -0.4081
16791W        W33638   2.863  18.089   3.392 -0.2346  0.0650  0.0655
16792W        W33639   8.350   6.487   1.638 -0.0048 -0.0450  0.0045
16793W        W33640   0.396  18.255  11.752 -0.2096  0.0958 -0.1646
16794W        W33641  17.449   8.870  10.666 -0.1378  0.0380 -0.1436
16795W        W33642  13.362   4.328   5.052  0.1943  0.1737  0.1178
16796W        W33643   2.879   6.417  11.397  0.0297 -0.0448  0.2692
16797W        W33644  14.106  12.058   3.444  0.1253  0.3640 -0.1665
16798W        W33645   4.028   2.868   5.387  0.3826 -0.0872 -0.0891
16799W        W33646  10.156  18.626  13.782  0.0076  0.2093 -0.0942
16800W        W33647   7.262   2.434  14.314  0.1489 -0.1122 -0.0049
16801W        W33648   7.453   2.964  13.944 -0.0414  0.0297  0.0948
16802W        W33649   1.200   5.216  11.368  0.0317  0.0859  0.1457
16803W        W33650   1.728   3.334  14.541 -0.0238  0.0574  0.1491
16804W        W33651  13.354  15.126  14.430 -0.3345 -0.2513 -0.2728
16805W        W33652   5.467  17.213   0.748 -0.1163 -0.1086 -0.2421
16806W        W33653   5.667   8.010   0.263 -0.0379 -0.2762 -0.1285
16807W        W33654   7.304   9.197  11.516 -0.1474 -0.1721 -0.0653
16808W        W33655  10.136  12.114  13.980 -0.0186 -0.2908 -0.1268
16809W        W33656   8.001   4.501   2.495 -0.1808  0.0476 -0.0299
16810W        W33657   5.541   3.552  10.610  0.0212 -0.2035  0.3406
16811W        W33658   0.968  10.647   2.905  0.0678 -0.1376 -0.0949
16812W        W33659   6.469  10.294  13.262 -0.0641  0.2703  0.1118
16813W        W33660   2.317  18.921   2.762  0.0980 -0.1618 -0.0106
16814W        W33661  11.484  18.433   5.531  0.2898 -0.2275  0.0554
16815W        W33662   6.814  10.979   1.321 -0.2265  0.1746 -0.2409
16816W        W33663   8.566   7.632   2.468 -0.0550 -0.1105 -0.0007
16817W        W33664   9.336   4.163   0.237 -0.3254 -0.1306  0.0791
16818W        W33665  12.560  16.727  10.812 -0.0275  0.0906 -0.2150
16819W        W33666   4.194   1.980   4.841 -0.0735 -0.0717 -0.0479
16820W        W33667   2.662  10.516  10.587 -0.0493  0.1585 -0.0774
16821W        W33668  18.104  12.874  13.128 -0.0690 -0.1233 -0.0001
16822W        W33669   6.312  13.300   1.298 -0.0482 -0.0402  0.3388
16823W        W33670  16.319  14.437  13.986 -0.4553 -0.1928 -0.0558
16824W        W33671  16.497   9.745   0.135 -0.1367  0.0223 -0.0929
16825W        W33672   9.961   8.117  13.591 -0.2594  0.0808 -0.0023
16826W        W33673   5.598  15.790   1.220  0.2577  0.0444  0.1474
16827W        W33674  14.256  17.290  14.604  0.0177 -0.0724 -0.1142
16828W        W33675  18.859  11.042   1.936  0.1422  0.2108  0.0057
16829W        W33676  17.884  16.971  13.804 -0.1007  0.0588  0.1156
16830W        W33677   6.079  13.770   1.382  0.2930 -0.0769  0.2027
16831W        W33678   7.165  11.569  10.980  0.0738 -0.3883  0.3725
16832W        W33679  11.215   7.411  14.701  0.1317 -0.2728  0.2758
16833W        W33680   0.559  14.410   1.758 -0.2806 -0.1466  0.0829
16834W        W33681  11.638  11.550  12.838 -0.1152 -0.0047  0.2257
16835W        W33682  17.397   3.329  10.800 -0.3245  0.1919 -0.1748
16836W        W33683   6.971   3.091   2.071  0.1608  0.2474 -0.3614
16837W        W33684   3.364  15.942  14.187 -0.1149 -0.0180 -0.0483
16838W        W33685   4.307  11.473   2.061  0.0161 -0.3303  0.0737
16839W        W33686   9.610   2.185   3.755 -0.3053 -0.1969 -0.2109
16840W        W33687   1.291   7.863  14.960 -0.2432  0.0832  0.0450
16841W        W33688   4.837   7.346  12.377 -0.1500 -0.2408  0.1899
16842W        W33689   0.420  18.146   5.645  0.1807  0.0242 -0.2158
16843W        W33690  16.473  12.112  13.544  0.2956  0.0356 -0.2072
16844W        W33691   7.674  11.182  14.530 -0.0461 -0.1498 -0.0799
16845W        W33692   5.204  13.751  10.519 -0.0986 -0.2331  0.1780
16846W        W33693  13.371   0.074   6.200  0.0305  0.0617  0.0816
16847W        W33694   3.438  10.523   3.011 -0.0464 -0.0250  0.0096
16848W        W33695  13.100   1.475  12.588  0.0986 -0.0665  0.1338
16849W        W33696  13.541   1.338  14.615 -0.0256  0.1931 -0.3058
16850W        W33697  10.490   8.916  12.351 -0.1229  0.1049  0.1579
16851W        W33698  10.224   4.211  11.961 -0.1286  0.0495 -0.3074
16852W        W33699  16.916  10.570  11.587  0.0930  0.1414  0.1747
16853W        W33700   7.847   7.449   3.860  0.1935 -0.1080 -0.0136
16854W        W33701  12.501  10.080   1.371  0.2310 -0.1540 -0.2215
16855W        W33702   2.268   4.464  11.995 -0.0647 -0.0644 -0.0620
16856W        W33703  13.464  13.086  12.366  0.1070  0.3150  0.0802
16857W        W33704  10.303   0.811  13.788  0.2063 -0.0874 -0.0635
16858W        W33705  12.525  11.283  12.719  0.0079  0.1804  0.1322
16859W        W33706  16.726   4.698   0.463 -0.1289  0.2014  0.0686
16860W        W33707  10.184  13.981  10.908  0.2645  0.1624  0.1569
16861W        W33708  10.289   8.998   3.328 -0.0127 -0.0998  0.1116
16862W        W33709  17.644  19.013  14.449  0.0664 -0.0567 -0.0030
16863W        W33710   2.268  14.796   2.554  0.1116 -0.1382  0.2688
16864W        W33711  10.870  18.460   2.805 -0.1393 -0.2768  0.2312
16865W        W33712  12.451  12.693   4.011  0.0600  0.3938  0.0509
16866W        W33713   7.408   0.095   1.453  0.0222  0.3049  0.1843
16867W        W33714  12.614   0.404   0.267  0.2348 -0.0140  0.2550
16868W        W33715   9.965  11.513  14.599 -0.1947  0.0171  0.1253
16869W        W33716   4.554  14.711   9.306 -0.0686  0.0962 -0.0368
16870W        W33717  10.962  13.077   2.745 -0.1032 -0.0798 -0.1496
16871W        W33718   1.393   2.493   3.718  0.1479 -0.0191  0.0441
16872W        W33719  11.583  13.579   4.282 -0.0266  0.1669 -0.1670
16873W        W33720   9.329   1.255  11.917 -0.1610 -0.0966  0.2123
16874W        W33721  10.878   9.349  13.349  0.0026  0.0507  0.0765
16875W        W33722   5.532   2.000  11.869  0.2386 -0.2613  0.2137
16876W        W33723  16.460  18.024  12.728  0.3891 -0.0232  0.0723
16877W        W33724   8.836   2.965  12.451  0.1892 -0.0743  0.0689
16878W        W33725   9.036   0.991  12.700  0.0728  0.1199  0.0630
16879W        W33726  18.358  16.889  10.012  0.0352 -0.3994  0.0354
16880W        W33727  12.993   2.634  11.266  0.0239  0.0481 -0.0748
16881W        W33728   4.971  15.136   1.385 -0.3603 -0.1572 -0.3190
16882W        W33729   7.273  16.399   2.444 -0.0374 -0.0986 -0.3586
16883W        W33730  10.279   4.124  13.940  0.1420 -0.3617  0.0534
16884W        W33731  15.246   6.616   2.695 -0.0794  0.1745 -0.1552
16885W        W33732  14.673   1.743   3.031 -0.0072 -0.1002  0.3369
16886W        W33733   1.986   5.415  12.027 -0.0371  0.0669 -0.2006
16887W        W33734  11.552   8.970   0.744 -0.0321 -0.0581  0.4086
16888W        W33735   7.230  11.457   4.630  0.0318  0.0197 -0.6147
16889W        W33736   2.595   4.905  14.707 -0.1294  0.3043  0.0997
16890W        W33737   0.140  15.623  13.346 -0.0835  0.0233 -0.1734
16891W        W33738  15.083  13.452   3.456  0.1158  0.0991 -0.0730
16892W        W33739  18.619  17.130   0.130 -0.0503  0.1711  0.0603
16893W        W33740  18.279  10.253  11.730 -0.0617  0.0367  0.1738
16894W        W33741   9.271  11.087   4.394 -0.0247 -0.0780 -0.0560
16895W        W33742  10.954  17.372  11.187 -0.1522 -0.1755  0.2042
16896W        W33743  12.718   8.924   1.442  0.1762 -0.1442 -0.1631
16897W        W33744   2.873   9.585  12.297 -0.2176 -0.0205  0.0585
16898W        W33745  15.774   4.020   1.868 -0.0291 -0.2839  0.3778
16899W        W33746   2.793   1.080  14.003 -0.0540  0.2089  0.0797
16900W        W33747  17.107  12.044   9.679  0.2947 -0.0916  0.0131
16901W        W33748  13.131   8.845   0.975 -0.3418 -0.2962 -0.1623
16902W        W33749   3.951  18.287  11.457 -0.1607 -0.1534 -0.2041
16903W        W33750  14.388   6.237   3.050  0.0369  0.0900 -0.2329
16904W        W33751   4.731   7.391   1.500 -0.1532 -0.2456  0.3440
16905W        W33752   8.121  17.047   4.531 -0.2034  0.1255 -0.1435
16906W        W33753  13.602  16.997  11.859  0.0661  0.1569  0.0786
16907W        W33754   7.509   3.509  13.589  0.1387 -0.2084  0.2497
16908W        W33755  18.759   8.063  13.315  0.0929 -0.0318 -0.2235
16909W        W33756  14.272   6.001   0.956 -0.0396  0.3993 -0.4236
16910W        W33757   0.132  11.370  12.306  0.2341  0.3583  0.3079
16911W        W33758  12.104   0.594   2.485  0.1047 -0.0324 -0.4494
16912W        W33759   0.432  15.563   1.074 -0.0651  0.1167  0.1555
16913W        W33760  13.316  12.952   2.224 -0.4041  0.2526 -0.0279
16914W        W33761  13.263   4.579  13.956 -0.0540 -0.1905 -0.0338
16915W        W33762  19.199   8.197   3.462  0.0563  0.3740 -0.2801
16916W        W33763   7.133   9.343   0.919 -0.1302  0.2492 -0.0470
16917W        W33764   7.178   2.928   3.512  0.2238  0.0370  0.0338
16918W        W33765  16.255   7.188   0.081  0.0509 -0.0393  0.1338
16919W        W33766   6.049  10.972  13.721 -0.1496  0.0188 -0.0776
16920W        W33767  14.038  16.264   0.634 -0.1034  0.0387  0.1453
16921W        W33768  14.329   4.804   2.635  0.0861  0.3969 -0.2917
16922W        W33769   0.093  15.271  14.380  0.0381  0.0616 -0.0091
16923W        W33770   8.212  13.319  11.510 -0.0075  0.1089  0.0199
16924W        W33771  14.696  15.061   3.907 -0.1058 -0.0340 -0.0293
16925W        W33772   1.167   5.606   1.199 -0.2060  0.0359 -0.0357
16926W        W33773   1.839  14.825  13.787  0.0623  0.2257 -0.4535
16927W        W33774   7.038   6.493  11.446  0.1472  0.0303 -0.1153
16928W        W33775   7.664  16.131  14.103 -0.1789  0.2388 -0.1199
16929W        W33776  14.323  11.916  12.852 -0.4004 -0.2543  0.0764
16930W        W33777  12.380   8.722   0.457  0.0381 -0.2125 -0.2977
16931W        W33778  13.833   2.590  11.948 -0.1782 -0.1116 -0.0876
16932W        W33779   2.263   3.226   9.534 -0.1394 -0.2943 -0.0315
16933W        W33780  10.674   7.937  14.211  0.1215  0.0515 -0.2936
16934W        W33781  16.609   2.263  10.286 -0.2737  0.0901 -0.2564
16935W        W33782  13.920   6.417  10.505 -0.0331  0.1091 -0.3511
16936W        W33783   2.484   1.255   2.463 -0.1190  0.0469  0.0133
16937W        W33784   8.904   5.505   2.159  0.2850 -0.2218 -0.0565
16938W        W33785  17.967  10.332  12.311  0.0817  0.1282  0.0002
16939W        W33786  13.983   0.383  14.672 -0.1326 -0.0300 -0.0581
16940W        W33787   0.329  10.763   0.094  0.0062  0.2715 -0.2154
16941W        W33788   3.156   4.714   3.222 -0.0116 -0.0428  0.0555
16942W        W33789   1.855  11.365   5.336 -0.1816  0.1075  0.2722
16943W        W33790   3.124  14.890  11.866  0.2870  0.1166 -0.0597
16944W        W33791  17.117   1.417  14.394 -0.2052 -0.1953 -0.0302
16945W        W33792  11.584   0.496  11.987  0.0221  0.0292  0.1917
16946W        W33793  13.095  16.504  11.468 -0.0818  0.0841 -0.0642
16947W        W33794   1.678  13.381   0.607  0.2211  0.1754  0.0125
16948W        W33795   8.935   4.383  14.363 -0.1243  0.1801  0.3799
16949W        W33796  11.055  10.635   4.377  0.0198  0.1437  0.1294
16950W        W33797   0.235  18.029   0.675 -0.1004  0.0421 -0.2318
16951W        W33798   9.383   6.305   3.177 -0.0843  0.3687  0.1450
16952W        W33799  12.699  12.481  14.136  0.3484 -0.0318 -0.1498
16953W        W33800  14.438  14.186  13.490  0.3266 -0.1685 -0.1966
16954W        W33801   0.277  12.858   2.149 -0.1023  0.1385 -0.1826
16955W        W33802  13.188   9.219  11.361 -0.0187 -0.1734  0.0833
16956W        W33803  16.615   7.473  14.501  0.0370 -0.0440  0.1218
16957W        W33804  17.787   8.837  13.588 -0.2849  0.3291 -0.1777
16958W        W33805   8.117   9.748  12.340 -0.4636  0.0805 -0.1538
16959W        W33806  10.627  15.282  11.871 -0.1031  0.1948 -0.2023
16960W        W33807   1.468   8.656   2.694  0.0618  0.0782 -0.0440
16961W        W33808  14.111   7.289   1.553  0.1972 -0.5721  0.1999
16962W        W33809  18.486  15.357   4.119  0.0131 -0.1544  0.1205
16963W        W33810   1.107   0.497  13.210  0.1715  0.0881 -0.1617
16964W        W33811   2.991   5.487  10.456 -0.4239 -0.1959  0.0837
16965W        W33812  13.828  14.308  13.931 -0.1226  0.0199  0.3684
16966W        W33813   4.753  10.884  14.588 -0.3135 -0.0315 -0.0966
16967W        W33814   7.044   0.020   2.692  0.0472  0.6128 -0.0643
16968W        W33815  14.666  17.885   1.322 -0.1042 -0.0130  0.0305
16969W        W33816   8.791   1.245   1.107  0.0497  0.2361 -0.0754
16970W        W33817   9.443  11.423  14.389 -0.3203  0.1113  0.2485
16971W        W33818   1.982   8.417  13.601  0.0706  0.1490 -0.1266
16972W        W33819   7.962   9.375   1.787 -0.0188  0.0841 -0.1435
16973W        W33820  12.052   5.589   4.809 -0.3801 -0.0113  0.2160
16974W        W33821   3.319   3.243  13.938 -0.0074 -0.1776 -0.1100
16975W        W33822  12.408  18.535  14.395  0.0295  0.3370  0.1041
16976W        W33823  16.291   0.406   5.320 -0.3413 -0.3060  0.1170
16977W        W33824  16.837   1.963   5.199 -0.3593  0.1128 -0.1002
16978W        W33825  18.056  13.885   1.875  0.1230 -0.2197 -0.1038
16979W        W33826   3.372  11.489  13.450 -0.3476 -0.0337 -0.5653
16980W        W33827  15.755  16.904   3.990 -0.0661  0.0203  0.1496
16981W        W33828  12.750  13.189  14.732  0.2451 -0.0337  0.1375
16982W        W33829   5.125  15.632   4.523  0.0943  0.0615 -0.0653
16983W        W33830  12.695  15.228   3.551 -0.3459  0.1457 -0.1012
16984W        W33831   6.966  15.643  12.964  0.5892 -0.0120  0.0163
16985W        W33832  15.076   2.122   2.939 -0.1932 -0.1842  0.2914
16986W        W33833  10.250   7.899  10.253  0.0965  0.0883  0.2860
16987W        W33834   9.123   8.254   2.648 -0.2316  0.1718  0.3560
16988W        W33835   0.198   1.500   3.009 -0.2289 -0.2974  0.1486
16989W        W33836  18.753   8.911  12.785  0.0165  0.1315  0.1087
16990W        W33837  17.845  17.498   1.138  0.0836 -0.0001  0.1553
16991W        W33838   8.214   3.680   2.967 -0.1125 -0.0451 -0.1170
16992W        W33839  13.330   5.164   4.431 -0.0539 -0.4194 -0.0419
16993W        W33840   3.481  14.248  13.642 -0.0322 -0.1149  0.2585
16994W        W33841  17.575  10.525   0.217  0.2438  0.0178 -0.1735
16995W        W33842   1.273  13.665   0.780 -0.3067  0.1740  0.4212
16996W        W33843  15.672  17.672  14.165 -0.0566  0.1105  0.4268
16997W        W33844   8.463   0.498   5.066 -0.0151 -0.1705 -0.0113
16998W        W33845   9.534   2.576  14.486  0.1084  0.1107 -0.1636
16999W        W33846  16.455  17.741  11.830  0.1967 -0.2448 -0.1351
17000W        W33847  12.769   8.252   3.145 -0.0594 -0.0443 -0.0035
17001W        W33848  14.564  17.160   4.096  0.3002  0.1049 -0.1914
17002W        W33849   4.874   6.485   3.055  0.1900 -0.2520  0.0786
17003W        W33850  15.312   4.841   2.653 -0.0297 -0.2265  0.2857
17004W        W33851  18.782  15.167   5.059 -0.1401 -0.3342 -0.0780
17005W        W33852  10.104  17.293   5.484  0.2253  0.0268  0.3347
17006W        W33853   8.518  18.427  14.600  0.0301 -0.1913 -0.1665
17007W        W33854  18.273   0.272   4.792  0.1775 -0.0575 -0.0509
17008W        W33855  18.158   5.889   9.246 -0.1721 -0.3341 -0.1947
17009W        W33856  16.503  14.066  10.325  0.1291  0.2696  0.2024
17010W        W33857  16.615  14.234  14.545 -0.0771  0.2284  0.1051
17011W        W33858   0.657  13.147  12.760  0.4771 -0.0075 -0.1065
17012W        W33859  15.514   3.720  11.395  0.0164 -0.1548  0.0298
17013W        W33860  18.630   1.267   2.729 -0.1519  0.0982  0.3127
17014W        W33861   1.503  12.343   2.024  0.0839 -0.1494  0.2844
17015W        W33862   3.298   1.313   5.098 -0.1524  0.3549  0.0429
17016W        W33863   8.566  11.965  13.103  0.1509  0.2980  0.2271
17017W        W33864  15.670  14.026   3.805 -0.0820  0.0159  0.0781
17018W        W33865   1.586   4.038   0.032 -0.0749  0.4515  0.1815
17019W        W33866  12.093  12.368  10.228  0.2285  0.0397  0.3843
17020W        W33867  12.032   6.988   0.640 -0.0018 -0.0017 -0.1296
17021W        W33868   9.260   5.149  14.994  0.1481 -0.0759 -0.1378
17022W        W33869   1.682  13.893  14.583  0.0247  0.3530 -0.0764
17023W        W33870   0.599   1.526  13.243  0.4053  0.0603  0.0326
17024W        W33871  14.040  16.896  11.305 -0.0012 -0.0932 -0.2061
17025W        W33872  11.840  14.369   0.108 -0.2564 -0.0392 -0.0847
17026W        W33873   6.482  17.685   2.316  0.4368  0.0019 -0.1410
17027W        W33874   0.220  17.849   1.141 -0.2603  0.1311  0.1123
17028W        W33875   1.281   5.109  12.627  0.1029  0.3274  0.1759
17029W        W33876  14.600   2.851   3.582  0.2446 -0.1310 -0.0076
17030W        W33877   7.640  13.861  10.513 -0.0477 -0.1751  0.1518
17031W        W33878  16.782  12.551   3.936 -0.3475 -0.1030 -0.0790
17032W        W33879  10.329   4.996   0.895  0.0705 -0.2643 -0.1283
17033W        W33880   7.929   2.059   5.366 -0.3763  0.0945 -0.2103
17034W        W33881  13.576   7.709   2.277  0.1294  0.0894 -0.3050
17035W        W33882   8.620  16.511   2.726 -0.2398  0.0725 -0.0243
17036W        W33883  19.160   8.708   0.426 -0.0513  0.2093 -0.0002
17037W        W33884   7.569  17.182   4.345 -0.0455  0.0318  0.0560
17038W        W33885   3.698  17.484   2.804 -0.0178 -0.0025  0.0349
17039W        W33886   2.202  18.115   0.202 -0.1580  0.0934  0.1397
17040W        W33887  13.760   0.071   4.418  0.0915  0.0289 -0.1428
17041W        W33888   4.557   4.203  12.367 -0.1088 -0.1435 -0.2896
17042W        W33889  10.062  15.364  13.689  0.1595 -0.0967  0.1246
17043W        W33890  19.052   1.262  11.810  0.0307  0.0820 -0.0135
17044W        W33891   1.220   2.649   0.355 -0.1143 -0.0941  0.0138
17045W        W33892   1.520   9.597  11.119 -0.1852 -0.6118  0.1323
17046W        W33893  15.627  10.471  11.392  0.0019  0.0802 -0.3420
17047W        W33894  19.211  14.783  14.001 -0.1011 -0.0855 -0.0485
17048W        W33895  12.704  15.763  11.984  0.1254  0.1705 -0.0332
17049W        W33896  16.748  15.718   2.696 -0.1906 -0.0122 -0.1316
17050W        W33897   7.111  12.195  12.856  0.4823 -0.0019  0.0849
17051W        W33898  12.338   9.710  10.615 -0.0277 -0.1878  0.0388
17052W        W33899   6.153  10.105  11.932  0.0608  0.3660 -0.1221
17053W        W33900   6.256  17.525  14.915  0.0516  0.1248 -0.0035
17054W        W33901   6.520   1.609  13.186 -0.0378  0.2318  0.1413
17055W        W33902   3.891  15.096  13.256  0.0824  0.1766  0.1445
17056W        W33903   6.935  19.135  13.318 -0.1104  0.1679 -0.0232
17057W        W33904   8.254  11.084  14.821 -0.2062 -0.3690 -0.0193
17058W        W33905   4.550   8.547  11.460  0.1845  0.0762  0.0304
17059W        W33906  10.293  12.861   4.208  0.0903  0.0940  0.3513
17060W        W33907   5.440  18.029  11.770  0.0119 -0.0029 -0.0401
17061W        W33908   5.166   7.269   1.831  0.3055 -0.0956 -0.4398
17062W        W33909   0.808   2.583  14.697  0.0132 -0.2858 -0.1179
17063W        W33910   0.867  12.283   2.301 -0.1644  0.2343  0.0788
17064W        W33911   7.960   7.980   3.824 -0.0611  0.0598 -0.2816
17065W        W33912   2.124   7.089  14.351  0.0578  0.1997 -0.1332
17066W        W33913  18.483   1.439   2.273 -0.1053  0.0328 -0.1590
17067W        W33914  16.463  14.149   5.610  0.2874 -0.1635  0.1172
17068W        W33915  13.662   9.647   2.713 -0.1789 -0.0244  0.1045
17069W        W33916   0.034  16.502   3.429  0.1159 -0.2731  0.2218
17070W        W33917   8.541  13.732  14.678  0.1841 -0.1983  0.0240
17071W        W33918  12.326   4.001  12.761  0.2439 -0.0289  0.1400
17072W        W33919  16.604  15.885   1.381 -0.0682  0.0539 -0.3475
17073W        W33920   1.107   0.033  11.346  0.0152 -0.0600 -0.2584
17074W        W33921  18.170   1.620  11.911  0.2061  0.0196 -0.1593
17075W        W33922  14.248   3.190   0.153  0.1782  0.1030  0.0743
17076W        W33923   8.146  14.781  14.553  0.0801  0.1335 -0.1347
17077W        W33924  16.765  14.507   1.587  0.0981 -0.4685 -0.0898
17078W        W33925   8.426   2.168   4.654 -0.4392 -0.1085  0.0080
17079W        W33926  15.616  14.595   3.411  0.2842  0.0465  0.1904
17080W        W33927  12.753   6.462   2.753 -0.3998 -0.1255 -0.1337
17081W        W33928  13.017   2.527   5.082 -0.1875  0.0685 -0.1325
17082W        W33929  10.212   5.996  10.089  0.0022 -0.0759  0.0499
17083W        W33930   4.454  16.846  12.514 -0.0773  0.1755 -0.1821
17084W        W33931  13.889  13.676  10.848 -0.0205  0.2274  0.0924
17085W        W33932  18.024  17.473   3.588 -0.0928  0.0827 -0.1818
17086W        W33933  12.966  11.755   2.517  0.2930 -0.1363 -0.3201
17087W        W33934  15.079  17.249   5.060  0.0293 -0.4057  0.3688
17088W        W33935   8.916  14.445  14.213  0.2265 -0.0013 -0.3444
17089W        W33936  14.427  17.717   4.895 -0.1456 -0.0615  0.3375
17090W        W33937   5.816   3.323   4.207  0.0054 -0.0093  0.3224
17091W        W33938   7.703  12.675  11.237 -0.0435 -0.1915 -0.1218
17092W        W33939   5.071  17.943  13.900  0.0071  0.0514  0.2963
17093W        W33940  12.828   9.779   1.196  0.2060  0.0503 -0.0646
17094W        W33941  12.365  13.229  13.717  0.1503 -0.0446 -0.0386
17095W        W33942  11.999   6.400  12.365  0.0472  0.3411 -0.0693
17096W        W33943   8.919   7.018  14.265  0.2765 -0.0118 -0.0448
17097W        W33944  12.616  18.179   2.222  0.2881 -0.1497  0.2734
17098W        W33945  11.673  18.435  14.965 -0.3302 -0.2398 -0.0563
17099W        W33946  11.993  11.512  10.843 -0.0464 -0.0195  0.0730
17100W        W33947  13.932  15.397  12.042 -0.1340  0.0378  0.2107
17101W        W33948   2.158  18.216  11.652 -0.1320 -0.3688 -0.1464
17102W        W33949   7.575  13.060   3.102  0.3059  0.2314 -0.1320
17103W        W33950  11.625   4.980   0.819  0.0078  0.0487 -0.2454
17104W        W33951  14.916   4.420  10.721 -0.4915  0.0160  0.2452
17105W        W33952  13.284  18.477   1.804  0.0111  0.2440  0.0421
17106W        W33953  13.113  11.807  12.447  0.0532  0.2638  0.2429
17107W        W33954   3.401   2.595   4.330  0.0619  0.4150  0.2666
17108W        W33955  14.036  12.615   1.869  0.0644  0.2396  0.2211
17109W        W33956  10.083  11.844   3.418  0.1728 -0.1591  0.1182
17110W        W33957   2.016   9.396  12.788 -0.1216  0.0977  0.0115
17111W        W33958  12.749  16.175   3.759  0.0700 -0.0914  0.3206
17112W        W33959   0.295   1.332  11.259  0.3334 -0.1257  0.1323
17113W        W33960   0.551  15.354   0.128  0.2490  0.1594 -0.0484
17114W        W33961  18.773  11.618   4.512  0.3103 -0.0159 -0.0252
17115W        W33962  17.137   5.324  11.993 -0.1254 -0.1181 -0.1900
17116W        W33963   9.871   9.015  14.285 -0.0903  0.0298 -0.3532
17117W        W33964   9.848   9.304   0.211 -0.0440 -0.2077 -0.0881
17118W        W33965   0.962  14.854   4.625 -0.2342 -0.2074  0.2448
17119W        W33966   8.923   4.029   0.663 -0.0560 -0.0027 -0.1386
17120W        W33967   8.335   3.242   2.112 -0.1778 -0.1954 -0.0846
17121W        W33968   4.120   6.790   3.430  0.1074  0.3118 -0.1477
17122W        W33969   9.828   9.291   4.366  0.1403 -0.1497 -0.1947
17123W        W33970  14.211   2.169  14.925  0.0464 -0.1916 -0.0733
17124W        W33971  18.072   4.160  10.741  0.0291  0.0218 -0.3749
17125W        W33972   4.594  15.646   3.985  0.1561 -0.3906 -0.2505
17126W        W33973  14.304  14.143  12.089  0.0113  0.0031 -0.0111
17127W        W33974   2.916   8.354   2.555  0.1671 -0.0171  0.0375
17128W        W33975   5.493   0.627   9.500  0.2098  0.1869 -0.0876
17129W        W33976   7.875   4.813   1.035 -0.0074 -0.2494 -0.1499
17130W        W33977   8.868  10.864   2.614 -0.2542 -0.1156 -0.0500
17131W        W33978  14.832  14.574  12.591  0.0167 -0.0314  0.2580
17132W        W33979  15.979  10.215  11.741 -0.3247  0.0373  0.3354
17133W        W33980   5.812   4.846  12.375  0.2201  0.2727 -0.0566
17134W        W33981   7.745  16.546  12.164  0.1196  0.0228  0.0016
17135W        W33982  14.753   6.684  11.184  0.0314 -0.0697 -0.0502
17136W        W33983  14.050  15.690   4.830  0.0016 -0.2471 -0.2394
17137W        W33984   3.137   6.758  12.064  0.1417 -0.0248 -0.2782
17138W        W33985  11.340   6.195  11.238  0.3750 -0.3147  0.1151
17139W        W33986  13.279   5.588  15.019  0.2367  0.1855 -0.0766
17140W        W33987   4.067  18.428   3.239  0.3573 -0.1341  0.0397
17141W        W33988   9.117   7.107   3.403  0.2745 -0.0797 -0.3796
17142W        W33989  16.782   4.797   4.268 -0.0416  0.1550 -0.0265
17143W        W33990  11.855  14.254   1.973  0.0905  0.1600  0.2411
17144W        W33991  18.561  19.066  14.378  0.0704 -0.2577 -0.1648
17145W        W33992   3.935   6.095  14.145  0.2993 -0.0842  0.0473
17146W        W33993  13.399  17.516   4.209  0.2229 -0.2354 -0.1275
17147W        W33994   1.376  19.197   0.384 -0.0727 -0.2281 -0.0315
17148W        W33995  15.638   6.144   2.622  0.0808  0.1118  0.2293
17149W        W33996   3.784  14.648   9.591  0.2235 -0.0636  0.0813
17150W        W33997   4.829  18.278   2.090 -0.1902  0.1027  0.2897
17151W        W33998  14.558  15.985   1.820  0.0089  0.0305 -0.1259
17152W        W33999  11.368  17.241   0.541  0.2133 -0.1428  0.1033
17153W        W34000  13.958  18.225   2.746  0.1321  0.2344 -0.1537
17154W        W34001  11.065  11.549  12.906  0.3053  0.1363  0.2359
17155W        W34002   3.266   2.966   4.906  0.0934  0.0294  0.0180
17156W        W34003  14.743   2.201   1.891  0.2875 -0.1937  0.0136
17157W        W34004   0.485   3.902   0.823 -0.0216  0.1473 -0.0289
17158W        W34005   3.340   1.671  11.808  0.0377  0.0515  0.0928
17159W        W34006   2.886   4.720   5.446  0.2777  0.2558 -0.1789
17160W        W34007   2.858   2.912   2.538 -0.2973  0.3124 -0.2027
17161W        W34008   9.683   7.779  11.820 -0.2911 -0.3708 -0.1637
17162W        W34009   5.100  12.416   1.685 -0.0190  0.0365 -0.0090
17163W        W34010  12.391   4.982  13.330 -0.1583 -0.0067 -0.1118
17164W        W34011   6.376   6.361  13.679  0.0279 -0.4296 -0.4556
17165W        W34012   4.236  11.327   5.117 -0.3690  0.1328 -0.1675
17166W        W34013  10.589  12.064  14.123  0.2205 -0.2023 -0.1280
17167W        W34014  16.724  17.786   3.109  0.0503 -0.2142  0.0413
17168W        W34015   9.781  18.583   5.109 -0.3686  0.1198 -0.0366
17169W        W34016   4.908   0.090   1.031 -0.1297  0.0344  0.0791
17170W        W34017  11.899  14.951   3.507  0.0295  0.1872  0.0144
17171W        W34018  14.649   2.816   1.844 -0.2152 -0.1644 -0.1877
17172W        W34019  10.196  15.215   1.025  0.1679  0.0136 -0.1349
17173W        W34020   8.573   2.678   1.758  0.0448  0.4546  0.2927
17174W        W34021  15.907   8.108  13.550  0.1159  0.1967 -0.0044
17175W        W34022  14.269   6.260   0.042 -0.1351 -0.0297  0.0252
17176W        W34023  13.356  10.591  13.142  0.0880 -0.0071  0.0193
17177W        W34024   6.565  10.931  10.157 -0.1955 -0.0137  0.0042
17178W        W34025   4.930  17.494  12.429  0.2883  0.3114 -0.0255
17179W        W34026   8.778   5.439  11.185 -0.0962 -0.1170  0.1898
17180W        W34027   7.091  14.346  13.359 -0.0698  0.0679 -0.0454
17181W        W34028   5.752   0.314   1.135  0.0431 -0.3523  0.2952
17182W        W34029   7.884  19.193  11.654 -0.1246 -0.0441  0.2196
17183W        W34030   4.664   6.414  12.855  0.2459  0.0843  0.2190
17184W        W34031  16.448  14.929   4.910 -0.0729 -0.2609 -0.2386
17185W        W34032  13.219   1.814   4.440 -0.1257  0.1600  0.0780
17186W        W34033  14.716  15.113   1.426  0.1434 -0.0463 -0.0507
17187W        W34034  13.405  14.756   3.116  0.0518  0.2095 -0.3796
17188W        W34035   8.038  12.277  13.583 -0.3123  0.0817  0.2427
17189W        W34036  13.003   1.270  14.367  0.3264 -0.4659  0.2256
17190W        W34037   9.889   3.174   1.414  0.1957  0.0967  0.0623
17191W        W34038  10.423   4.767   2.771  0.0727  0.0220 -0.0388
17192W        W34039  14.330  11.481   4.324 -0.0564 -0.0684  0.1099
17193W        W34040  11.577   0.791  10.875 -0.0395  0.3490  0.0172
17194W        W34041   6.902  10.203   2.691 -0.2278  0.4441  0.0057
17195W        W34042  10.090   2.376   2.019  0.0130  0.1120 -0.2047
17196W        W34043   9.716   9.593   3.498  0.1274 -0.1985  0.0009
17197W        W34044  11.182  11.228   0.149  0.3453  0.1291 -0.1446
17198W        W34045   2.758  15.998  11.994  0.2001  0.0052 -0.0681
17199W        W34046  12.000  15.086   0.832  0.0523 -0.0647 -0.3845
17200W        W34047  10.254   1.441  14.411  0.1559  0.3107 -0.2019
17201W        W34048   2.276   0.433   4.161  0.0904 -0.0489  0.0152
17202W        W34049  11.735   0.273   1.047 -0.3319  0.3397  0.1035
17203W        W34050  14.892   4.247   2.916  0.1126  0.0691 -0.1702
17204W        W34051  13.855   7.656   0.962  0.1530  0.1856 -0.2196
17205W        W34052   7.906   0.097   5.209  0.1167 -0.5603 -0.2628
17206W        W34053  13.633   6.983   3.931 -0.0663  0.2756 -0.0984
17207W        W34054   4.315   2.528  11.186 -0.1370 -0.2330 -0.0886
17208W        W34055  11.438   1.080  12.996 -0.1345 -0.1210 -0.1513
17209W        W34056  10.305   1.708   0.249 -0.0614 -0.0186 -0.0183
17210W        W34057  15.548   7.807   0.580  0.4896 -0.1874 -0.1028
17211W        W34058  15.984   8.631  12.322  0.1646 -0.0857 -0.0373
17212W        W34059   2.468   2.785  12.818 -0.1322 -0.1535  0.3232
17213W        W34060  15.914  11.202  14.969  0.0623  0.0784 -0.0183
17214W        W34061  18.001  13.362  13.025  0.1261 -0.2710  0.0700
17215W        W34062  16.092   2.047  12.829  0.2241  0.3104  0.0523
17216W        W34063   0.136   3.892  14.125 -0.0109  0.0472 -0.2655
17217W        W34064  17.328   6.848   1.533  0.2229  0.3049 -0.0429
17218W        W34065  15.331  15.251   3.954  0.3030  0.0011 -0.3425
17219W        W34066   9.529   8.190   1.730 -0.1397 -0.1246  0.1803
17220W        W34067   0.652   0.504   2.773  0.1757  0.0237  0.1365
17221W        W34068  10.225   0.080  14.384 -0.1422  0.3449  0.0302
17222W        W34069  16.368  11.132  14.760  0.0464  0.0009 -0.1113
17223W        W34070   9.677   6.909  13.691 -0.0788 -0.3061  0.0135
17224W        W34071   3.608   3.708   1.787  0.3542  0.1258  0.0273
17225W        W34072   9.767  17.880   4.439 -0.0873 -0.0973  0.1432
17226W        W34073   9.955  11.673  10.612  0.0298  0.3365 -0.0416
17227W        W34074   1.528   1.697   5.042  0.2649  0.2860 -0.2326
17228W        W34075   9.914   5.309   3.801  0.2886 -0.3519 -0.1925
17229W        W34076   5.518  18.467   3.377  0.1559 -0.1886 -0.1349
17230W        W34077  17.838  10.119  14.290  0.2253 -0.1300 -0.0707
17231W        W34078   2.943  17.520   1.282  0.1519  0.1878  0.0195
17232W        W34079   1.679  18.606   3.313 -0.0962 -0.0427 -0.1147
17233W        W34080   7.330  10.119   0.512  0.3167 -0.1200  0.0908
17234W        W34081  10.970  14.694   3.697 -0.1838  0.0526 -0.2751
17235W        W34082   1.734  19.010  11.389  0.0655  0.1749  0.0197
17236W        W34083  11.948   3.383   4.506  0.1750  0.0144  0.3519
17237W        W34084  15.365   8.284  14.055 -0.1985 -0.3966  0.0946
17238W        W34085   0.965   7.995   3.487 -0.2505  0.0495 -0.0457
17239W        W34086   9.719   6.045   2.996 -0.0866  0.0286 -0.0041
17240W        W34087  10.467  14.774  13.123  0.2551 -0.1347 -0.2017
17241W        W34088  18.672  12.323  11.001  0.1705 -0.2812  0.0389
17242W        W34089  16.253  13.700   0.428  0.0353 -0.1127 -0.1985
17243W        W34090  15.273  15.912  12.855  0.0994  0.0155  0.4286
17244W        W34091   5.887   2.356  14.078  0.2992  0.0621 -0.0853
17245W        W34092   9.853   4.428  13.610  0.3377 -0.2973 -0.0927
17246W        W34093   8.740   3.264   3.282  0.1380  0.0368  0.0508
17247W        W34094  15.015  13.569  13.220 -0.0851 -0.0034 -0.1649
17248W        W34095  18.082  11.156  13.489 -0.0003 -0.0558  0.0866
17249W        W34096  14.807  15.178  13.531  0.2350 -0.3050 -0.0862
17250W        W34097  18.578  17.015   1.196  0.2271  0.2027  0.2215
17251W        W34098  14.055   6.068  10.958  0.0435 -0.0358  0.0743
17252W        W34099   1.344  17.426   3.322 -0.0220  0.1406  0.0255
17253W        W34100  10.691  11.947   3.355 -0.1070 -0.2952 -0.1438
17254W        W34101   3.464   6.353  10.973  0.0197 -0.1062  0.1485
17255W        W34102  16.099   0.911   0.022 -0.1655 -0.1168 -0.3314
17256W        W34103   6.411   0.137  14.298  0.3406  0.0929 -0.1136
17257W        W34104  14.848   8.547   2.008  0.2989  0.1032  0.0582
17258W        W34105   9.716  12.982  11.044 -0.0709  0.0263  0.2800
17259W        W34106  17.371  18.127  11.659  0.0742 -0.2405  0.0310
17260W        W34107   2.748  12.038  11.535  0.0159  0.2511 -0.0718
17261W        W34108  16.308  15.483   1.803  0.1308 -0.0048 -0.0086
17262W        W34109  11.662   1.610   5.031  0.3087 -0.1052 -0.0775
17263W        W34110  13.759  10.155  12.661 -0.0990 -0.2435 -0.0300
17264W        W34111  15.083  14.310   2.053 -0.1039  0.5126 -0.0157
17265W        W34112   0.030   9.818   3.573 -0.1498  0.0316 -0.0681
17266W        W34113   9.651  15.032   0.909  0.0632 -0.2116 -0.4117
17267W        W34114   2.100   0.323  11.121  0.2669 -0.4562 -0.1414
17268W        W34115  18.341   3.516  13.065  0.1974 -0.0107 -0.4527
17269W        W34116   4.809  16.183   2.889 -0.0241 -0.2644  0.1470
17270W        W34117   2.963   4.811   0.474 -0.1531  0.1722 -0.1248
17271W        W34118  11.675   3.933   1.894  0.1293  0.1595 -0.0873
17272W        W34119  15.780  16.799   2.295  0.2278  0.1759  0.1848
17273W        W34120   8.710  14.927   5.117  0.1154 -0.1993 -0.1490
17274W        W34121  12.771   6.849  12.476  0.0265 -0.4123 -0.0705
17275W        W34122   6.818  13.276   1.495 -0.1809 -0.2123  0.1948
17276W        W34123   5.140  14.462  10.801  0.3737  0.1295 -0.0559
17277W        W34124  17.473  13.822   1.105  0.2355  0.0624  0.0097
17278W        W34125   9.172  14.228   4.976  0.2518  0.1845 -0.4169
17279W        W34126   2.284   3.960   1.184  0.0876  0.0827  0.1157
17280W        W34127  13.738   0.283  13.046  0.4615 -0.2592  0.1002
17281W        W34128  15.022  15.067   0.864 -0.0000  0.1554  0.1602
17282W        W34129  15.600  18.341  11.476  0.0627  0.1066  0.0506
17283W        W34130   6.200   6.084   3.695  0.1108  0.0917  0.1296
17284W        W34131   4.593   0.859  11.410  0.1505  0.1022  0.5467
17285W        W34132   0.610  11.261   3.655 -0.1932  0.0843 -0.2786
17286W        W34133   1.482  11.471  10.221 -0.3280 -0.2517 -0.1564
17287W        W34134   4.946   6.223   2.047  0.2168 -0.1183  0.0935
17288W        W34135   8.075   5.883  10.519  0.1692 -0.0802  0.1929
17289W        W34136   2.320  15.426  11.230 -0.0309 -0.1325 -0.2392
17290W        W34137  18.598   3.617   2.102 -0.0332  0.1309  0.1381
17291W        W34138   9.275   1.172  14.677  0.0654 -0.0236 -0.0793
17292W        W34139   0.481   5.744   2.489 -0.1523  0.2719 -0.1948
17293W        W34140   5.804  12.141   2.569 -0.2544 -0.0110 -0.4433
17294W        W34141  11.335   1.355  12.009  0.2458  0.1078  0.1633
17295W        W34142   4.090   3.411   1.847 -0.0547 -0.2197 -0.2387
17296W        W34143  17.123  15.759  12.003 -0.2626 -0.2851 -0.5289
17297W        W34144   7.043   9.336   3.808 -0.3704 -0.0022  0.1790
17298W        W34145   0.383   2.757  13.970 -0.3289  0.1254  0.1247
17299W        W34146   4.798  10.106  13.249 -0.2249  0.0896  0.2612
17300W        W34147  19.237  15.227   2.920  0.3039 -0.1877  0.3398
17301W        W34148  11.849   7.518   9.366 -0.1172 -0.3124  0.2292
17302W        W34149   4.328  12.780   2.092 -0.1416  0.1206  0.0673
17303W        W34150   4.795  10.623  11.648 -0.0208 -0.0523  0.0916
17304W        W34151   8.611   2.747   2.356 -0.3760 -0.3158 -0.2894
17305W        W34152  12.019  19.162   3.007 -0.0113 -0.1753 -0.0336
17306W        W34153  15.500  18.403   1.799 -0.1951 -0.0247 -0.2139
17307W        W34154   8.798  13.453   3.356  0.0070 -0.1926 -0.2414
17308W        W34155  10.999   1.112  12.286  0.3641 -0.0019 -0.2194
17309W        W34156   8.926  12.609   1.742  0.3699  0.1418 -0.1280
17310W        W34157   2.622  13.355  14.864 -0.2220  0.0450  0.1077
17311W        W34158   9.936  17.901  11.114 -0.0922 -0.5650 -0.0504
17312W        W34159   3.577  16.501  14.750 -0.0941  0.2905  0.0735
17313W        W34160  11.326  14.658   2.928  0.1860  0.1025 -0.3128
17314W        W34161  15.030  17.142   0.094  0.3943 -0.0990 -0.1174
17315W        W34162   7.313  12.021  10.564 -0.2540  0.0455  0.0274
17316W        W34163   9.198   6.978  13.847 -0.0782 -0.0190 -0.0437
17317W        W34164  15.545   8.834   4.112 -0.1500 -0.0856  0.1114
17318W        W34165   5.734   3.195  10.236 -0.1661 -0.2007 -0.1034
17319W        W34166  15.339   9.170  10.686 -0.2125  0.2037 -0.1481
17320W        W34167  13.405  16.135  11.650 -0.0960 -0.2018 -0.0055
17321W        W34168   2.189   6.513  14.223 -0.1992 -0.2768 -0.0705
17322W        W34169  13.466   1.671   1.196 -0.3645 -0.2436  0.0615
17323W        W34170   4.025  18.847   5.164  0.0543 -0.1305 -0.0022
17324W        W34171  15.018  13.663   4.729 -0.1448 -0.0339  0.0133
17325W        W34172  10.530  15.204  13.787  0.5117 -0.0119 -0.1509
17326W        W34173  15.499   5.246   3.381  0.1987  0.2062  0.2992
17327W        W34174   8.360   1.503   2.812 -0.1219 -0.2042 -0.0901
17328W        W34175  10.463   6.326   3.663 -0.0551  0.3305 -0.0528
17329W        W34176  12.823   9.117   2.616 -0.0002  0.2537 -0.0500
17330W        W34177  12.749   3.577   4.495  0.2304  0.2762  0.1694
17331W        W34178  15.791  14.429  14.956 -0.2209  0.2296  0.0039
17332W        W34179   4.483   4.029  11.224 -0.1865 -0.1318  0.1881
17333W        W34180  17.232   7.502  14.337  0.2012 -0.5672  0.3040
17334W        W34181  12.021  12.218   0.661  0.1774 -0.1069  0.2464
17335W        W34182   8.560  16.161  12.102  0.1899 -0.0367 -0.0305
17336W        W34183   0.806   2.863  14.265 -0.1522  0.1444 -0.0344
17337W        W34184   5.418  16.620   0.132 -0.4869  0.3177 -0.0302
17338W        W34185  19.104  11.495   1.438  0.0748  0.2636 -0.0345
17339W        W34186   0.905  18.312  14.673 -0.1401 -0.2937  0.1027
17340W        W34187  16.079   0.472   0.299  0.3844 -0.2134  0.0172
17341W        W34188  11.915  12.548   3.113 -0.0549 -0.3375 -0.2250
17342W        W34189   6.051   9.904  14.284  0.0600 -0.0356  0.0330
17343W        W34190  14.467   2.833  11.733  0.2541  0.1086  0.0434
17344W        W34191  12.602  16.411   2.191 -0.0108  0.1254 -0.1581
17345W        W34192  16.432   5.880   3.883  0.0084  0.1025 -0.0119
17346W        W34193  12.975  18.872   1.011  0.3905  0.0387  0.1572
17347W        W34194   9.562   9.482  13.511 -0.1850  0.1491 -0.1717
17348W        W34195   1.086   1.391   0.367 -0.1636  0.0481  0.1291
17349W        W34196   6.901  15.874   1.980  0.0419  0.2065 -0.0861
17350W        W34197  14.927  15.539   1.676 -0.0113  0.0384 -0.0034
17351W        W34198   3.644  11.300   3.391  0.1209  0.1571 -0.2613
17352W        W34199   8.978  11.542  13.809  0.2763 -0.2747 -0.1905
17353W        W34200   3.539   8.750  13.281 -0.0488  0.0121  0.3042
17354W        W34201   0.923   2.009  11.292  0.0915  0.1778  0.1535
17355W        W34202   5.409  16.561   3.739 -0.1074  0.0564 -0.1224
17356W        W34203   2.553   5.987   0.074 -0.2138  0.2716 -0.2214
17357W        W34204  15.436  13.675  12.867 -0.0617  0.1555  0.1572
17358W        W34205   9.490   6.231   0.820  0.0902 -0.0036  0.1489
17359W        W34206  13.456  14.443   3.933 -0.0041 -0.1422 -0.0452
17360W        W34207   0.218   1.478   1.350  0.0126 -0.1815  0.1847
17361W        W34208   2.627  12.291  12.794 -0.1617  0.1060  0.1388
17362W        W34209   2.020   9.877   3.617  0.2465 -0.2146  0.0815
17363W        W34210   3.699  16.743   2.445  0.1005  0.3260  0.0297
17364W        W34211   5.767   4.959  11.926 -0.0306 -0.1509  0.3862
17365W        W34212  16.422  14.589   2.527  0.2510 -0.0206  0.1075
17366W        W34213   5.793  13.857   3.783 -0.1228  0.0191  0.0243
17367W        W34214   4.934   1.411   2.662  0.1482  0.1561 -0.1690
17368W        W34215   1.988   1.357   2.598  0.0655 -0.1544  0.1001
17369W        W34216   6.618   6.343   2.875  0.0102  0.2928 -0.2790
17370W        W34217  15.858  15.282  13.908 -0.5211  0.0435 -0.0691
17371W        W34218   1.068   2.891   3.778 -0.3394  0.0082 -0.2081
17372W        W34219   1.911  13.092  13.221 -0.1706  0.3563  0.0294
17373W        W34220   6.249   5.083  10.780  0.0590 -0.0686  0.3087
17374W        W34221  10.664   1.799  12.698 -0.2359 -0.1662 -0.0442
17375W        W34222   6.057  12.686  14.522  0.0609  0.1700  0.1412
17376W        W34223  18.150   6.478  10.413 -0.0058  0.1517 -0.1706
17377W        W34224  12.071   2.684  13.481  0.3491 -0.1087 -0.1289
17378W        W34225   8.650  18.830  14.865  0.0627  0.2852 -0.1359
17379W        W34226   0.493   8.665   3.955 -0.3454  0.0217 -0.1240
17380W        W34227  10.595   7.436  11.373  0.3474 -0.1236 -0.1047
17381W        W34228   8.809  16.490   2.179  0.1156  0.1614 -0.0005
17382W        W34229   2.082  14.374  13.801  0.1642 -0.0766 -0.2368
17383W        W34230  15.393  15.529  13.132  0.0966 -0.0430 -0.0116
17384W        W34231   6.410   5.604   0.412  0.0232 -0.3242 -0.3740
17385W        W34232  18.983  14.818   3.067 -0.1828  0.2700 -0.0843
17386W        W34233   0.414  16.761   2.491  0.2519  0.1267  0.2245
17387W        W34234  12.973   0.142   3.396  0.1587  0.2105 -0.0976
17388W        W34235   2.104   9.990   1.389 -0.0120 -0.0081 -0.2413
17389W        W34236   6.311   3.800   1.114  0.2052  0.1072  0.0985
17390W        W34237  13.016   8.930  14.657 -0.0087 -0.0227 -0.1612
17391W        W34238  18.735  18.062   3.392  0.0090 -0.2829 -0.3304
17392W        W34239  19.103  13.079   1.193  0.1436 -0.5613 -0.0285
17393W        W34240  19.236   1.988  11.446 -0.0128 -0.1638  0.0054
17394W        W34241   1.683  12.870  11.663  0.0083 -0.3553 -0.2068
17395W        W34242   4.506  10.000   1.841 -0.5023 -0.3048  0.1324
17396W        W34243   5.214  14.416   4.008 -0.0779 -0.0729 -0.0019
17397W        W34244   5.765   7.424   3.557 -0.0124  0.0720  0.0668
17398W        W34245   4.859  16.138   2.154 -0.0198  0.0206 -0.1851
17399W        W34246  14.565  11.905   1.317  0.3118 -0.1714 -0.1746
17400W        W34247   3.791   1.228  13.255  0.0712 -0.0431  0.2073
17401W        W34248  18.719  17.568   1.637 -0.1452 -0.0956  0.3056
17402W        W34249   8.339   2.617  13.032 -0.2942  0.3184 -0.1346
17403W        W34250  15.050   0.663  14.508  0.3616 -0.3704 -0.3725
17404W        W34251   2.960  10.961   3.055  0.1874 -0.1628  0.0917
17405W        W34252   5.119   2.506   4.158 -0.1083 -0.0029 -0.0763
17406W        W34253   6.359  14.407   1.961 -0.1849  0.3151 -0.1597
17407W        W34254  19.262  12.279   2.697  0.0417 -0.0156 -0.1151
17408W        W34255  18.602  14.183   0.176  0.1689  0.0250 -0.2425
17409W        W34256   3.129  14.325  12.701 -0.0234 -0.2793 -0.2261
17410W        W34257  16.969   6.016   1.282 -0.3377 -0.0730 -0.1272
17411W        W34258  14.945   1.639   4.583  0.0514  0.3219 -0.0988
17412W        W34259   5.126   8.979  14.183  0.1360 -0.2970 -0.0186
17413W        W34260   2.522   1.069   0.693  0.3370  0.3777  0.2874
17414W        W34261  18.172  15.072   2.317 -0.3302 -0.0917  0.2745
17415W        W34262   2.852  15.821   9.982  0.3019 -0.1868 -0.2677
17416W        W34263   3.183   5.166   2.353 -0.1885  0.0065 -0.1936
17417W        W34264  15.406  17.696   2.035 -0.0682 -0.2480  0.1132
17418W        W34265  11.931   4.943  10.763 -0.0399 -0.1668 -0.2280
17419W        W34266  16.886  15.619   0.915  0.1633 -0.1608  0.0282
17420W        W34267  19.061  17.629  12.816  0.0174 -0.2395  0.0358
17421W        W34268   5.383   7.919  10.469  0.0907  0.1881 -0.2174
17422W        W34269   4.352   7.281  11.216  0.2677  0.1364  0.1538
17423W        W34270   9.983  12.152   3.810  0.0995  0.0864 -0.1173
17424W        W34271  11.650   7.416  13.395 -0.2274 -0.1464  0.4290
17425W        W34272   5.858  10.629   0.758  0.1332 -0.0011  0.1908
17426W        W34273  10.385  17.910  11.368 -0.0077  0.0170  0.2561
17427W        W34274   2.831  14.980  13.987  0.0298 -0.3326 -0.0841
17428W        W34275  11.763   6.637   0.339  0.0022  0.2086 -0.3853
17429W        W34276   7.203  12.765  12.799  0.1138 -0.1262 -0.2968
17430W        W34277   2.705   6.194   0.611  0.2726 -0.0729 -0.0507
17431W        W34278  14.226   5.221  11.795 -0.2033 -0.5575 -0.0729
17432W        W34279  14.205   7.272  13.443 -0.2923  0.1244  0.0849
17433W        W34280   8.355  16.609   2.299 -0.1587 -0.1970  0.1181
17434W        W34281   6.114   9.851  13.407 -0.1175  0.0644  0.1627
17435W        W34282   0.075   2.844   0.685  0.1565 -0.1226 -0.0966
17436W        W34283  13.370  14.345   3.424 -0.1277 -0.1288 -0.1601
17437W        W34284   7.276  12.500   2.293  0.0204  0.0623  0.3514
17438W        W34285  10.270  16.644   2.574  0.0310  0.0029 -0.0060
17439W        W34286  16.939   8.313   4.024 -0.1566 -0.2099 -0.2113
17440W        W34287   3.765  18.961  14.930 -0.0150  0.0779 -0.0731
17441W        W34288  18.486   3.144   1.423  0.0017  0.2906 -0.2937
17442W        W34289  18.284   4.445  14.437  0.2790 -0.3086  0.0914
17443W        W34290   0.508   2.913  11.212  0.0614  0.1032 -0.0518
17444W        W34291   1.122  16.190  14.866  0.1152 -0.0571 -0.1399
17445W        W34292   3.835   5.098   5.752 -0.0308  0.2343  0.1021
17446W        W34293   3.785  12.486   1.386 -0.1423 -0.3927  0.0145
17447W        W34294  13.492  15.722  11.272  0.1578  0.0238  0.0247
17448W        W34295  15.768  15.640  11.822 -0.1341 -0.2025 -0.4238
17449W        W34296   8.766  15.557  10.275  0.2430  0.1090  0.0924
17450W        W34297  18.957   7.259   3.215 -0.5652  0.0273 -0.1324
17451W        W34298  13.934   5.135   2.685  0.0590  0.0069  0.1257
17452W        W34299  14.340  14.653   5.171  0.3268 -0.2523  0.1260
17453W        W34300  10.642  18.149   0.324  0.0888 -0.2297 -0.1823
17454W        W34301   0.776   2.913   2.816 -0.0886  0.0968  0.0812
17455W        W34302  15.152  11.853   3.378 -0.1005 -0.3623 -0.1425
17456W        W34303   0.191   8.990   9.775 -0.0420 -0.0919 -0.2897
17457W        W34304  19.009   0.378   0.750  0.3110 -0.1598  0.0786
17458W        W34305   1.360  18.650  11.321 -0.1152  0.1493  0.1473
17459W        W34306   0.438  11.051  14.671  0.0352  0.0833  0.0906
17460W        W34307   7.443   0.102  11.758  0.0918 -0.0686 -0.3315
17461W        W34308   9.772   7.612  11.255  0.2356 -0.1369 -0.0133
17462W        W34309   4.378  14.565   5.378 -0.1806 -0.0739  0.0140
17463W        W34310  11.425  12.999   2.462  0.0224 -0.2851 -0.0738
17464W        W34311   2.766   9.013  13.490 -0.1608 -0.0643 -0.2187
17465W        W34312  12.384   2.459  11.416  0.0082 -0.0108  0.0757
17466W        W34313  18.814   5.936   2.431 -0.1347 -0.2396  0.3727
17467W        W34314   6.235   5.578   2.208  0.2902 -0.0516 -0.0773
17468W        W34315   5.678   4.504   3.493  0.0225 -0.1759 -0.2048
17469W        W34316  15.144   5.674   3.216  0.1706 -0.2605 -0.0487
17470W        W34317   5.101  11.896  10.415 -0.1134 -0.2761 -0.0857
17471W        W34318   2.640   5.807  10.286  0.0314 -0.0236 -0.0762
17472W        W34319   8.551  10.214   3.402 -0.0300 -0.0215 -0.0470
17473W        W34320  16.856   4.008  12.206  0.2434  0.0229  0.2291
17474W        W34321  15.260   4.398   1.191 -0.0552  0.0577  0.0186
17475W        W34322   4.313   3.433  14.349  0.0223 -0.2834  0.2471
17476W        W34323  17.509   6.507   2.886  0.2817 -0.1448  0.3564
17477W        W34324   8.604   5.293  10.738  0.0730  0.1058  0.0713
17478W        W34325  10.446   3.425  10.805 -0.0906 -0.1932  0.3780
17479W        W34326  15.823  18.591  14.003  0.2638  0.3795 -0.1450
17480W        W34327   7.911  10.187   5.554 -0.2350  0.1901  0.0661
17481W        W34328  10.186   1.512   0.739 -0.0788  0.4027  0.0870
17482W        W34329  19.225   1.308  13.789  0.0785 -0.2152  0.2300
17483W        W34330   6.327  16.690  14.271  0.1622  0.2438 -0.0342
17484W        W34331  14.864   9.324  12.369  0.1949  0.0320  0.0912
17485W        W34332   6.339  11.494   4.199 -0.1050  0.1462  0.2007
17486W        W34333  12.267   7.230   3.282 -0.0656  0.0650 -0.4434
17487W        W34334   4.787   3.665  14.593  0.2056  0.4475  0.1325
17488W        W34335   5.395   0.799   3.822  0.0400 -0.1715  0.2725
17489W        W34336  10.665  13.321  11.462  0.2226  0.0162  0.0371
17490W        W34337   4.438   8.980  13.633 -0.2054  0.0969  0.0590
17491W        W34338  16.144   4.945  12.035 -0.1942  0.2069  0.1887
17492W        W34339  18.438  15.464   0.746 -0.4264 -0.5683 -0.0012
17493W        W34340   6.956  11.510   1.270  0.1081 -0.2014 -0.1215
17494W        W34341   4.611   9.748  13.977 -0.1725  0.1383  0.1514
17495W        W34342  18.105   2.435   2.241  0.1911  0.0312 -0.1086
17496W        W34343  12.459   6.950   4.102 -0.0332  0.0788  0.1263
17497W        W34344  15.149   2.477  13.268 -0.1810  0.1724 -0.2172
17498W        W34345  14.882   2.259   4.524  0.0914 -0.0570  0.0136
17499W        W34346  17.213   6.825   0.920  0.0545 -0.5237  0.0612
17500W        W34347  17.873  17.245   0.729  0.1306  0.3436 -0.1280
17501W        W34348  12.030   5.652   5.444 -0.2950 -0.0371 -0.3838
17502W        W34349   0.465   1.480  12.027  0.2983 -0.0368 -0.0529
17503W        W34350  13.311  15.664  14.178 -0.0386  0.3589 -0.2608
17504W        W34351  14.839  14.012   2.914  0.1233 -0.1138 -0.4804
17505W        W34352   5.622  13.428  12.264  0.0852  0.3196  0.2385
17506W        W34353   9.899   0.408  11.660  0.0775 -0.0466 -0.1257
17507W        W34354   2.072   5.401  11.048 -0.4366 -0.3114  0.1872
17508W        W34355  12.867   4.261  13.235 -0.2766 -0.2417  0.1759
17509W        W34356   5.530  17.409   2.332 -0.0516  0.0868 -0.0366
17510W        W34357   4.493   0.449   3.795 -0.2390  0.0041  0.0918
17511W        W34358   2.240   4.769   5.109 -0.0277  0.0639  0.0726
17512W        W34359   2.023  16.925  11.552 -0.2300 -0.1759 -0.0678
17513W        W34360  13.727  15.011   2.547 -0.0768  0.0022  0.2297
17514W        W34361   5.546  10.513   5.624  0.0147  0.2648 -0.2531
17515W        W34362   0.569   1.426   9.686  0.2180  0.0890 -0.1514
17516W        W34363  12.747   0.367  14.241  0.0624 -0.1041  0.0182
17517W        W34364   2.857   8.173  14.997  0.0186 -0.2373 -0.0537
17518W        W34365   4.029   0.294   2.447 -0.1333 -0.2180  0.0008
17519W        W34366   1.484   2.867  12.587  0.1252  0.1633  0.2065
17520W        W34367  10.264   8.171   4.948  0.1751 -0.0614  0.3668
17521W        W34368  14.258   0.168  13.029 -0.0872  0.1798 -0.0802
17522W        W34369   0.255  17.087   4.603  0.0056 -0.1036 -0.0521
17523W        W34370   7.364   2.405   0.374 -0.0630 -0.1452 -0.1419
17524W        W34371  14.595  14.821   2.861 -0.3157  0.0430  0.0980
17525W        W34372  10.880  10.206  13.061  0.0081 -0.0333  0.1441
17526W        W34373   6.501   6.539  11.279 -0.2917  0.3550 -0.0074
17527W        W34374  14.170   8.598  13.720 -0.0402  0.0108  0.0597
17528W        W34375   1.480  14.368   1.424  0.0946 -0.0240 -0.0911
17529W        W34376  16.177  14.680   0.323  0.0137 -0.1688 -0.0754
17530W        W34377  11.339   8.433   0.922 -0.2176  0.2306 -0.2713
17531W        W34378   9.942   9.373   4.839 -0.1687  0.1123  0.2558
17532W        W34379  13.567   4.931   2.909 -0.0511 -0.0596  0.0686
17533W        W34380   1.573  10.972   0.556  0.1906  0.2907  0.1974
17534W        W34381  14.418   3.363   1.917  0.0314 -0.0769 -0.0424
17535W        W34382   8.860  18.644   1.861 -0.0275  0.1887 -0.2926
17536W        W34383  11.346   8.325  14.870 -0.1539  0.0465  0.4010
17537W        W34384   7.627  15.619  14.078 -0.1932  0.2338  0.0311
17538W        W34385  18.318   1.153  10.787 -0.2283  0.1260  0.0674
17539W        W34386   7.098  10.988  10.287  0.1408 -0.3051 -0.0834
17540W        W34387  18.232  17.336  13.929  0.1785 -0.0564 -0.2264
17541W        W34388   3.317  14.243  11.700 -0.6675 -0.0369  0.3873
17542W        W34389  11.346   0.631  11.546 -0.0635 -0.1305  0.0829
17543W        W34390   3.814  16.288   0.608  0.0576 -0.1730 -0.1018
17544W        W34391  14.151   2.518  14.491 -0.1001 -0.0538  0.0463
17545W        W34392  16.425  16.064   0.431  0.1687  0.1350  0.0726
17546W        W34393   4.033  16.924   4.137 -0.0060  0.0089 -0.1084
17547W        W34394  11.325  15.829  12.691  0.1630  0.3210  0.2316
17548W        W34395   7.517  12.597  10.375  0.1006  0.0595  0.3533
17549W        W34396   7.022   3.147   4.994 -0.0256  0.0018 -0.1201
17550W        W34397   4.353  15.190  13.565  0.0781  0.0431  0.4644
17551W        W34398  14.572  18.784   4.437 -0.0008  0.2624  0.0241
17552W        W34399  17.636  13.709  12.973  0.0155 -0.4252 -0.1927
17553W        W34400   0.865  11.717   9.417 -0.0930  0.0287 -0.2062
17554W        W34401   0.362  11.408   2.200 -0.1111  0.0637 -0.3774
17555W        W34402   2.668   8.487   2.109  0.1927  0.2823 -0.2558
17556W        W34403   6.125   2.885  11.372  0.1453 -0.0931 -0.3135
17557W        W34404  15.482  10.586   4.494  0.0670  0.0052  0.0810
17558W        W34405   3.087   0.470   9.761 -0.0534 -0.1086 -0.0497
17559W        W34406   9.110   3.444   2.478  0.2445 -0.3282 -0.0291
17560W        W34407  16.177  17.340  11.574 -0.2020  0.0396  0.0295
17561W        W34408  13.085   0.511   1.332 -0.1492 -0.0200  0.0931
17562W        W34409   3.646  18.029  10.724  0.1006  0.2309  0.0155
17563W        W34410  16.280   7.196  13.462 -0.3358 -0.0540  0.2311
17564W        W34411  13.688  14.282  12.896 -0.0487 -0.1669  0.0459
17565W        W34412   2.804  16.053   1.410 -0.3911 -0.0514 -0.0123
17566W        W34413   2.507   8.101  12.419 -0.1724  0.0433 -0.2057
17567W        W34414   2.832  16.457   3.600 -0.0061  0.1484 -0.1036
17568W        W34415   8.025  11.729   3.965  0.3523  0.0439 -0.0595
17569W        W34416   0.061   5.932   2.650 -0.0150  0.4699  0.1399
17570W        W34417   0.141  13.453   1.374  0.1397  0.1072 -0.0414
17571W        W34418   5.957   0.565  12.344 -0.1674 -0.1754  0.1960
17572W        W34419  17.923  12.288   3.266  0.1499 -0.1203  0.2674
17573W        W34420   4.789   0.321   2.061 -0.3049  0.0047  0.2821
17574W        W34421   6.222  13.773  15.016  0.1100  0.1382 -0.1290
17575W        W34422   2.537  18.525   2.888 -0.2100  0.3600 -0.0384
17576W        W34423   5.006   4.358   4.219 -0.0371  0.2101  0.0348
17577W        W34424   5.153  12.905  10.785 -0.1018 -0.0899 -0.0239
17578W        W34425   5.477   6.434   1.829 -0.2488  0.1055  0.1538
17579W        W34426   2.541  18.873   0.365 -0.1489 -0.1658  0.4363
17580W        W34427  10.631  16.842  14.836 -0.0318  0.2004 -0.2311
17581W        W34428  18.839  15.602   0.330  0.0303 -0.0500 -0.2004
17582W        W34429  19.113  14.949  12.080 -0.1088 -0.2238  0.2104
17583W        W34430   0.553  11.164  10.184  0.0693  0.2137 -0.0551
17584W        W34431  12.271  11.057   2.776  0.4280  0.0251 -0.1108
17585W        W34432   0.932   9.791   1.852  0.0798 -0.0538 -0.1947
17586W        W34433   6.047   1.478   2.662  0.1329 -0.0610  0.1461
17587W        W34434  16.414  10.025  10.298 -0.0178 -0.1639 -0.1346
17588W        W34435   8.536   4.767   5.004 -0.0457 -0.0187 -0.2446
17589W        W34436   7.321   9.922   2.509 -0.2056  0.3511 -0.2084
17590W        W34437  14.813   2.826  12.318  0.0612 -0.1603 -0.1397
17591W        W34438  14.404   9.873  12.889 -0.1565 -0.0614  0.1445
17592W        W34439   4.038   7.600   1.287  0.0266  0.1933 -0.3246
17593W        W34440  11.033   6.555   5.434  0.1035 -0.1039 -0.1698
17594W        W34441   5.862  14.551  11.302 -0.0488 -0.3939  0.0312
17595W        W34442   9.170  13.058  10.635 -0.0479 -0.0934  0.1637
17596W        W34443   5.165   3.892  11.658 -0.2995  0.0793 -0.2011
17597W        W34444  15.899  14.541  11.929 -0.1373  0.0675 -0.4265
17598W        W34445   6.917   6.453  13.769  0.1212  0.1932 -0.2791
17599W        W34446   1.301   1.790  10.585 -0.0064  0.0828 -0.0066
17600W        W34447   4.206  18.466  11.883 -0.0621  0.1369  0.1353
17601W        W34448   5.180  15.807  11.510  0.0407  0.0561 -0.1436
17602W        W34449   5.940  18.619  13.767  0.1471 -0.1298 -0.0001
17603W        W34450   3.693   2.961   2.355 -0.0880 -0.0897 -0.0672
17604W        W34451   7.399  10.705   3.474  0.1311  0.0741 -0.0204
17605W        W34452  12.973  15.899  13.642  0.2069 -0.1819 -0.3605
17606W        W34453  12.353  15.838   4.452  0.1651  0.0773  0.0441
17607W        W34454  15.015   1.721   2.616 -0.0615  0.2147 -0.0189
17608W        W34455   2.744   8.230   1.180 -0.3509  0.4014 -0.1302
17609W        W34456  14.273   8.033  14.302 -0.0219  0.3047  0.1105
17610W        W34457   3.576  13.717  11.813  0.0196  0.3512 -0.1928
17611W        W34458  17.101   5.215  10.556 -0.1379  0.1192  0.0450
17612W        W34459  10.904   6.250   5.022 -0.3118 -0.1569 -0.1249
17613W        W34460   1.453   5.698  10.423 -0.0565 -0.0329 -0.1289
17614W        W34461  14.447  11.055  13.568 -0.1516 -0.1159 -0.2938
17615W        W34462   6.829  13.829  12.016  0.0844  0.0355 -0.0162
17616W        W34463   8.934   7.283   2.445 -0.1251 -0.1651  0.0357
17617W        W34464  14.455  11.380   5.305  0.2061 -0.1071 -0.1471
17618W        W34465   8.224  12.583   5.152  0.0747 -0.0048 -0.0047
17619W        W34466   1.194  17.941   2.352 -0.0400  0.1099 -0.1911
17620W        W34467   8.237  19.141  14.923 -0.2565  0.1194 -0.1662
17621W        W34468   8.911   8.284   3.214  0.3288 -0.0324  0.1635
17622W        W34469  10.148  16.425   2.133 -0.1922 -0.0631 -0.2412
17623W        W34470  18.636  11.900   3.591 -0.3343  0.1634  0.1656
17624W        W34471   2.713  15.950   2.439  0.1850  0.1005 -0.1025
17625W        W34472   6.665  17.508   4.150  0.1555  0.3502 -0.1128
17626W        W34473   9.170  14.804   0.367 -0.2802  0.1848 -0.1977
17627W        W34474  17.828  16.482  12.464  0.3240 -0.1217  0.1204
17628W        W34475   9.300  14.901  14.199 -0.2466  0.0369 -0.1713
17629W        W34476   6.476   1.985   4.655 -0.0270 -0.1322  0.0635
17630W        W34477  18.200  10.992  12.983 -0.2763 -0.0558 -0.2493
17631W        W34478  19.086  18.384  14.273  0.4215 -0.0526  0.0861
17632W        W34479   4.317   6.875  14.760  0.3965 -0.0598  0.0866
17633W        W34480   1.677   5.152   2.630 -0.1749 -0.0126  0.2143
17634W        W34481  12.423   5.247   4.992 -0.0368  0.1231 -0.1984
17635W        W34482  14.756  18.226  14.846  0.1036  0.0772 -0.2819
17636W        W34483   6.697  10.311   2.224 -0.4812 -0.1840 -0.1224
17637W        W34484  11.715   2.261  10.619  0.0103 -0.2953 -0.3607
17638W        W34485  16.173   3.213  15.019  0.2355 -0.1585  0.2519
17639W        W34486  16.488  13.697  11.062  0.1594  0.0743  0.2403
17640W        W34487  12.454   6.982   9.842 -0.1235 -0.3413 -0.1980
17641W        W34488   2.241   5.948   0.482 -0.0994  0.0554 -0.1231
17642W        W34489  13.823  17.773   3.269  0.0493  0.1080  0.0964
17643W        W34490  14.536  11.408   2.510 -0.1785  0.2390 -0.0776
17644W        W34491  11.601  11.350   0.983 -0.2181 -0.1660 -0.0662
17645W        W34492   9.473  12.851  13.845 -0.0513 -0.2104  0.1175
17646W        W34493  12.841  16.451  13.706  0.0841 -0.0818  0.1045
17647W        W34494  16.676   4.417  11.190 -0.0827  0.1103 -0.3216
17648W        W34495   3.656  17.464   4.452  0.1870 -0.2198  0.0253
17649W        W34496   5.832  18.542   2.997  0.2083  0.1208  0.1984
17650W        W34497  10.888   9.917  13.437  0.1975  0.0448  0.1234
17651W        W34498  13.329   9.695   0.966  0.2623  0.0503  0.3322
17652W        W34499   2.243   0.969   2.117  0.0063  0.0572 -0.1084
17653W        W34500  16.365  12.145   3.059 -0.1821  0.0755 -0.1147
17654W        W34501   1.751   9.611  14.131 -0.1042 -0.1634 -0.0499
17655W        W34502  18.732  10.451   1.157 -0.1312 -0.0548 -0.1420
17656W        W34503   7.684  14.268  14.161  0.2574 -0.2403  0.1885
17657W        W34504   7.227  16.695  13.079  0.0746 -0.0281  0.1696
17658W        W34505   3.385   7.652  12.699  0.1075  0.0606 -0.1034
17659W        W34506   9.821   3.717   1.269  0.1291 -0.1484 -0.0836
17660W        W34507  17.991   6.681   1.963 -0.2025  0.0103 -0.0697
17661W        W34508  15.790  11.747  14.172  0.1611 -0.1662 -0.2599
17662W        W34509   5.338  17.349  12.642  0.0220 -0.1079 -0.0271
17663W        W34510   8.565   9.383  11.526 -0.1964 -0.2620  0.2176
17664W        W34511   5.171  12.630   2.554  0.0858  0.1905  0.2191
17665W        W34512   6.822   3.565  13.430 -0.2197 -0.2616  0.0038
17666W        W34513  18.571   6.002   4.726 -0.0157  0.1944  0.0143
17667W        W34514   7.598   9.477   0.926 -0.1019 -0.0642  0.0949
17668W        W34515   2.197  12.650   0.204  0.2479  0.0883 -0.2414
17669W        W34516   0.984   7.471  14.896 -0.4103  0.1103 -0.0865
17670W        W34517  13.321   1.844  13.465  0.0850  0.1595  0.0710
17671W        W34518   3.275  13.236  11.288  0.0582  0.0286 -0.1624
17672W        W34519   3.199   7.234  12.815  0.0002  0.1123 -0.4348
17673W        W34520  15.112   4.491   3.293 -0.1892 -0.0006 -0.0785
17674W        W34521  10.715  15.271   4.532  0.0707  0.0959 -0.0988
17675W        W34522  15.123   7.776  13.351 -0.1058 -0.2330  0.1744
17676W        W34523  10.321   7.955   2.158  0.0307  0.0740  0.2712
17677W        W34524   3.060   8.262   1.659 -0.4066 -0.1473  0.2145
17678W        W34525  11.766  11.850   4.331 -0.0780 -0.1345  0.0143
17679W        W34526   0.381   6.833  14.500  0.0238 -0.1088 -0.3193
17680W        W34527  17.033  14.965   4.122  0.0701  0.0817 -0.2301
17681W        W34528   9.703   4.833   4.378 -0.0728  0.1316  0.1814
17682W        W34529  14.773   4.028   1.677  0.0133  0.0755 -0.1763
17683W        W34530   2.433  16.303   0.282 -0.2810 -0.3531  0.3634
17684W        W34531  16.690   7.825   3.128  0.0696 -0.0195 -0.1074
17685W        W34532   0.182  13.447   4.839 -0.0906 -0.1384 -0.3414
17686W        W34533   2.649   8.156   4.262 -0.1976 -0.0501 -0.0810
17687W        W34534  12.209   7.785   2.606  0.1695  0.2861  0.1189
17688W        W34535   2.090   5.907   3.086 -0.3968  0.3071  0.0068
17689W        W34536  17.053   4.588   1.544 -0.0080  0.1950 -0.1379
17690W        W34537   3.857  10.375   0.771  0.0326 -0.3899 -0.2075
17691W        W34538  19.150  18.545   3.405  0.0313  0.0101  0.1039
17692W        W34539  10.737   2.884   4.080 -0.0740  0.3265  0.2106
17693W        W34540  10.988   6.262  10.649 -0.2945 -0.0687  0.0426
17694W        W34541   7.672   0.526  11.509 -0.2978  0.1748 -0.2155
17695W        W34542  10.730  13.297  11.953 -0.2386  0.4438  0.2215
17696W        W34543   3.265  18.964   0.703  0.3897  0.0507  0.1916
17697W        W34544   4.775   4.957   2.742  0.2262 -0.1569 -0.1710
17698W        W34545   3.103   2.162  10.739  0.1481 -0.5969  0.0864
17699W        W34546  16.515  16.604  14.560  0.1033 -0.0005 -0.0869
17700W        W34547   8.160   0.325   0.199 -0.1358 -0.3893 -0.4102
17701W        W34548   1.821   7.258   3.815  0.0310  0.2569  0.1134
17702W        W34549   0.559   6.879   2.614  0.1873  0.0620 -0.0383
17703W        W34550  11.424   4.464  10.412  0.1249 -0.1149 -0.0200
17704W        W34551   4.268  11.180  12.123 -0.1576 -0.0021  0.3288
17705W        W34552  10.394   3.928  14.493 -0.2023 -0.1184  0.2744
17706W        W34553   1.919  17.833   0.460 -0.1158 -0.4662 -0.0964
17707W        W34554   6.184  11.238  10.528 -0.1194  0.1332  0.1850
17708W        W34555  16.200  17.691   5.492 -0.2605 -0.0001  0.0382
17709W        W34556   3.367  14.400   1.196  0.1356 -0.0894 -0.0350
17710W        W34557  18.053   8.593   5.796  0.0877 -0.2948 -0.3536
17711W        W34558  10.654   9.732  13.869 -0.0298  0.0731  0.3254
17712W        W34559  16.525  11.788  12.003 -0.2277 -0.0735  0.0962
17713W        W34560  15.405   4.815   3.632 -0.1471 -0.0027 -0.0231
17714W        W34561   3.244   8.548   2.849 -0.0839 -0.2275 -0.0278
17715W        W34562   2.133  11.055  11.364  0.1757  0.0354 -0.0544
17716W        W34563  12.450   6.591  12.733  0.2147  0.0367  0.0769
17717W        W34564   6.782  16.344  14.210 -0.0798 -0.5476  0.3561
17718W        W34565  18.836  16.088  11.187  0.0192 -0.1710 -0.2094
17719W        W34566   4.836   1.317   5.242  0.0438 -0.1642  0.0041
17720W        W34567  19.204   0.828   0.089  0.0673 -0.1486  0.4027
17721W        W34568   1.638  17.830   2.029  0.3229 -0.0044 -0.1024
17722W        W34569   5.993   3.792   3.064  0.0615  0.4210  0.0799
17723W        W34570  11.832  18.137   2.001 -0.0746  0.0815 -0.2028
17724W        W34571   8.920   4.834  13.827 -0.0509 -0.1648  0.0227
17725W        W34572   7.076   6.293   4.080  0.0949 -0.1205 -0.2531
17726W        W34573  16.077   8.906  13.260 -0.3325  0.3250  0.2232
17727W        W34574   8.375   8.744  11.317  0.5478 -0.2630 -0.0953
17728W        W34575   0.761  10.057   3.009  0.1513  0.2308  0.0304
17729W        W34576   7.414   2.800  11.307 -0.2329  0.0489  0.2397
17730W        W34577   3.175   2.895  13.453 -0.3989  0.0426 -0.0490
17731W        W34578   2.109   5.131  13.042  0.1947  0.0629  0.1554
17732W        W34579  15.819   4.967  12.614  0.2169  0.0430 -0.0481
17733W        W34580  12.332  10.893   1.133 -0.0832  0.0819  0.2516
17734W        W34581   0.389  10.515  13.821 -0.4349 -0.1440 -0.1291
17735W        W34582   3.404  18.689   0.208 -0.0045 -0.3550  0.1907
17736W        W34583  16.609  17.970   2.568  0.0974 -0.0081 -0.1975
17737W        W34584   0.876  13.844   1.517 -0.0747  0.2630 -0.0230
17738W        W34585   9.654   0.324   3.891  0.1146  0.0003 -0.0622
17739W        W34586   9.166  18.598   4.384 -0.4201  0.0082 -0.2985
17740W        W34587   5.639   2.954  12.403 -0.2786 -0.4140 -0.0689
17741W        W34588   2.271   7.444   3.695 -0.0743  0.0491  0.2059
17742W        W34589   0.592  14.974  13.493 -0.1054 -0.1243 -0.0030
17743W        W34590   2.771  12.228   2.749 -0.2130  0.1960  0.0496
17744W        W34591   8.508  13.435   4.592  0.3343  0.0329 -0.1025
17745W        W34592  18.258   3.168   2.303 -0.3849  0.0448 -0.2515
17746W        W34593  13.157   3.118  11.548 -0.0367 -0.1319 -0.0482
17747W        W34594   7.790  12.910   1.698 -0.3326  0.0690 -0.0620
17748W        W34595  15.961  11.243  10.954 -0.0675 -0.0272 -0.2663
17749W        W34596   2.865  12.703   4.941 -0.1364  0.1983 -0.0813
17750W        W34597  16.195   9.530  10.415 -0.2243  0.1604 -0.0555
17751W        W34598   9.775   1.251  11.619  0.3587  0.0639  0.2094
17752W        W34599   5.481  15.841  11.015 -0.1308 -0.0433 -0.1353
17753W        W34600   2.892   3.701   0.055 -0.3066  0.1945 -0.3266
17754W        W34601  10.272   7.597   0.819 -0.0179  0.1125  0.4721
17755W        W34602   9.371  18.861  14.210 -0.0606  0.1421  0.1476
17756W        W34603  11.734   9.312   3.108  0.0835  0.1137  0.0866
17757W        W34604  12.170  16.748   4.419  0.0099  0.0877 -0.0794
17758W        W34605   1.597   1.060   3.931  0.1356  0.4232 -0.1859
17759W        W34606  15.530  17.352   1.655 -0.2130 -0.1563  0.2177
17760W        W34607  15.797   0.711  14.097  0.2520 -0.1296 -0.0037
17761W        W34608  13.245   8.798   2.397 -0.0608  0.0457 -0.0531
17762W        W34609   7.951   0.813   1.791 -0.2083  0.0897  0.0307
17763W        W34610   9.106  17.441  11.359 -0.0026 -0.3130 -0.0283
17764W        W34611   5.802   4.029   3.498 -0.3076  0.0507  0.3683
17765W        W34612  17.664   1.978   2.815 -0.3132  0.3970  0.1016
17766W        W34613   6.190   2.544  14.401  0.0531 -0.3033  0.0232
17767W        W34614   4.724  11.248   2.217  0.1277  0.1337 -0.1003
17768W        W34615  17.968  17.583  10.665 -0.3535  0.2298 -0.0548
17769W        W34616  17.383   0.215  12.760 -0.0602 -0.1074 -0.1470
17770W        W34617  12.157   9.377  14.383  0.3508 -0.0252 -0.1855
17771W        W34618   9.712   1.139  12.412 -0.2851 -0.3707  0.0812
17772W        W34619  10.588   5.609  10.794  0.1945 -0.1814  0.1196
17773W        W34620  16.360  17.141  14.640 -0.2609 -0.0145  0.1008
17774W        W34621  18.147  13.703   3.267 -0.0545  0.3804 -0.0085
17775W        W34622   1.168  14.887  11.764  0.0167  0.0796 -0.1113
17776W        W34623   1.394  13.269  12.547 -0.1299  0.0488  0.1174
17777W        W34624   7.560  18.744  13.889 -0.0836  0.1114 -0.2479
17778W        W34625   9.360   9.802  11.325 -0.1912 -0.2040  0.2160
17779W        W34626  19.279  13.062  14.839  0.0594 -0.0164 -0.4371
17780W        W34627   0.092  11.489   0.764  0.1079  0.0857  0.2693
17781W        W34628  18.812   0.740   2.819  0.1964 -0.1556 -0.1853
17782W        W34629   6.809   4.570  10.113  0.2087  0.2139  0.0013
17783W        W34630   8.476  15.718   5.328 -0.0620 -0.2999  0.1809
17784W        W34631   3.558   2.014  14.825  0.2186  0.2609  0.1736
17785W        W34632   4.980  18.678   0.954  0.1089  0.0683  0.2033
17786W        W34633  17.048  19.017   4.392 -0.2884  0.0658  0.2355
17787W        W34634   1.603   4.212   3.040  0.1951 -0.1699  0.1535
17788W        W34635   3.797  10.369   4.861 -0.3008  0.0443  0.2717
17789W        W34636   0.800   3.318  12.489  0.1168 -0.1981  0.0005
17790W        W34637  11.673   5.687   2.378  0.0892 -0.0626  0.0113
17791W        W34638   9.676   4.588  13.062  0.3288  0.1586  0.0466
17792W        W34639   4.064   0.642   4.039  0.0714  0.1768 -0.1055
17793W        W34640   8.671  16.409   4.414 -0.0085 -0.3327 -0.0790
17794W        W34641  16.260  15.896  11.978 -0.0436 -0.0058 -0.1722
17795W        W34642   8.355   6.734  11.085 -0.0086  0.1133 -0.2620
17796W        W34643  17.809  18.381  11.831  0.0029 -0.1716  0.2458
17797W        W34644   7.838   6.913   2.353  0.1146 -0.4104  0.1798
17798W        W34645  11.596   3.713   9.761 -0.3098 -0.2528 -0.0166
17799W        W34646  14.262  13.138   5.617 -0.2374  0.1954 -0.0098
17800W        W34647  14.867  11.054  14.811 -0.0094  0.2787  0.0912
17801W        W34648   2.920  11.283  12.007 -0.2011  0.1694  0.0644
17802W        W34649   1.800  14.908   2.715  0.0861 -0.3209 -0.3169
17803W        W34650   9.071   8.821  12.027  0.2362 -0.1038  0.0051
17804W        W34651  16.016   6.674   1.528 -0.0198  0.1289 -0.4710
17805W        W34652  14.158  10.727   0.152 -0.0158 -0.2085  0.1075
17806W        W34653   1.092   0.575   3.639 -0.2617  0.0841  0.0658
17807W        W34654  12.414   0.295   2.120 -0.4502  0.3278 -0.0700
17808W        W34655  12.331   1.822  14.093  0.1212  0.2161 -0.0096
17809W        W34656   1.627  15.380   1.017  0.0849 -0.1510  0.0105
17810W        W34657  10.335  14.638   1.073 -0.0833 -0.0925 -0.3811
17811W        W34658   7.595  15.837  14.561 -0.0540  0.2512 -0.1289
17812W        W34659   6.919   2.445   3.826 -0.2354 -0.1403 -0.1152
17813W        W34660   9.843  16.366   3.068 -0.0463  0.0899 -0.4590
17814W        W34661  17.256  18.238  10.244  0.1180 -0.0668  0.1191
17815W        W34662   2.421   1.771  12.628  0.0241 -0.0937  0.3573
17816W        W34663   8.508  10.057  12.395 -0.0236  0.2326 -0.1524
17817W        W34664   5.811  17.915  13.021 -0.2326 -0.0194 -0.2170
17818W        W34665   4.603   3.946   4.143 -0.0206  0.0305  0.1650
17819W        W34666  18.129   1.433   0.919  0.2515  0.3176  0.1200
17820W        W34667  11.073  16.807   1.304  0.0329 -0.0420 -0.2049
17821W        W34668   3.114  15.677   1.172  0.0119  0.1173 -0.1421
17822W        W34669   7.706  19.139   3.532  0.0595 -0.2595 -0.2530
17823W        W34670   2.772   6.436   3.451  0.3377  0.0853 -0.0341
17824W        W34671   5.140  15.639  13.918 -0.0594 -0.1605  0.2993
17825W        W34672  11.632  13.663   2.429 -0.3446  0.5063  0.2463
17826W        W34673   1.376   4.746   2.755 -0.0928 -0.1007  0.1450
17827W        W34674   2.049   4.188   2.845 -0.0367  0.2226  0.0723
17828W        W34675  12.332   8.841   3.799 -0.0678  0.1574  0.2969
17829W        W34676   0.184  18.848  12.244  0.0621 -0.0921  0.2419
17830W        W34677   5.124  18.949  12.414  0.3485  0.3267  0.1422
17831W        W34678  13.795  10.047  13.127  0.1775 -0.1208  0.1117
17832W        W34679   9.614   3.995  14.712  0.1695 -0.2426 -0.2561
17833W        W34680  13.618  15.498  14.849  0.1128  0.1273  0.4041
17834W        W34681  16.451   3.425  13.412  0.2670 -0.3248 -0.0011
17835W        W34682   2.879   1.391  14.897 -0.2529  0.2340  0.3734
17836W        W34683   3.225   6.993  14.795 -0.0452  0.0669  0.1506
17837W        W34684  10.932  17.042  12.377  0.1697 -0.3631  0.0766
17838W        W34685   2.063   1.900   4.158  0.1539 -0.0282  0.4460
17839W        W34686  18.503  11.585   2.711 -0.0413 -0.2910  0.0223
17840W        W34687   5.969  17.175   3.619  0.0764  0.0629  0.0542
17841W        W34688   2.886   7.545  12.064  0.3893  0.1750  0.1425
17842W        W34689  12.982   3.589  11.055  0.0749 -0.2771 -0.1807
17843W        W34690  14.156  12.318   2.660  0.2090 -0.2131  0.0423
17844W        W34691  14.163   0.183  14.263 -0.0747 -0.1434  0.1959
17845W        W34692   9.725   6.767   1.796 -0.0316 -0.1790 -0.0485
17846W        W34693   1.057   6.337  12.222 -0.0348  0.2189  0.1264
17847W        W34694  11.265  11.059   4.274 -0.1583  0.2300 -0.0301
17848W        W34695   8.190   9.374  13.400 -0.0571  0.3687  0.1447
17849W        W34696   1.000   2.069  14.115 -0.2897  0.0613  0.0806
17850W        W34697   3.951  15.953   2.699 -0.0151  0.0961 -0.3291
17851W        W34698   3.664   6.399   0.898 -0.1606 -0.0447  0.4014
17852W        W34699   8.483   8.565  12.696 -0.4611  0.0753 -0.0053
17853W        W34700  17.854  18.165  12.685 -0.1687 -0.0905  0.1359
17854W        W34701  18.871  15.090  10.758  0.2042 -0.1050  0.1932
17855W        W34702   2.560  19.046  12.628 -0.3333 -0.2938 -0.1705
17856W        W34703   0.105  18.694   4.106  0.3433  0.0479 -0.1785
17857W        W34704   3.894   7.621   0.400  0.0502  0.3327  0.0224
17858W        W34705  12.876   9.554   9.648 -0.2352  0.3038 -0.3184
17859W        W34706  18.437  14.262   2.026 -0.0420  0.2673 -0.2473
17860W        W34707   2.106   4.831  13.855  0.0892 -0.0266  0.2332
17861W        W34708   8.475   3.169   1.598  0.1535 -0.2070 -0.2555
17862W        W34709  12.218  18.826   1.715  0.0789  0.3831  0.1770
17863W        W34710   2.361   8.239   2.643  0.2058 -0.2781  0.3905
17864W        W34711  11.015  17.362   0.109  0.2402  0.0754  0.0906
17865W        W34712  14.689   1.473  14.938 -0.0081 -0.0383 -0.0242
17866W        W34713  12.949   4.986   4.087  0.0841  0.2917 -0.0381
17867W        W34714   5.311   9.232  10.366  0.1354  0.1164  0.0949
17868W        W34715   3.097   9.017   9.450 -0.0544  0.1781 -0.1553
17869W        W34716  13.474  16.062   5.681  0.0882 -0.0285 -0.2966
17870W        W34717   6.585  15.270   0.344 -0.1153 -0.3304 -0.2002
17871W        W34718  15.307   6.726  12.060  0.0926  0.0410 -0.3657
17872W        W34719  12.082   3.871   4.658  0.1558 -0.1370  0.1497
17873W        W34720   8.201   4.103  13.165  0.0160  0.0871 -0.2880
17874W        W34721   9.310   2.699   3.761 -0.1224  0.2042  0.0235
17875W        W34722  11.738   6.514  12.819  0.2692  0.2074 -0.1534
17876W        W34723  12.573   5.229  12.319  0.0808 -0.1255 -0.0311
17877W        W34724  12.269  18.769   0.598 -0.2638 -0.1459  0.1383
17878W        W34725  10.989   9.734  14.264  0.2216 -0.2116 -0.0348
17879W        W34726   4.789  15.210  13.168  0.0463 -0.1941 -0.0501
17880W        W34727  10.891   4.935  12.813  0.2607 -0.1288 -0.0486
17881W        W34728  16.512   7.407  13.101  0.4072 -0.1619  0.0502
17882W        W34729   2.439  16.057  12.464 -0.2849  0.3191  0.1114
17883W        W34730   5.284  10.666  12.518  0.3032 -0.0317 -0.0802
17884W        W34731   4.604  17.937  10.814 -0.0415  0.2536 -0.0945
17885W        W34732  16.490   2.534   5.015  0.0475  0.4843  0.0940
17886W        W34733  18.193  15.745   9.834 -0.0614 -0.0708  0.0414
17887W        W34734  13.720   1.877  11.364  0.2935 -0.4593  0.0930
17888W        W34735   9.316  16.183  10.863 -0.0732 -0.1822  0.5876
17889W        W34736  17.542  11.631  10.588 -0.2888  0.0710  0.3319
17890W        W34737   8.114   9.578  11.850 -0.0337 -0.0200  0.2079
17891W        W34738   6.580   8.143   4.011  0.0427  0.2248  0.0596
17892W        W34739   4.545  14.592  12.943  0.0642 -0.2253  0.1475
17893W        W34740   2.538   8.214   3.734 -0.0087  0.0915  0.2108
17894W        W34741   6.578   8.676   3.397  0.0192 -0.1490 -0.1324
17895W        W34742   8.648   5.770   4.150 -0.1719 -0.0413 -0.3248
17896W        W34743  13.204  18.836   1.436  0.1499  0.2218  0.1165
17897W        W34744  16.520   9.416   2.428 -0.1915  0.0926 -0.0684
17898W        W34745  14.345   5.806  11.478  0.1204 -0.2074  0.2102
17899W        W34746   1.679   0.228  12.656  0.0367 -0.0470 -0.1914
17900W        W34747   6.253   9.084   3.633  0.1200  0.0426  0.0193
17901W        W34748  17.645  11.079  13.196  0.0870 -0.2085  0.1257
17902W        W34749  14.529   9.572  14.603  0.2539 -0.3106  0.1929
17903W        W34750   8.561  14.382  12.128  0.1040 -0.3971  0.0670
17904W        W34751  16.886   5.181  13.888  0.0642  0.0965 -0.2566
17905W        W34752   4.309   0.526  13.333  0.2485  0.1131  0.1201
17906W        W34753   1.317  19.145   4.757 -0.0590 -0.0270 -0.2069
17907W        W34754   8.701   7.672  12.164 -0.3087  0.1297  0.2304
17908W        W34755   4.334   0.027  13.398 -0.3191 -0.1960  0.3467
17909W        W34756   8.921  17.883   1.616 -0.0497 -0.0497  0.1113
17910W        W34757   1.182   6.928   1.960 -0.1549 -0.2136  0.1005
17911W        W34758  15.161  11.696  12.299 -0.1947  0.2848  0.2263
17912W        W34759   2.866   1.792   1.904 -0.2356 -0.0608 -0.1595
17913W        W34760   9.679  15.706  13.537 -0.1145 -0.1541  0.1576
17914W        W34761  10.275   8.897   3.930 -0.0631 -0.2504 -0.0130
17915W        W34762   4.222   7.845   4.202 -0.0794 -0.0255  0.1327
17916W        W34763   7.471  10.081  13.693  0.0351 -0.1320  0.0837
17917W        W34764  15.435   5.364   2.016 -0.0858  0.2329 -0.0448
17918W        W34765  12.177   4.648  11.804 -0.0082  0.0083  0.1716
17919W        W34766  14.912   4.522   1.881 -0.2669  0.2407  0.1168
17920W        W34767   7.946  16.109   0.379 -0.2869  0.0350 -0.0896
17921W        W34768  16.312   6.379  13.651  0.2299 -0.1507  0.0975
17922W        W34769   4.258  13.238   5.481 -0.0294  0.2719  0.2106
17923W        W34770   8.200   2.438   1.235  0.2929 -0.2079 -0.1300
17924W        W34771  10.517  14.308  11.088  0.3190  0.0192 -0.0585
17925W        W34772  11.523   7.087   0.711 -0.0879 -0.2100  0.0661
17926W        W34773  18.639   0.281   2.621 -0.1889  0.0543 -0.3181
17927W        W34774  13.100   7.776   2.229 -0.1767  0.1309 -0.2182
17928W        W34775   0.722   1.594  15.018 -0.2574  0.2680 -0.2819
17929W        W34776  10.934  10.799  12.413 -0.2685  0.0041 -0.0175
17930W        W34777  13.813  19.280   2.076 -0.0002  0.1906 -0.2052
17931W        W34778   1.652  12.156   0.745 -0.1359 -0.0086  0.1326
17932W        W34779   3.169   6.778   4.405  0.0182  0.1290 -0.0783
17933W        W34780   2.374  10.375   1.036 -0.0177 -0.4204  0.0699
17934W        W34781   9.044  16.892   2.716  0.1682 -0.3729  0.0368
17935W        W34782   5.208   5.444   2.914 -0.2216  0.1023 -0.2556
17936W        W34783  11.289   7.093  13.426 -0.2327 -0.1309  0.4058
17937W        W34784  13.697   5.866  10.472 -0.3091 -0.3269 -0.4113
17938W        W34785   4.060  11.086   1.324  0.2487 -0.1028  0.5620
17939W        W34786   6.073  11.903   9.437  0.2576  0.1179  0.0161
17940W        W34787  12.178  15.935  12.820 -0.1615 -0.0320 -0.3234
17941W        W34788  12.873   3.262   0.493 -0.1654  0.0762 -0.1609
17942W        W34789  11.409   8.630  13.323 -0.1079 -0.2396 -0.2069
17943W        W34790  14.654  14.968  11.461 -0.3064 -0.0441 -0.4558
17944W        W34791  18.409  15.752   1.792  0.5448 -0.1159  0.0087
17945W        W34792  16.749   8.866  11.909 -0.2675  0.0814 -0.1538
17946W        W34793   2.107  11.010  13.833  0.1162 -0.1793 -0.4197
17947W        W34794   8.914  16.684  14.759 -0.0998  0.2029  0.1027
17948W        W34795  16.978   7.647  10.817  0.2335  0.0519  0.0019
17949W        W34796  18.300   3.597   3.700  0.1201  0.0007  0.0290
17950W        W34797   0.689  14.134   0.637  0.1621  0.0600 -0.0293
17951W        W34798  10.141  10.418   1.076  0.0206 -0.0980  0.0893
17952W        W34799  15.859   9.142  14.293 -0.1350 -0.0203  0.3963
17953W        W34800  16.953   7.078   4.376  0.3190  0.0575  0.0372
17954W        W34801  17.781  16.153   5.678 -0.1862  0.0981 -0.0965
17955W        W34802   3.586  18.497  12.830  0.1731 -0.0178  0.2004
17956W        W34803  17.630   6.650   2.427 -0.2203 -0.1404  0.3270
17957W        W34804  11.201   4.859   0.748  0.2485 -0.1451 -0.0274
17958W        W34805  14.812  11.097   3.361 -0.0146 -0.0068  0.2561
17959W        W34806  10.028  12.137   4.756  0.2181  0.0104  0.0512
17960W        W34807  11.489   4.677   1.674  0.0584  0.5942  0.0893
17961W        W34808  16.638   0.838  12.751 -0.0935  0.1878  0.1850
17962W        W34809  18.582   7.489   3.431  0.2939  0.0038 -0.3036
17963W        W34810   5.346   6.247  13.759  0.2458  0.0797 -0.1743
17964W        W34811  17.051   8.367  13.503  0.0884  0.2634  0.1687
17965W        W34812   4.882   0.834   5.438  0.2391 -0.0325 -0.2721
17966W        W34813   8.727  19.202   4.872 -0.0447 -0.0179 -0.0552
17967W        W34814   1.143   8.078  10.877 -0.2263 -0.1176 -0.1612
17968W        W34815   7.167  11.398   4.112 -0.1763 -0.0503  0.5874
17969W        W34816  15.754   1.824   1.227  0.3758 -0.4455  0.0208
17970W        W34817   4.482   9.984  12.149  0.3567  0.0061  0.0160
17971W        W34818  16.174   3.230   2.852 -0.1222  0.1814 -0.0592
17972W        W34819   3.363   0.526  13.563  0.0744  0.0243 -0.0999
17973W        W34820   4.454   3.803   3.135 -0.2988  0.3540  0.1362
17974W        W34821   3.535  12.743  14.596 -0.4210 -0.3256  0.1062
17975W        W34822   5.166  16.898  12.484 -0.0118  0.0297  0.0632
17976W        W34823   6.831   8.702   1.869  0.1320  0.1224 -0.1131
17977W        W34824   8.385   8.601   5.179 -0.1088  0.0902 -0.2855
17978W        W34825   3.243  15.019   0.657 -0.5302  0.1560 -0.0746
17979W        W34826   1.396  13.491   2.089  0.0711  0.0467  0.1579
17980W        W34827  12.471  12.172  10.543  0.1063 -0.0106  0.0089
17981W        W34828   4.179   8.705   4.497  0.2332 -0.0898  0.1188
17982W        W34829  11.125  11.266  12.492 -0.3643 -0.0661  0.2353
17983W        W34830   1.471  10.990  10.434  0.1708  0.2706 -0.2480
17984W        W34831   9.759  12.555  14.131 -0.2257  0.3367 -0.1504
17985W        W34832  10.965  14.091  14.126 -0.1150 -0.2364 -0.0698
17986W        W34833  11.987  15.520  11.692  0.0214 -0.2910 -0.2191
17987W        W34834  12.943   6.334  11.529  0.0282  0.0119  0.3711
17988W        W34835   7.359   1.163  11.145 -0.1942  0.0152  0.2537
17989W        W34836  12.096  16.533   2.194  0.1370  0.5624 -0.2118
17990W        W34837   8.163   7.901  11.191 -0.1152 -0.2374  0.1652
17991W        W34838  15.649   9.380  11.993  0.0845  0.1316  0.0992
17992W        W34839   8.575   1.043  13.600  0.1484  0.3248 -0.0864
17993W        W34840  16.211  11.742   1.736  0.1219  0.0751 -0.1467
17994W        W34841   1.134  14.152   1.060  0.1819  0.2027 -0.0761
17995W        W34842   8.459  18.898   4.584 -0.0205  0.1328  0.0588
17996W        W34843  16.696   8.639   0.375 -0.1361 -0.0602  0.0210
17997W        W34844   1.497   1.039  14.094  0.0252  0.1815 -0.2157
17998W        W34845  14.652  11.293   4.873 -0.2299  0.0268  0.1140
17999W        W34846   5.451  10.747   1.557 -0.4007  0.0314  0.1573
18000W        W34847   7.282   7.760   4.762  0.2163  0.0986 -0.3092
18001W        W34848   2.346   3.796   2.932  0.3140 -0.1061  0.0080
18002W        W34849  10.932   5.643  14.183  0.2143 -0.1700 -0.4240
18003W        W34850  10.415  16.297  12.725 -0.0641  0.1770 -0.3576
18004W        W34851   0.309   9.999   4.312  0.1568 -0.4358  0.0102
18005W        W34852   0.987  16.575  11.110  0.1219  0.3442 -0.1632
18006W        W34853  13.343   9.300  12.712  0.0098 -0.2128 -0.2583
18007W        W34854  10.026   7.040   3.148 -0.1155  0.1233  0.1252
18008W        W34855  10.349   6.525   2.718  0.0893 -0.2643  0.1170
18009W        W34856   2.476   3.422  13.606  0.1512  0.1276 -0.2001
18010W        W34857  18.873   3.362   3.444  0.0766 -0.0805 -0.0342
18011W        W34858   7.582   0.440   5.542 -0.0455 -0.0286 -0.2955
18012W        W34859   9.246  18.822   2.136  0.1123  0.1440  0.0650
18013W        W34860   1.003   9.450  13.108 -0.1167 -0.1352 -0.1150
18014W        W34861   4.867   7.296  14.606 -0.0962  0.0193 -0.0600
18015W        W34862   1.185   5.990  14.477 -0.2446 -0.1288  0.5420
18016W        W34863   9.788   6.781   2.782  0.1071 -0.2130  0.0761
18017W        W34864   9.068   0.336   0.819 -0.0086 -0.0712 -0.3361
18018W        W34865  17.410  10.887   2.212 -0.0867  0.0245 -0.2165
18019W        W34866  14.273   4.030  11.075 -0.1325 -0.1827 -0.0970
18020W        W34867   9.868  12.912   9.230  0.1100  0.2390 -0.2642
18021W        W34868   2.510  19.185   1.366 -0.3601 -0.0614 -0.2240
18022W        W34869   4.371  10.653  12.323  0.1547  0.1029  0.1798
18023W        W34870  17.680   9.284   3.968 -0.0520 -0.3837 -0.0858
18024W        W34871   5.733   6.775  10.507  0.2142 -0.2291  0.0294
18025W        W34872  18.705   5.504   2.233 -0.0376  0.0581  0.0135
18026W        W34873  14.724   5.235   3.909 -0.0281 -0.3212  0.2145
18027W        W34874  10.177   3.448   2.349  0.0579  0.0476  0.2544
18028W        W34875   9.234   2.275   3.387  0.0114 -0.2235 -0.1186
18029W        W34876  12.347  12.823  14.132  0.1556 -0.2140 -0.0132
18030W        W34877  13.247  18.072  12.335  0.3105  0.1663 -0.1661
18031W        W34878  17.926   8.516  11.614 -0.2068  0.1259  0.2015
18032W        W34879   4.833  14.419   5.033  0.0167 -0.0757  0.1214
18033W        W34880   0.425   1.606  13.694 -0.0091 -0.2917  0.1095
18034W        W34881   8.447  10.910  12.378 -0.0228  0.4297  0.2684
18035W        W34882   9.435   2.082  13.960 -0.0545 -0.1322 -0.2572
18036W        W34883   7.911  10.830   3.199  0.1709 -0.2326 -0.1847
18037W        W34884   9.797  10.258  13.040 -0.0303  0.0692 -0.0099
18038W        W34885  15.760   1.970   5.776 -0.1026  0.0671  0.1295
18039W        W34886   6.473   6.336  11.857 -0.1441  0.4158  0.3108
18040W        W34887  13.539   6.826  14.945  0.0091  0.0825 -0.3053
18041W        W34888  12.646  18.757   3.103  0.1848 -0.0199 -0.0417
18042W        W34889   8.598   9.716  11.919  0.0682 -0.1147  0.0482
18043W        W34890  11.057  10.114   3.287 -0.0071 -0.1828  0.0083
18044W        W34891   2.405  16.010  13.840 -0.1374  0.0506 -0.3693
18045W        W34892   3.352   3.559  11.982  0.4599  0.0914  0.0861
18046W        W34893  16.754   0.803   3.769 -0.0071 -0.0196  0.0991
18047W        W34894   0.216  10.466  13.293  0.0275  0.1563  0.0131
18048W        W34895  18.395  13.069  13.713  0.4185  0.2323  0.2200
18049W        W34896  18.430   4.552   2.150  0.0269  0.1445  0.1364
18050W        W34897  10.685   9.926  12.696 -0.0755  0.0264  0.1981
18051W        W34898   3.208  13.063   2.518 -0.1243  0.0476 -0.1620
18052W        W34899  10.842   7.495  11.790  0.3309  0.1385  0.1452
18053W        W34900   5.512   4.425   1.038 -0.0508  0.0711  0.1926
18054W        W34901   8.794  11.137  12.039  0.1375 -0.3464  0.0664
18055W        W34902   1.295  13.734   5.355  0.0555  0.0710  0.3687
18056W        W34903   2.552   3.348   5.566  0.0750  0.0456  0.0700
18057W        W34904  13.695   5.291  10.613 -0.0371  0.2643  0.1781
18058W        W34905   7.193  18.447  13.198  0.0722  0.3679  0.0761
18059W        W34906   0.429  12.326   3.715  0.3047  0.1649  0.3309
18060W        W34907  12.569  10.868  12.414  0.2055  0.3836 -0.6006
18061W        W34908   3.330   8.189   2.400  0.1161  0.1959  0.0606
18062W        W34909  11.599  13.030   3.826  0.3479  0.2192  0.0908
18063W        W34910   0.630   4.988   0.077 -0.0964 -0.2436 -0.1297
18064W        W34911   8.093  15.861   2.274  0.5224 -0.0925  0.0700
18065W        W34912  12.442  15.673  11.438  0.1405  0.0722  0.0338
18066W        W34913  12.788   6.371   3.985 -0.1334  0.2507 -0.1975
18067W        W34914   4.266   1.484   3.447 -0.1903 -0.0746 -0.2052
18068W        W34915  12.647  11.603  14.433  0.0077 -0.3297 -0.1213
18069W        W34916   7.946  12.624   3.157 -0.0829 -0.3375 -0.1379
18070W        W34917   5.491   3.345   1.703 -0.1332  0.1176 -0.1322
18071W        W34918   1.656  10.672   5.223 -0.0802  0.0634  0.0773
18072W        W34919   9.860  10.748  12.117 -0.0663  0.0413 -0.2670
18073W        W34920   4.950   0.755   3.669 -0.3494 -0.2233  0.1216
18074W        W34921   3.462  12.476  13.480 -0.0257 -0.0753  0.1096
18075W        W34922   6.116  18.407  11.577 -0.0774  0.2541  0.3021
18076W        W34923   2.361   4.427   4.718 -0.3593  0.1388  0.2017
18077W        W34924   2.430   5.515   3.779 -0.1229 -0.4288 -0.0755
18078W        W34925  14.863  11.860   2.704 -0.2002  0.1509 -0.0970
18079W        W34926   5.840   4.274   5.264 -0.1846  0.0968 -0.1197
18080W        W34927  14.444   2.837  12.686 -0.2890 -0.1879 -0.0501
18081W        W34928  12.060  15.375  13.124  0.1113  0.0048 -0.1408
18082W        W34929   3.091   7.967  10.955  0.1991  0.4750 -0.2636
18083W        W34930  11.254   0.866  13.736  0.0645 -0.2660  0.0241
18084W        W34931   6.156   6.745  12.159  0.1187 -0.2059 -0.0455
18085W        W34932  13.743  14.668   3.586  0.2069 -0.0567  0.0720
18086W        W34933   4.992   9.517  14.164 -0.0740  0.0770  0.0362
18087W        W34934   1.433   7.945   1.545  0.0179 -0.1378 -0.0568
18088W        W34935  10.004   4.131  13.058  0.0884 -0.0881  0.0901
18089W        W34936  11.125   0.670  10.934 -0.3036 -0.1377 -0.0393
18090W        W34937   3.251   1.915  13.348 -0.1060 -0.2648  0.2893
18091W        W34938  14.471   3.715   4.597 -0.2938 -0.0611 -0.0460
18092W        W34939  13.325  10.492  10.621 -0.2239  0.0093 -0.0326
18093W        W34940  15.664   3.486  11.873  0.2075  0.0118 -0.0409
18094W        W34941  14.620   0.378  13.319  0.0368 -0.2234  0.3417
18095W        W34942  17.452   7.211  13.408 -0.3339  0.0843  0.1002
18096W        W34943  13.179   1.988   1.582 -0.3660  0.2633 -0.0059
18097W        W34944   8.927   8.026  14.541  0.0156  0.1952 -0.3225
18098W        W34945   5.922   0.360   4.113  0.0826  0.2267 -0.0075
18099W        W34946   6.324  17.358  13.688  0.1135 -0.0002 -0.2044
18100W        W34947  10.084  15.668  11.223  0.0880  0.4352 -0.1084
18101W        W34948  13.251  12.947   4.421  0.0565  0.0337 -0.0426
18102W        W34949   2.036  11.183   2.180  0.2358  0.1070 -0.1777
18103W        W34950   9.854  19.035  13.711 -0.1154  0.0460 -0.1640
18104W        W34951  17.980   6.375   3.782 -0.2994 -0.0042  0.3060
18105W        W34952   0.305  17.588   4.852 -0.0580 -0.1140  0.0545
18106W        W34953   7.500  16.440   5.178 -0.1807 -0.0387  0.0284
18107W        W34954   3.424   6.519   2.437  0.0747  0.0053  0.1050
18108W        W34955   8.105   1.754   4.515  0.0063 -0.0440 -0.2483
18109W        W34956   8.874  15.530   0.764  0.3398 -0.0404  0.0837
18110W        W34957   0.167   8.226   3.986 -0.1802 -0.0366  0.1053
18111W        W34958   5.834   6.261   0.238  0.0222  0.0795 -0.3844
18112W        W34959  16.456   7.668  14.080 -0.2205  0.0322 -0.0423
18113W        W34960   2.665   7.043   1.154 -0.4727  0.1096 -0.0265
18114W        W34961  17.439   8.948  13.951 -0.4427  0.1945  0.1886
18115W        W34962  17.021   5.889  11.147 -0.0407 -0.1352  0.1252
18116W        W34963   2.690  14.620  12.540  0.1118 -0.1454  0.0944
18117W        W34964   1.908   0.875   4.695  0.2922  0.1411  0.3427
18118W        W34965   4.634  18.890   0.147  0.2683 -0.0416 -0.1481
18119W        W34966  12.634  14.033  13.798  0.3205 -0.0538  0.0047
18120W        W34967  17.251   7.467   0.439 -0.3739 -0.0550 -0.0654
18121W        W34968  18.025  13.567  12.575 -0.0225  0.0921 -0.1833
18122W        W34969  11.444   2.608   4.114  0.1707  0.1549 -0.0095
18123W        W34970  10.497  16.005   0.501  0.1157 -0.0259 -0.0312
18124W        W34971   9.223  15.804   3.657  0.1207  0.0787 -0.1188
18125W        W34972  12.000   8.180   3.600 -0.0974 -0.0729 -0.2301
18126W        W34973  12.757   5.426  10.762 -0.0948 -0.1486  0.1315
18127W        W34974  13.148   1.156   3.250  0.0369 -0.0891 -0.5480
18128W        W34975  10.283  14.832  10.946  0.0526 -0.0187  0.1795
18129W        W34976   0.494   6.741   0.637 -0.1190  0.1192 -0.2308
18130W        W34977   6.057   8.643   3.778 -0.2315 -0.0582 -0.2255
18131W        W34978   5.541   6.082  12.370 -0.0685 -0.2813  0.4618
18132W        W34979  15.016  12.887   4.811 -0.0963 -0.0894  0.1184
18133W        W34980   2.375   7.996  11.579 -0.1854 -0.0815  0.3320
18134W        W34981   8.760  12.782  13.572 -0.0463 -0.3644 -0.2818
18135W        W34982  18.066   2.163   1.327  0.2154  0.0318 -0.1675
18136W        W34983   4.149   1.421   2.365  0.2778  0.1275 -0.1478
18137W        W34984  13.694   7.891  12.289  0.1572 -0.2261 -0.2639
18138W        W34985   5.736  16.644  11.532 -0.0541 -0.0255 -0.1553
18139W        W34986   4.731  10.113   4.026 -0.0020  0.0393 -0.0807
18140W        W34987  15.886  18.461   3.007  0.0927  0.0640  0.1104
18141W        W34988   8.370  10.088  14.136  0.2003 -0.3998 -0.2634
18142W        W34989   9.799   4.398   4.805  0.1443  0.5193  0.0163
18143W        W34990   7.116   1.482   2.745  0.0715 -0.4085 -0.0471
18144W        W34991   0.159   7.411   3.893 -0.0568 -0.0119 -0.0856
18145W        W34992  10.994   7.406   2.542 -0.2063  0.0353  0.0190
18146W        W34993   1.800  12.677   1.174  0.0792  0.2272  0.1014
18147W        W34994   0.228   9.145  10.695  0.1657 -0.0674  0.1421
18148W        W34995   3.905  14.601  14.943 -0.1806  0.1095  0.1826
18149W        W34996   3.380   0.938  13.280 -0.0529 -0.1207 -0.1555
18150W        W34997  17.554   2.674   2.045  0.1895 -0.6180  0.0481
18151W        W34998   6.152   8.864  10.825 -0.2720  0.1265  0.1713
18152W        W34999  10.841  18.397  12.431  0.3344  0.1968 -0.0985
18153W        W35000  16.056  16.514   4.197 -0.1554  0.2369  0.1321
18154W        W35001   8.288  17.994   3.434  0.1061 -0.0777 -0.0628
18155W        W35002   6.608  15.542  14.951  0.0174 -0.0082 -0.3337
18156W        W35003  17.871   8.377  13.437  0.2636 -0.1604  0.1591
18157W        W35004  12.562  16.207   0.281  0.0513  0.1725 -0.1534
18158W        W35005  13.427   0.124   3.085  0.3712 -0.0204 -0.1779
18159W        W35006   1.243  15.325   1.343  0.0299  0.0493  0.2018
18160W        W35007  13.561  16.459  14.986 -0.2013  0.0274  0.3201
18161W        W35008  17.399   1.672   4.570  0.2296 -0.0705  0.0818
18162W        W35009   5.612   9.453  14.812  0.5714  0.0324 -0.0717
18163W        W35010  12.007   7.442   2.891 -0.0852 -0.0131  0.1530
18164W        W35011   3.956  12.862   1.652 -0.3427  0.1737  0.1319
18165W        W35012   7.436   2.991   3.965 -0.1106 -0.1971 -0.2440
18166W        W35013  10.647   3.211  12.533  0.1316  0.2468  0.0282
18167W        W35014   0.791  16.671   1.914 -0.1584 -0.0905 -0.0581
18168W        W35015   6.051   5.077   2.896  0.0324  0.1663 -0.0860
18169W        W35016  11.806  17.308   3.318  0.1530 -0.1923 -0.4272
18170W        W35017   7.290   3.386   3.721 -0.1339 -0.1458 -0.2037
18171W        W35018  14.921   1.243  13.974 -0.0992  0.0322 -0.2266
18172W        W35019  17.960   0.737   3.672 -0.0290  0.1347  0.1146
18173W        W35020  11.464  16.702   2.293  0.0565  0.1728  0.0910
18174W        W35021   1.695  16.777   2.682 -0.0580  0.0286 -0.0461
18175W        W35022  18.632   4.031  13.646 -0.3987 -0.4045  0.1722
18176W        W35023  17.007   0.613   4.766 -0.1966  0.0282 -0.0260
18177W        W35024   7.394  11.355  14.942  0.0217 -0.1146  0.2446
18178W        W35025  10.512   2.046  13.242 -0.1071  0.4476  0.0780
18179W        W35026   1.095   3.288   1.951 -0.1797 -0.2907  0.0793
18180W        W35027  15.140   7.160  10.534  0.3107 -0.0233 -0.0460
18181W        W35028   1.596  10.303  12.807 -0.1475  0.0302 -0.1313
18182W        W35029   6.273  18.382  14.179  0.0004  0.3377 -0.1064
18183W        W35030   2.654   0.079  13.875 -0.4083 -0.2814 -0.1063
18184W        W35031  15.260   1.215   4.788 -0.2834  0.1174  0.0616
18185W        W35032   3.663   2.520   3.847  0.1233  0.3679  0.1869
18186W        W35033   8.476   7.886  13.758  0.0494 -0.0516  0.0145
18187W        W35034   2.928   2.048   0.747 -0.0435  0.1445 -0.1899
18188W        W35035  17.070   4.955   2.250  0.3036  0.0242  0.2071
18189W        W35036  17.191   7.255   4.834  0.0552 -0.0234  0.1676
18190W        W35037  17.006  10.160   1.759 -0.2340 -0.1087 -0.0702
18191W        W35038  12.815  14.513  10.848 -0.0536 -0.0496  0.1835
18192W        W35039   3.741  17.814   1.618  0.0149 -0.0425 -0.4677
18193W        W35040  15.700  15.447   0.383  0.3356 -0.2492 -0.0897
18194W        W35041  14.805  16.587   5.817  0.1258 -0.1238  0.3250
18195W        W35042  15.081   3.519  14.360  0.2262 -0.4499  0.3748
18196W        W35043   2.733  14.111  11.835 -0.2593 -0.4978 -0.0845
18197W        W35044  10.693   1.895   5.120 -0.4157 -0.0122  0.0184
18198W        W35045  10.334   9.659  11.801  0.1431 -0.0113 -0.2005
18199W        W35046   0.136   1.296   5.076  0.2079  0.4160 -0.1455
18200W        W35047  12.842  12.415   2.818 -0.0803  0.0816 -0.0205
18201W        W35048   4.037   1.637   2.844 -0.3165 -0.2976 -0.2750
18202W        W35049  18.493   8.096  12.459  0.1107 -0.0409  0.1906
18203W        W35050  11.228   3.985  13.552  0.2079  0.1385 -0.0041
18204W        W35051  15.495  11.422  10.970 -0.0015 -0.1507  0.2914
18205W        W35052  13.026  10.196   3.868  0.3465  0.3634 -0.0348
18206W        W35053   2.265   5.041   3.331  0.0197  0.6010  0.1504
18207W        W35054  13.441   8.614  10.550 -0.2769  0.2169  0.1519
18208W        W35055  11.155   2.533   0.848  0.0624  0.0958  0.3136
18209W        W35056   6.694  15.486  10.828  0.3248 -0.2193 -0.0869
18210W        W35057   5.252   3.573  14.425 -0.3068 -0.0981 -0.0328
18211W        W35058  14.233  14.656  13.868 -0.0574 -0.3556 -0.1715
18212W        W35059   5.893  13.073   1.895 -0.2782 -0.0700 -0.0774
18213W        W35060   0.351   8.314  11.517  0.1676 -0.1454 -0.1588
18214W        W35061   3.379  12.258   0.375  0.0764  0.0547 -0.1466
18215W        W35062  12.898   8.626  10.492 -0.0678 -0.2487  0.0806
18216W        W35063  12.463   6.248   1.164  0.0038 -0.0968 -0.0868
18217W        W35064   4.908   9.131   1.946 -0.0878 -0.0499 -0.0748
18218W        W35065   1.053   6.897  12.160 -0.1180 -0.0566  0.0410
18219W        W35066  13.691  15.743   2.073 -0.1123 -0.1141 -0.2602
18220W        W35067   6.171  10.317  10.768  0.1976  0.2041 -0.1779
18221W        W35068   0.126  10.979   4.431  0.5780  0.4461 -0.0255
18222W        W35069   9.288   3.665  14.709 -0.0616 -0.2696  0.4520
18223W        W35070   9.576  17.753  11.440 -0.0049  0.0516  0.0639
18224W        W35071   0.746   9.900  13.253  0.1082  0.1663 -0.1063
18225W        W35072  17.505   7.995   2.071  0.0042  0.0481 -0.2279
18226W        W35073   4.370   7.536  14.664 -0.0647  0.1552  0.1821
18227W        W35074  15.578  11.627   1.811  0.1548  0.0178  0.1468
18228W        W35075   9.045   4.046  10.753 -0.2125  0.1991 -0.0681
18229W        W35076  15.204  17.434  12.023  0.1228  0.0252  0.1366
18230W        W35077  16.535   5.803   1.605  0.1992 -0.2228  0.2311
18231W        W35078   6.208   8.611   1.868  0.1465 -0.0257 -0.1396
18232W        W35079  14.436   3.931  11.978 -0.1739  0.2694 -0.2174
18233W        W35080   7.486  16.197  12.476 -0.0444  0.2299 -0.3960
18234W        W35081   3.666   2.841  14.247  0.0327 -0.3755 -0.0965
18235W        W35082  18.044   5.092   4.390  0.0086 -0.0393 -0.0585
18236W        W35083   9.811   8.783  11.187 -0.0792  0.2716  0.0738
18237W        W35084  14.843   0.864  12.563 -0.1712 -0.1001 -0.3710
18238W        W35085   8.478  14.134   2.325 -0.0063  0.0032  0.1123
18239W        W35086  13.821  16.560  12.173  0.0551 -0.1097  0.2116
18240W        W35087  11.887   4.746  13.310  0.2447  0.0041  0.0520
18241W        W35088   4.552  16.288  14.241  0.0419 -0.1195 -0.2892
18242W        W35089   2.327  17.531   2.685 -0.0196  0.3383 -0.0656
18243W        W35090  12.738  16.362   5.113 -0.0118  0.1009 -0.1006
18244W        W35091  14.713  15.901   2.722 -0.2617 -0.0612  0.3248
18245W        W35092   7.381   9.887  11.175 -0.2753 -0.1432  0.1745
18246W        W35093  12.050   7.324   4.023 -0.2142 -0.2352  0.1517
18247W        W35094  14.770  12.113  12.431  0.2823  0.0708  0.1162
18248W        W35095  14.351  14.245   2.901  0.0614 -0.1493  0.1739
18249W        W35096  10.396  13.537   1.926  0.0823  0.3260 -0.1979
18250W        W35097  12.533   8.363   1.385 -0.3619 -0.0407 -0.0088
18251W        W35098   3.474   8.465   4.402 -0.2391  0.0712 -0.1780
18252W        W35099   8.992  11.589  10.918  0.0715  0.1291 -0.0126
18253W        W35100  15.063  10.493  14.164  0.0755  0.0333  0.0975
18254W        W35101   1.614  11.049  12.050  0.1028 -0.2472  0.1462
18255W        W35102   2.520   1.450  14.550  0.3538 -0.1131  0.2010
18256W        W35103  11.483  13.358   1.936  0.2170  0.0450 -0.0354
18257W        W35104  16.309   2.559   4.498 -0.2029 -0.1222 -0.2178
18258W        W35105   8.456  12.964  11.874  0.1927  0.1843  0.0786
18259W        W35106   1.832  19.202  10.825 -0.1707  0.1663 -0.2262
18260W        W35107   0.950   3.338  14.257 -0.1375  0.0028  0.0543
18261W        W35108  10.106   3.498  14.364 -0.0258  0.0304  0.2103
18262W        W35109  17.639  12.069  11.284 -0.1022 -0.2198  0.0666
18263W        W35110   2.011  11.367   0.146 -0.0716  0.3208  0.0431
18264W        W35111   5.828   1.482   9.639  0.0217  0.0557 -0.2873
18265W        W35112   9.491  19.208   3.650  0.1129  0.0494 -0.0630
18266W        W35113  12.240   2.708   4.410  0.3655  0.0780  0.0966
18267W        W35114  15.165  14.951  12.546  0.4978 -0.0239 -0.1944
18268W        W35115   6.260  16.746  10.746 -0.0164 -0.1290 -0.3437
18269W        W35116  13.215  12.503  14.372 -0.2437  0.0264 -0.0460
18270W        W35117   6.273   6.300  10.867  0.0164  0.0738 -0.0280
18271W        W35118  10.058  15.431  11.705 -0.1575 -0.1738 -0.1698
18272W        W35119  13.612  17.630   0.185  0.2228  0.1576 -0.1120
18273W        W35120   2.554   0.433  10.389  0.0721 -0.2704 -0.1284
18274W        W35121   9.995   7.167   3.881  0.0030 -0.2168 -0.1511
18275W        W35122  10.795  16.152   3.266 -0.0056  0.0578 -0.3249
18276W        W35123   6.702  15.652  12.050  0.1014  0.0382 -0.3322
18277W        W35124  13.111   7.622   0.515  0.1633  0.2683  0.1744
18278W        W35125   4.834  16.322  10.214  0.1226 -0.2922  0.0940
18279W        W35126   0.758  11.239  13.402  0.1673  0.1882  0.2644
18280W        W35127   7.031   9.843   4.909 -0.0353  0.0190 -0.0825
18281W        W35128   5.711   6.001   3.168 -0.0666 -0.0280 -0.1445
18282W        W35129   5.596  15.143   0.113 -0.0157 -0.2352  0.3818
18283W        W35130   4.760  13.641  10.208  0.1008  0.2250 -0.2981
18284W        W35131   3.261  18.268   3.671 -0.1174  0.0385 -0.2459
18285W        W35132   6.942   0.497   4.969  0.2007 -0.1752  0.1175
18286W        W35133  15.802  12.331  11.087  0.2915  0.0300 -0.1050
18287W        W35134  14.759  12.270   1.647 -0.1491  0.0489  0.0385
18288W        W35135   0.396   4.099  11.958 -0.0851 -0.1352  0.0766
18289W        W35136   9.951   0.133   5.417 -0.2003  0.3751 -0.0020
18290W        W35137   4.045  10.769   0.339 -0.1806  0.0108 -0.2179
18291W        W35138  18.856  11.842  11.062 -0.2578  0.1135 -0.0828
18292W        W35139  14.118  12.187   2.103  0.1487  0.0953  0.2374
18293W        W35140  12.456   3.257  11.170  0.3445  0.0051  0.2058
18294W        W35141  16.714  15.969  12.751  0.0663 -0.2258 -0.3972
18295W        W35142   1.855  12.107  13.957  0.0903 -0.0197 -0.0552
18296W        W35143  10.024   3.366   5.030  0.3909  0.1429  0.1136
18297W        W35144   9.505   2.761   1.283  0.0839 -0.0067 -0.0002
18298W        W35145  17.078  18.552   2.688 -0.1684 -0.2009  0.0100
18299W        W35146   0.242   8.574   2.168  0.0510 -0.0225 -0.1698
18300W        W35147  16.543   4.326   2.306  0.0784  0.1788 -0.1745
18301W        W35148   5.547   6.643   0.487 -0.1356 -0.0094 -0.0640
18302W        W35149  13.343   9.915  11.513  0.1567  0.0645 -0.1782
18303W        W35150  16.307   6.013  13.280 -0.0347 -0.0370 -0.2221
18304W        W35151   4.044  14.919   3.890  0.3155  0.0195  0.0741
18305W        W35152   6.834   0.562   4.384 -0.0166  0.0548 -0.0202
18306W        W35153   6.520   7.949  12.762  0.0451  0.2825 -0.2973
18307W        W35154  15.421  12.414   5.198 -0.1545  0.0134  0.0623
18308W        W35155  12.610   2.662  12.649  0.1429 -0.3769 -0.0173
18309W        W35156  15.614  13.191  10.915  0.4123 -0.0838  0.1045
18310W        W35157  15.179  16.136   4.440 -0.0215  0.2914  0.2189
18311W        W35158  11.707   3.132  12.487 -0.0694  0.1306 -0.1516
18312W        W35159  13.021   9.417  15.003  0.1518  0.1308  0.2972
18313W        W35160  11.827   7.918   2.951  0.0013 -0.1542 -0.0819
18314W        W35161   0.535   9.664  14.370 -0.1947  0.3171 -0.2352
18315W        W35162   6.848   8.629  12.567 -0.1289  0.1543  0.0493
18316W        W35163  18.536  11.585  11.329 -0.0380 -0.0020  0.0908
18317W        W35164   2.338  15.850  10.153 -0.1802  0.1430  0.1501
18318W        W35165   9.626  14.427   3.949 -0.2435 -0.2578  0.3713
18319W        W35166  13.466  17.948   1.798 -0.4147  0.0231 -0.1399
18320W        W35167   3.961   8.999   0.132 -0.0285  0.0354 -0.3327
18321W        W35168  15.937  16.300   4.679  0.1511 -0.1581 -0.0257
18322W        W35169   0.359  15.205  13.110  0.2144  0.2156  0.2398
18323W        W35170  13.968   0.121   4.840  0.2868  0.2291 -0.1354
18324W        W35171   1.728   0.796   2.137  0.0886 -0.0462 -0.3470
18325W        W35172  17.493  17.036   5.365 -0.1442 -0.1011 -0.3734
18326W        W35173   2.883   9.259  11.175  0.0755  0.0078  0.0354
18327W        W35174  13.850   5.465   3.240 -0.0434  0.0845  0.0289
18328W        W35175   2.846   0.131   5.541  0.0073  0.1671  0.0248
18329W        W35176   5.576   9.863   1.015  0.0094  0.1447 -0.1017
18330W        W35177   6.454  18.498   1.385 -0.0841  0.3670  0.1956
18331W        W35178   0.505   4.891  11.497  0.2739 -0.1543  0.1145
18332W        W35179   1.427   4.966   5.443 -0.2850 -0.0614 -0.1135
18333W        W35180  13.629   4.977  13.862  0.0311 -0.0158 -0.0961
18334W        W35181  12.160   3.560  10.875  0.1460  0.3059  0.3375
18335W        W35182   1.098   5.565  11.773 -0.2817 -0.0366 -0.2439
18336W        W35183   9.013  18.382   2.387  0.2859 -0.2526 -0.1869
18337W        W35184   2.591   3.497   0.975  0.0869  0.3115 -0.0982
18338W        W35185   8.972  14.000   3.547 -0.1175 -0.3805 -0.2985
18339W        W35186  13.162  18.331  13.895  0.1420  0.2975  0.1208
18340W        W35187   2.142  18.023   2.563  0.0176 -0.0871  0.2299
18341W        W35188  14.611   8.031   1.903  0.1630 -0.2698 -0.0098
18342W        W35189  12.364  14.263   0.649  0.0805  0.1341  0.0566
18343W        W35190  17.253   3.741   5.433 -0.0472 -0.0551  0.0108
18344W        W35191  14.392   8.360   0.853 -0.0125 -0.1517 -0.1656
18345W        W35192   3.212   5.700   0.701  0.0394 -0.0182  0.1536
18346W        W35193  13.841  16.457   3.290 -0.1952 -0.1037 -0.1366
18347W        W35194   4.199   4.279  13.956 -0.1605  0.0084 -0.0633
18348W        W35195  14.119   8.843   4.356 -0.2486  0.3370  0.2012
18349W        W35196   3.779   3.766  12.210  0.3311 -0.4572  0.3815
18350W        W35197  18.456  17.001   2.719  0.0435 -0.0631 -0.2542
18351W        W35198   8.389   5.794   9.985 -0.1892  0.6418  0.1156
18352W        W35199   8.369  15.686  12.263 -0.1911 -0.0612 -0.0873
18353W        W35200   2.968   0.592  11.470 -0.1349  0.2726 -0.4593
18354W        W35201  12.782  15.689   0.049 -0.0143 -0.2246 -0.3132
18355W        W35202   4.386  17.363  13.185 -0.2249  0.1337 -0.1012
18356W        W35203  18.772   4.950   3.896  0.2189 -0.2711  0.0543
18357W        W35204  17.446  16.633   2.528  0.0492 -0.1977 -0.1341
18358W        W35205  10.164   1.797   2.960  0.0252  0.1221 -0.3474
18359W        W35206   0.700   8.707  14.522 -0.1110  0.1453 -0.1422
18360W        W35207   6.153   1.076   2.928 -0.1499 -0.0016 -0.0819
18361W        W35208  15.797   2.729  13.711  0.0680  0.0851 -0.1283
18362W        W35209   3.022   8.468   3.336  0.0265  0.0212  0.0492
18363W        W35210  13.855  12.347   3.074 -0.0716  0.1310  0.2569
18364W        W35211  12.797  12.362   4.931 -0.0623  0.3929 -0.0449
18365W        W35212  18.677   8.262   3.306  0.0172 -0.1544 -0.1463
18366W        W35213  17.643  13.650  10.898  0.3365 -0.0036  0.0831
18367W        W35214  19.160   1.927   4.924 -0.1470  0.1271  0.0707
18368W        W35215  17.982   7.220  10.504  0.3365 -0.0505 -0.0110
18369W        W35216  12.109   6.893  11.638  0.1742 -0.2025  0.1423
18370W        W35217   1.422  18.995  13.107 -0.0808 -0.0538  0.1680
18371W        W35218   7.774   5.493  12.373 -0.1489  0.0401 -0.1898
18372W        W35219   8.531   6.954   0.952  0.2225 -0.1167  0.1913
18373W        W35220  10.140   2.166   3.812  0.0857 -0.1218 -0.0811
18374W        W35221   9.198   1.271   1.487  0.1823  0.2115  0.0929
18375W        W35222  10.254   1.483   2.463 -0.2190  0.0510 -0.1279
18376W        W35223  18.636  17.729  12.431 -0.2334  0.1366 -0.3654
18377W        W35224   2.867   5.950  12.201 -0.0590 -0.1561  0.1211
18378W        W35225  10.968  18.767  10.938 -0.1492  0.1495  0.0806
18379W        W35226   0.632   4.728  12.039  0.0073 -0.1233 -0.1261
18380W        W35227   1.679   7.536  11.570  0.3137 -0.1133  0.0905
18381W        W35228  14.131   7.113   2.125 -0.1150  0.0388  0.1450
18382W        W35229   8.659  16.040   2.453  0.0618 -0.3541 -0.2973
18383W        W35230   4.718   2.146  12.538 -0.2889 -0.0377 -0.1086
18384W        W35231  16.799   8.427   2.568 -0.3170  0.1682  0.0133
18385W        W35232  11.984   9.597   1.832  0.0072 -0.0099 -0.1044
18386W        W35233   7.701   9.671  10.543  0.1791 -0.1383 -0.1198
18387W        W35234   2.263   7.548  10.872 -0.2678  0.1255  0.1204
18388W        W35235  12.509   8.638   3.015 -0.0356  0.1183 -0.3451
18389W        W35236   7.452   6.209   1.226 -0.1715 -0.3536 -0.1342
18390W        W35237  19.209  15.386  12.381  0.1665 -0.1279  0.0368
18391W        W35238   5.227   8.809  10.918 -0.1527  0.3490  0.0245
18392W        W35239   1.294   7.038   1.335 -0.0829 -0.0010  0.0084
18393W        W35240  18.774   9.994   0.170 -0.1375 -0.2918  0.1244
18394W        W35241   1.391   7.593   2.374  0.0854  0.2598  0.1634
18395W        W35242  11.343  17.766   3.847 -0.1827 -0.3227  0.2820
18396W        W35243   9.084  18.069  13.938  0.1957 -0.0268  0.2039
18397W        W35244   6.311   9.497   3.293  0.2338  0.0279  0.1411
18398W        W35245   7.276  11.960   3.900  0.0314  0.0167  0.0068
18399W        W35246  18.834   4.398   4.211  0.4501 -0.0339 -0.0343
18400W        W35247  18.167  14.903   3.763 -0.2965  0.1393 -0.0695
18401W        W35248  16.947   9.616   2.212 -0.1378  0.0336 -0.1823
18402W        W35249   6.623  12.156  12.949 -0.0232  0.1994 -0.1610
18403W        W35250   5.834   3.751   4.646 -0.1689 -0.1986  0.1180
18404W        W35251   8.657   9.463   1.326 -0.1092  0.1465  0.0084
18405W        W35252   1.569   8.108  12.637  0.0818 -0.3136 -0.1484
18406W        W35253   4.450  17.447   0.416  0.1342  0.2250 -0.2274
18407W        W35254   7.018   0.473  13.163 -0.1661 -0.1491  0.1765
18408W        W35255  14.555   3.628  11.166 -0.0481 -0.1383  0.2498
18409W        W35256   0.626   0.679  10.956  0.1036  0.1497 -0.0373
18410W        W35257  13.010   0.063   5.186  0.2706  0.2887 -0.1169
18411W        W35258  10.271  12.796  11.758 -0.1593  0.2352 -0.4028
18412W        W35259  16.542   0.853  10.570 -0.3177  0.2964  0.0047
18413W        W35260  11.217   7.074  14.179  0.1826  0.3659  0.0985
18414W        W35261  10.905   3.066   1.069 -0.0975 -0.0793 -0.0541
18415W        W35262  10.873   7.102   4.628  0.1378  0.0283  0.0937
18416W        W35263   6.574   2.249  12.426 -0.0134 -0.3074  0.2571
18417W        W35264   9.307   7.951  11.011  0.2895  0.0955 -0.1392
18418W        W35265  10.136   8.504  10.358  0.1309 -0.0396  0.1956
18419W        W35266  14.515  12.478   0.658 -0.2518  0.1920  0.1714
18420W        W35267  19.173  10.042   4.032 -0.2680 -0.4531  0.2995
18421W        W35268  18.108   7.302  11.223  0.0542 -0.0809  0.0018
18422W        W35269  18.582   4.374  10.776  0.1889 -0.0306  0.1091
18423W        W35270   6.084   8.057   1.987  0.0066  0.3112 -0.0675
18424W        W35271   3.000  15.460  10.815  0.1686  0.2638 -0.2872
18425W        W35272  12.922   8.989   4.512 -0.2282  0.2477  0.1592
18426W        W35273  16.909   8.841   2.837  0.1692  0.0541  0.2220
18427W        W35274   5.382   8.377  11.273  0.0399  0.1119 -0.1634
18428W        W35275   4.756  12.333  12.577 -0.0343  0.1776 -0.1930
18429W        W35276   6.737  14.262   1.628  0.0797 -0.0402 -0.0173
18430W        W35277  13.075   9.783   0.293  0.2939 -0.3393 -0.1843
18431W        W35278   1.753   9.107   4.602 -0.0025  0.2284  0.1220
18432W        W35279  13.080   1.026   9.957 -0.1827  0.3526 -0.0528
18433W        W35280  16.676   2.585   3.792 -0.0896  0.3475 -0.1857
18434W        W35281   4.089   6.294  10.242  0.1063 -0.1359 -0.1201
18435W        W35282   1.859   6.334   3.097  0.0242 -0.0192  0.1571
18436W        W35283   2.866  18.924   2.833  0.1619 -0.0950  0.0453
18437W        W35284   1.279  16.395   2.642  0.2397 -0.1323 -0.0454
18438W        W35285  15.253  15.841  10.886 -0.1225  0.0952 -0.1552
18439W        W35286   4.825   1.665   1.827 -0.2059 -0.1591  0.0028
18440W        W35287   0.398   2.031  11.752 -0.0744 -0.1390  0.0281
18441W        W35288   3.583  10.785  11.479 -0.1694  0.0045 -0.5110
18442W        W35289   0.499   6.578  11.863  0.0640  0.2064 -0.2082
18443W        W35290   5.520   8.122   4.337 -0.0109 -0.0858 -0.0132
18444W        W35291   4.332  16.150   3.130 -0.3312 -0.0023  0.1768
18445W        W35292   6.294  12.512   1.259 -0.0165 -0.1496 -0.0391
18446W        W35293   7.669  18.994  10.432  0.2737 -0.0989 -0.2040
18447W        W35294   9.617   7.064   0.688 -0.2216 -0.2025  0.1338
18448W        W35295  16.604   3.253   0.279 -0.2412 -0.0503 -0.0518
18449W        W35296   9.143   7.772  13.674  0.2015 -0.1991  0.0273
18450W        W35297   7.486  14.179   0.667 -0.2487 -0.3285 -0.0237
18451W        W35298  15.778  16.352  12.482  0.2422 -0.0332  0.0593
18452W        W35299   9.055   0.207  12.979 -0.0531  0.0633  0.0006
18453W        W35300   4.215   4.273   1.366  0.0275 -0.0016 -0.1136
18454W        W35301   9.130  12.639   4.876  0.1961 -0.1347  0.0514
18455W        W35302   6.942   3.205  10.818  0.0615  0.0255 -0.1688
18456W        W35303  16.465   2.802  12.591  0.1163  0.0826 -0.1838
18457W        W35304   4.724   1.469   3.190  0.1564  0.0104  0.4280
18458W        W35305  15.562   4.763  13.090 -0.0105  0.1180  0.0822
18459W        W35306  13.228   8.241   4.226 -0.0456 -0.1500  0.1619
18460W        W35307  19.125  17.035  12.127 -0.3374  0.0714  0.2110
18461W        W35308   9.899  10.256  12.382 -0.1795 -0.0452 -0.1486
18462W        W35309  15.376   3.529  10.579  0.1057 -0.1482  0.0981
18463W        W35310  19.272  11.019  14.453 -0.3807  0.2688  0.1390
18464W        W35311   0.655   8.756   2.502  0.2608  0.0142  0.1698
18465W        W35312  19.083   9.703   4.375 -0.0500 -0.0452  0.0424
18466W        W35313  11.094   8.789  14.903  0.0216 -0.2781  0.0497
18467W        W35314   2.873  16.755  10.914 -0.2944 -0.1243 -0.0703
18468W        W35315   7.068   8.889   4.140  0.1038 -0.0479  0.1941
18469W        W35316   6.421  14.860  12.089  0.0305 -0.1619  0.0183
18470W        W35317   3.015   6.734   3.923  0.1719 -0.2866  0.1800
18471W        W35318   4.155   6.135   2.773  0.1940  0.0781 -0.0698
18472W        W35319  16.467   2.479  11.434 -0.1237  0.0408 -0.0949
18473W        W35320  15.650   1.111  14.356 -0.2231  0.0425  0.0280
18474W        W35321   7.273   4.154   2.603  0.1240  0.2327  0.2962
18475W        W35322   5.165  11.194  12.586  0.0644  0.0508  0.0002
18476W        W35323  18.297  18.814   3.323 -0.0740 -0.0014  0.1287
18477W        W35324  11.100   6.773  11.435 -0.0264  0.0166  0.0793
18478W        W35325   4.709   2.063   4.695  0.1294 -0.0990  0.2561
18479W        W35326  13.522  16.927   1.639 -0.0077  0.4237 -0.4025
18480W        W35327   4.299   1.594  13.363  0.0442 -0.1628 -0.0573
18481W        W35328  16.743  10.179  14.839  0.2160 -0.1761  0.1869
18482W        W35329  11.421  11.672   0.181 -0.0032 -0.1873  0.0770
18483W        W35330   6.044   6.941   2.341 -0.0682  0.1868 -0.0101
18484W        W35331  12.490   7.636   3.067  0.0275 -0.0075  0.0364
18485W        W35332   6.140   2.793   0.399 -0.3317  0.3335 -0.1059
18486W        W35333  14.322  16.082  13.226  0.2536  0.0940 -0.1162
18487W        W35334   7.262  12.428   0.928  0.3790 -0.1463 -0.0568
18488W        W35335  15.596   0.015   5.189  0.3435 -0.0985 -0.1513
18489W        W35336  13.421   2.914  11.988 -0.2844 -0.0924  0.0197
18490W        W35337   2.435   6.010   4.180 -0.0042 -0.0338 -0.1873
18491W        W35338  16.116   6.200  10.336  0.0174  0.1676 -0.0841
18492W        W35339   2.190  12.053   4.264  0.2800  0.2024  0.1017
18493W        W35340   1.632   3.709   5.759 -0.2458 -0.4449  0.0075
18494W        W35341   4.634   1.416   1.372 -0.1983  0.1682 -0.3278
18495W        W35342   8.833   7.490  14.032 -0.0805 -0.0507  0.0923
18496W        W35343   2.765   9.682  10.904 -0.1413 -0.0714  0.0146
18497W        W35344  17.417  16.771   1.251 -0.2678  0.2269  0.1118
18498W        W35345   7.655   3.549  12.521  0.0550  0.0651  0.0107
18499W        W35346  19.116  17.504   3.465  0.0038  0.3016 -0.2266
18500W        W35347   9.276   3.633   0.538 -0.2203  0.0122  0.0902
18501W        W35348   7.587   0.737  13.209  0.2504 -0.0086 -0.2570
18502W        W35349   2.170  15.723  14.230  0.0060 -0.1099 -0.2544
18503W        W35350   0.915   8.498  13.937 -0.1889  0.0265  0.2306
18504W        W35351  19.056  17.907   1.297 -0.2042 -0.0181 -0.0486
18505W        W35352  17.749   0.712   1.202 -0.1784 -0.2129  0.1120
18506W        W35353   9.340   5.275  12.730 -0.1364 -0.1494 -0.1175
18507W        W35354  14.809  15.943  14.523  0.0391 -0.0705  0.0369
18508W        W35355  14.595   3.357   3.780  0.0280 -0.2750 -0.0291
18509W        W35356  18.050  13.996  13.893 -0.3656  0.0380  0.0923
18510W        W35357  15.804   0.918   0.461  0.0476  0.1696  0.1315
18511W        W35358  14.809   1.298   3.167 -0.2063  0.3778 -0.0600
18512W        W35359  14.319   5.386   1.370  0.2799 -0.0289 -0.1762
18513W        W35360  13.699  12.636   0.286  0.1654 -0.0144  0.1335
18514W        W35361  10.367   1.655  10.843  0.0109  0.2223  0.1616
18515W        W35362   4.863   8.894   3.841 -0.2834 -0.0111 -0.0821
18516W        W35363   0.762   5.257   4.188  0.1951 -0.2205 -0.1133
18517W        W35364  13.172  14.979   5.505 -0.1492 -0.0275  0.0386
18518W        W35365   2.372   4.847   1.763  0.0994  0.4059 -0.0325
18519W        W35366   1.063  10.171   4.447  0.1816 -0.2113 -0.0157
18520W        W35367   7.983  14.531  10.330  0.2176  0.0332 -0.0263
18521W        W35368  11.914  11.389  13.280  0.0589  0.1864 -0.2996
18522W        W35369  13.540   4.490  11.103 -0.0012  0.1517 -0.2111
18523W        W35370  10.170  13.320   1.499 -0.0856  0.0934 -0.0308
18524W        W35371  14.216  15.278   1.400 -0.1976  0.2291 -0.1259
18525W        W35372   9.723  18.456   2.141  0.0032 -0.3473 -0.3086
18526W        W35373   2.768   3.896   4.638  0.3221  0.2032 -0.0313
18527W        W35374  17.682   5.898  12.456  0.3584 -0.2180  0.2834
18528W        W35375   8.009  10.672   1.590  0.1439  0.0270 -0.0448
18529W        W35376  14.081  13.218   3.590 -0.2029 -0.0234 -0.1179
18530W        W35377   4.168   2.425   1.963  0.1028  0.1780  0.3121
18531W        W35378   0.925   8.778  11.024 -0.1033  0.1788 -0.3490
18532W        W35379   6.305  16.050   3.196  0.3427 -0.0572  0.3885
18533W        W35380  18.562   6.632   1.149  0.1630  0.0668 -0.0976
18534W        W35381  12.159  18.683   2.956  0.1134 -0.0679 -0.0006
18535W        W35382  11.153  10.988  11.451  0.1061 -0.2538 -0.3759
18536W        W35383  13.591  10.636   9.194  0.2571  0.1211 -0.3296
18537W        W35384   9.968   8.652   3.118  0.2592 -0.1649  0.1051
18538W        W35385   5.571   0.409   0.143  0.1917 -0.4788 -0.1818
18539W        W35386  15.302  12.071  11.913  0.1165 -0.2427  0.0202
18540W        W35387  17.594  17.262   4.866  0.1221  0.1338 -0.2815
18541W        W35388  16.461  17.785   4.237  0.0037  0.1489 -0.1440
18542W        W35389  18.756   4.640  11.570 -0.0202 -0.0602  0.3343
18543W        W35390  12.636   9.934   2.229  0.0329 -0.1161 -0.1736
18544W        W35391  13.702  12.351  13.155  0.2614 -0.0672  0.0716
18545W        W35392   1.353  10.410   2.455 -0.2772 -0.1306 -0.0201
18546W        W35393  18.896  14.500   2.102  0.0882 -0.0298 -0.0499
18547W        W35394   2.192   6.835  13.077  0.1292  0.0609 -0.0609
18548W        W35395   1.879  16.359   1.318  0.0183 -0.0588  0.0270
18549W        W35396   2.156   4.718   0.677  0.1883 -0.0111  0.0037
18550W        W35397   3.750   8.741   9.259  0.0205  0.1279  0.0699
18551W        W35398  18.580  17.969  12.846  0.0296  0.0924 -0.1633
18552W        W35399  16.884  16.286  14.602  0.0535  0.1057 -0.0854
18553W        W35400   9.406  18.333   0.376 -0.5026 -0.0914 -0.1223
18554W        W35401   0.656  19.115  11.457  0.0586 -0.1491  0.0376
18555W        W35402   6.185   0.579   2.228  0.0084 -0.3455  0.0569
18556W        W35403   8.152   9.352   3.612  0.2046 -0.0640 -0.1257
18557W        W35404  16.499  16.261   3.887 -0.1056 -0.0857  0.2323
18558W        W35405   0.553  18.481   4.335  0.3395 -0.0105 -0.5458
18559W        W35406   0.190  13.470  12.840 -0.4163 -0.2094  0.2533
18560W        W35407   7.679   5.307  13.256  0.1518 -0.1741  0.1640
18561W        W35408  12.044   5.756  10.813 -0.4201 -0.1140  0.1421
18562W        W35409   4.907   5.046   0.837 -0.0655 -0.0438  0.1884
18563W        W35410  12.515  16.979  14.072 -0.1073 -0.0266 -0.3301
18564W        W35411  13.515  17.020   5.485  0.3716 -0.1898 -0.1499
18565W        W35412  10.833   0.246  10.905 -0.0921  0.1728 -0.1150
18566W        W35413  13.984   5.571   1.829  0.2262  0.2170  0.3401
18567W        W35414   6.563   4.918   0.652  0.0066  0.3569 -0.1464
18568W        W35415   6.910  15.922   1.076  0.0722 -0.3747  0.3142
18569W        W35416  13.163   3.204   3.571  0.0512  0.0653  0.0927
18570W        W35417  13.266   4.539  13.039 -0.0394  0.0881 -0.1235
18571W        W35418  17.610   0.865  11.277 -0.1079 -0.0654  0.1571
18572W        W35419  18.015  15.666  13.014 -0.0620 -0.0568  0.3148
18573W        W35420   6.362   5.226   3.498  0.0213  0.3166 -0.0452
18574W        W35421   4.987  13.284  10.485  0.2267 -0.0741  0.1143
18575W        W35422   7.742   4.167   0.495  0.0489 -0.3363 -0.1840
18576W        W35423   1.983  13.248   2.077 -0.2321 -0.0120 -0.1765
18577W        W35424  13.141   1.912   5.029 -0.2258  0.1609 -0.0780
18578W        W35425  18.432   7.352   5.251  0.1801  0.0544  0.0139
18579W        W35426  14.803  14.312  12.188  0.1202  0.1380  0.1546
18580W        W35427   8.890   0.595   3.425 -0.2162 -0.1960  0.0313
18581W        W35428  16.538  10.090  13.254  0.0336 -0.0829  0.2193
18582W        W35429  11.662   4.634   1.210  0.2081 -0.5263 -0.2608
18583W        W35430   4.854   4.783  11.471  0.0058  0.1908  0.0942
18584W        W35431  16.421  16.919  11.596 -0.0959  0.0686 -0.0395
18585W        W35432   4.307  12.700   0.815  0.0223 -0.1421  0.0465
18586W        W35433   5.743   5.031  10.286  0.3007  0.3763  0.1741
18587W        W35434  18.458  13.458   3.879  0.3127  0.0653 -0.0002
18588W        W35435   2.674   9.883  13.736 -0.1556 -0.0716  0.1460
18589W        W35436   3.531  15.023   3.214 -0.1429 -0.0848  0.1617
18590W        W35437   9.811  15.571   2.593 -0.0368  0.2341  0.1615
18591W        W35438   1.121   1.619   1.611 -0.0483 -0.0911 -0.3641
18592W        W35439   6.701   7.237   1.946  0.0014 -0.0405 -0.2436
18593W        W35440   5.930  11.714   1.241 -0.0240 -0.3400 -0.0037
18594W        W35441  12.271   5.543  14.461 -0.0197  0.4315  0.1817
18595W        W35442   6.459  10.061   1.252  0.0846 -0.2616  0.0964
18596W        W35443  13.713  13.246   3.169 -0.1835  0.1365  0.2278
18597W        W35444  17.041   0.249   4.366  0.4392  0.1131  0.0702
18598W        W35445   8.730   2.940   5.359 -0.2642  0.0674  0.0700
18599W        W35446   9.281  10.583   4.404 -0.1425 -0.1586 -0.2069
18600W        W35447  12.852  14.743  13.204  0.1639 -0.2365  0.0184
18601W        W35448   1.926   6.346  11.222  0.2403 -0.0540  0.4258
18602W        W35449   0.880  14.107  10.261  0.1236 -0.2169 -0.1630
18603W        W35450   7.675   3.554   2.666  0.0748  0.1935  0.1359
18604W        W35451   6.149   3.286   4.503 -0.3364  0.2343  0.0830
18605W        W35452  15.803  17.327  14.489  0.4696 -0.0333  0.1890
18606W        W35453   1.409  12.061  11.981  0.0643  0.0325 -0.0962
18607W        W35454   7.441  10.411  11.215  0.2465  0.0674  0.1294
18608W        W35455  11.397   1.573   1.828  0.0182  0.0667 -0.0075
18609W        W35456   4.002   0.084  10.458  0.4610 -0.4559  0.1756
18610W        W35457  14.059   9.697   3.785  0.0048 -0.3041 -0.0680
18611W        W35458  16.238   7.542  12.671  0.1002  0.2409 -0.0102
18612W        W35459  16.684  16.932   1.957 -0.0441  0.6240 -0.1116
18613W        W35460  14.159   6.939   1.160  0.3880  0.1576 -0.0585
18614W        W35461   1.515  17.607   0.546  0.1359  0.0098  0.4747
18615W        W35462   4.748   3.526  14.067  0.0150 -0.1628  0.2093
18616W        W35463  13.503  10.475   2.177  0.1060 -0.0371  0.0100
18617W        W35464   4.401  17.964  11.686 -0.0996  0.1643 -0.2783
18618W        W35465  16.268  17.261  13.035 -0.3802  0.1959  0.1178
18619W        W35466   7.053   9.069  11.028  0.3888 -0.2105  0.0098
18620W        W35467  11.239   8.182   0.444  0.0034  0.0163 -0.3440
18621W        W35468  17.492  14.957   4.910 -0.0864  0.0583  0.2515
18622W        W35469  15.140   0.067  11.831  0.0712  0.0170  0.0077
18623W        W35470  12.515  15.147   0.809  0.1781  0.0099  0.0008
18624W        W35471   7.808  18.906   0.190 -0.2285 -0.1451  0.1562
18625W        W35472  10.324  10.780  13.713 -0.0414 -0.1972  0.2102
18626W        W35473   7.369  13.336   1.494 -0.2439  0.2508  0.2622
18627W        W35474   3.325   9.242   3.762  0.0622  0.0379 -0.1181
18628W        W35475  17.224  12.832  10.648  0.2708 -0.0392 -0.0589
18629W        W35476  18.057  17.853  13.667 -0.0367 -0.1066 -0.3007
18630W        W35477  10.772   0.636   3.278 -0.0220 -0.0077  0.0399
18631W        W35478   8.559  14.476  12.857  0.1363 -0.1682  0.1386
18632W        W35479  16.829  17.252   1.636  0.5638  0.3329 -0.1566
18633W        W35480   9.732   4.761   1.980  0.0050  0.2589 -0.1465
18634W        W35481  11.232   4.647   4.121  0.0284  0.1886 -0.1311
18635W        W35482   5.281  13.490   3.412  0.3133 -0.0220 -0.0631
18636W        W35483   0.454   1.600   1.787 -0.1422 -0.0488  0.0036
18637W        W35484  13.574   4.316  11.980  0.0348  0.1532 -0.0400
18638W        W35485   4.050   0.206  13.024  0.0746  0.0453  0.0549
18639W        W35486  15.062   6.159   2.468 -0.0223 -0.0976 -0.1671
18640W        W35487  13.383   5.379   3.062 -0.0162  0.1392 -0.0518
18641W        W35488  12.963   4.998  12.108  0.2025 -0.0041 -0.0574
18642W        W35489   3.862   7.433   4.365  0.1510 -0.1564 -0.0204
18643W        W35490   9.386  10.009  12.223  0.0082 -0.0450  0.0698
18644W        W35491  10.990   7.152   1.358 -0.0149  0.1243 -0.1637
18645W        W35492   4.502  11.378   3.406 -0.0535 -0.2122 -0.0569
18646W        W35493  10.538  15.181  14.798  0.2254  0.1825 -0.0968
18647W        W35494  13.355   4.077   0.423 -0.3148 -0.0440 -0.4252
18648W        W35495  10.379  16.432   0.663  0.0380 -0.2156  0.1333
18649W        W35496   0.792  10.363  12.111 -0.0926 -0.0386 -0.0040
18650W        W35497   5.779   0.837  14.943  0.2430 -0.1165  0.0339
18651W        W35498  14.021  13.868  14.066  0.1643  0.1043  0.0522
18652W        W35499   1.426   0.503  11.547 -0.3464 -0.1381 -0.1158
18653W        W35500  13.507  11.058  10.574 -0.2337  0.0477  0.0421
18654W        W35501  15.436   5.576   0.740 -0.1115 -0.1160 -0.1589
18655W        W35502   0.860  18.585  13.621  0.0621  0.3161  0.2599
18656W        W35503   4.733   4.678  12.785  0.0034  0.0114  0.0089
18657W        W35504   8.047  10.688   0.107 -0.0649  0.0166  0.0031
18658W        W35505  18.286  15.712   3.152  0.0059 -0.2597 -0.4537
18659W        W35506  17.149   5.852   4.659 -0.2411 -0.0981  0.0356
18660W        W35507   1.384   9.733   3.784  0.1222  0.1361 -0.4021
18661W        W35508  17.401   5.366   4.804 -0.0114  0.2221 -0.3034
18662W        W35509   7.476   2.304   5.543 -0.2316  0.0525  0.2927
18663W        W35510  18.845   6.297  14.154  0.2133 -0.1954  0.0768
18664W        W35511   8.412  17.169  11.619  0.0000 -0.0230 -0.0765
18665W        W35512   3.799  16.217  11.849  0.3207  0.0550  0.2304
18666W        W35513   4.396  10.355   2.124  0.0304  0.2127 -0.1957
18667W        W35514   1.767  10.143  11.497  0.0150  0.0839 -0.0235
18668W        W35515  17.697   5.907   0.377 -0.4606 -0.3477  0.0811
18669W        W35516  11.126   7.764   3.479 -0.1617 -0.1965 -0.0311
18670W        W35517  12.634   5.796   1.019  0.1044  0.2111 -0.2372
18671W        W35518   4.621  11.897  11.196  0.2352  0.1835  0.2451
18672W        W35519  14.807   2.645  13.821 -0.0280  0.0805  0.0500
18673W        W35520   4.238  12.426  10.749 -0.0745 -0.1844 -0.2530
18674W        W35521  13.163   3.812   1.739 -0.1163  0.3512  0.1864
18675W        W35522  17.641  18.042   1.274 -0.2091 -0.0487  0.0668
18676W        W35523   3.873   5.341   3.847 -0.1779 -0.0913 -0.0265
18677W        W35524   7.948   7.634  14.928 -0.0987  0.0879  0.1290
18678W        W35525  10.261   1.655   3.645  0.0000 -0.0938 -0.1353
18679W        W35526   5.594  11.036   0.995 -0.1835 -0.0077  0.0584
18680W        W35527   2.703  18.931   1.719  0.1669 -0.0007 -0.0634
18681W        W35528  18.188  13.321   5.360  0.0877  0.4339  0.1316
18682W        W35529  19.141   9.539  12.347 -0.2932  0.4244 -0.0670
18683W        W35530  11.525  15.381  10.956 -0.2801  0.0391 -0.0756
18684W        W35531  13.268   5.246  13.119 -0.0838  0.2488 -0.2992
18685W        W35532  16.852  19.278   3.902  0.0458 -0.1703 -0.0312
18686W        W35533  19.007  15.299  11.696 -0.0663 -0.2984  0.1463
18687W        W35534  17.512   6.348  12.832  0.1314  0.2628  0.3787
18688W        W35535   4.424  12.381  13.024  0.0291  0.5141 -0.1453
18689W        W35536   3.768  16.225  14.135  0.1043  0.1736  0.1086
18690W        W35537  11.491  19.072  11.507 -0.0307 -0.1538 -0.2487
18691W        W35538   8.281   2.183  12.809 -0.3762 -0.2914 -0.0497
18692W        W35539  17.405  15.263   3.195  0.0428  0.1272 -0.1884
18693W        W35540   6.208  13.919   1.852 -0.0211  0.0288  0.0769
18694W        W35541  17.640  17.774   3.791 -0.1768  0.0954 -0.3513
18695W        W35542   6.323  18.533   0.172 -0.0306 -0.2465  0.0979
18696W        W35543   5.744   7.297   0.354  0.2061 -0.1390  0.1870
18697W        W35544   5.032   7.143  13.636  0.0273  0.1005  0.4645
18698W        W35545  12.735  15.255  11.377 -0.0236 -0.0956  0.2220
18699W        W35546   8.956  13.954   2.075 -0.0040  0.2424 -0.0055
18700W        W35547   6.584  19.124  11.278 -0.1724  0.0731  0.0258
18701W        W35548   8.577  16.403   6.156 -0.0218  0.0003  0.0831
18702W        W35549   0.051  12.502   4.551 -0.2669  0.0729  0.1029
18703W        W35550  13.709   1.184  12.998 -0.0303 -0.0619 -0.0477
18704W        W35551   2.512   5.331  13.260  0.0409 -0.0720 -0.0632
18705W        W35552   6.445  10.642  13.671  0.1122  0.0356 -0.0077
18706W        W35553  10.465  17.354   0.796 -0.0071 -0.0607 -0.0965
18707W        W35554  15.399  16.624   4.248  0.1309 -0.1722 -0.0003
18708W        W35555   0.817  13.377   2.685 -0.0358 -0.4942  0.1672
18709W        W35556   9.588   2.919  10.131  0.1517  0.2001 -0.0585
18710W        W35557   6.400   8.593  14.479  0.2349  0.1104 -0.0992
18711W        W35558   3.114  17.456  11.261 -0.1261  0.2984 -0.2640
18712W        W35559   1.613  18.958   9.710  0.2178  0.0455 -0.2999
18713W        W35560   5.802   9.161   4.448 -0.1201 -0.2512  0.1213
18714W        W35561  13.122   6.461  11.020 -0.1871  0.1015  0.1462
18715W        W35562   6.234   2.246  13.779  0.1645 -0.0613 -0.2834
18716W        W35563   5.395   1.578   9.862  0.1181 -0.2246  0.0475
18717W        W35564   2.728  16.366  14.353 -0.0261 -0.3272 -0.1590
18718W        W35565  14.803   7.459   4.478 -0.2926  0.2362  0.0755
18719W        W35566  12.675   9.375   3.067  0.1273  0.1825 -0.1239
18720W        W35567  10.098  13.523   4.092  0.2479  0.1286 -0.1134
18721W        W35568  13.261   6.565  10.185  0.3949  0.1210 -0.1447
18722W        W35569  19.193  14.460   0.926 -0.1461  0.2302  0.3877
18723W        W35570  16.000   7.756   2.471  0.1748 -0.0584  0.2183
18724W        W35571  17.262  12.767  12.007  0.1723  0.2322 -0.2718
18725W        W35572  17.153   3.236  13.588 -0.0614 -0.2129 -0.5007
18726W        W35573   8.196   3.770   1.236 -0.0820  0.0234  0.1131
18727W        W35574   2.016  16.686  14.096  0.0200 -0.1359 -0.0367
18728W        W35575   2.120  14.390  11.166  0.2770  0.3219 -0.2628
18729W        W35576  10.015  17.922   2.581 -0.3851 -0.1818 -0.0476
18730W        W35577  16.209   1.729  13.796  0.2749 -0.1296 -0.0941
18731W        W35578  16.905   0.835  15.001 -0.0788 -0.1385 -0.1806
18732W        W35579   4.586   9.764   1.426 -0.2953 -0.0583 -0.0924
18733W        W35580   8.873   0.245   5.287  0.2272  0.0957  0.1968
18734W        W35581   1.070   3.510  11.841 -0.0062 -0.1263 -0.0511
18735W        W35582   0.172   9.171  13.132  0.0179 -0.1745 -0.1618
18736W        W35583   8.721  12.935   0.907  0.1429 -0.1528  0.2126
18737W        W35584  16.240  16.622   5.382 -0.1863  0.0032  0.1127
18738W        W35585  17.555   9.052   0.703  0.0944  0.3274  0.1398
18739W        W35586   1.852   8.184   0.134 -0.1604 -0.0124  0.0270
18740W        W35587   7.443  13.828   1.729  0.0921  0.1049 -0.0135
18741W        W35588  11.925   7.373  12.913 -0.1994  0.0336  0.1976
18742W        W35589  18.126  12.248  13.711  0.1155 -0.0118 -0.0949
18743W        W35590  18.218   5.149   0.904 -0.4713  0.0539  0.0656
18744W        W35591  14.206   9.217  12.368 -0.5293  0.4833  0.1774
18745W        W35592  11.061   2.747  10.870 -0.0003  0.3378  0.1338
18746W        W35593  16.332  10.153  13.708  0.0233  0.2723 -0.2632
18747W        W35594   2.604   1.569   4.252  0.2342  0.2584  0.2854
18748W        W35595   0.141  17.306   1.236 -0.3996 -0.3589  0.0799
18749W        W35596   2.613  17.770  13.324 -0.1404  0.1678  0.2758
18750W        W35597  14.491   9.319   3.721 -0.0721 -0.1061  0.2304
18751W        W35598  18.142  15.980  14.394  0.1462  0.1390 -0.2164
18752W        W35599  14.060   0.501   1.087 -0.0568  0.0657 -0.0671
18753W        W35600   9.340   5.363  14.580 -0.4028  0.0828  0.2950
18754W        W35601  13.065  15.329  12.554  0.1116 -0.0599 -0.6492
18755W        W35602  12.042  13.171   1.796  0.2360  0.0957 -0.1041
18756W        W35603  11.939   4.534   3.919  0.0877 -0.1231  0.0678
18757W        W35604  15.756  10.190   1.766  0.2711 -0.1394  0.1795
18758W        W35605   0.783   8.159   0.785 -0.1716 -0.1852  0.0598
18759W        W35606   6.996   1.618  14.691  0.1714  0.0152 -0.1608
18760W        W35607   4.092  11.588   1.570  0.0423 -0.1831  0.2171
18761W        W35608   3.706  18.514   1.667 -0.1441 -0.2274  0.3682
18762W        W35609   1.713   4.629  10.379 -0.0015  0.1134 -0.1126
18763W        W35610  18.666   2.269   4.865  0.0792 -0.0925  0.0766
18764W        W35611  11.426   0.485   1.770  0.2733  0.2607  0.1588
18765W        W35612   4.577  18.502   3.295 -0.3331  0.0839 -0.2387
18766W        W35613   3.552   0.432  11.584  0.2907 -0.3482 -0.0571
18767W        W35614   4.931   8.475  11.115 -0.1761 -0.1781  0.0053
18768W        W35615   8.498  16.341   3.967  0.3517  0.1935  0.1331
18769W        W35616   7.418  16.316  10.853 -0.0135 -0.1119 -0.0122
18770W        W35617  11.803  15.970   9.974 -0.2980 -0.3153 -0.1588
18771W        W35618  11.423  16.113  13.193 -0.2435 -0.0829 -0.0777
18772W        W35619   8.634  16.933   3.615 -0.3425  0.0081 -0.2500
18773W        W35620  13.719   5.473   0.188  0.1494  0.1830 -0.3094
18774W        W35621  15.710   6.562   4.244 -0.0305  0.2061  0.3825
18775W        W35622   3.910  12.825  10.722 -0.0943 -0.0027 -0.2269
18776W        W35623   3.714   5.805  13.680  0.4343 -0.1680 -0.1859
18777W        W35624  17.920   5.333   4.838  0.0423  0.0683  0.2510
18778W        W35625   1.599  10.824   1.523  0.0822  0.0175  0.0481
18779W        W35626  12.846  16.603  14.207 -0.1990 -0.1853 -0.0192
18780W        W35627  18.112   6.184   0.121 -0.2958  0.2035 -0.0240
18781W        W35628   1.084  19.149  14.487  0.3828  0.1845 -0.0737
18782W        W35629   2.211  16.575  12.989  0.0303 -0.2623  0.0768
18783W        W35630  15.021  11.965   1.149  0.0381 -0.1031 -0.2196
18784W        W35631   9.189   0.423   2.942 -0.1974  0.0520  0.0502
18785W        W35632   5.053   8.038   1.727  0.1005 -0.2111  0.1919
18786W        W35633   9.106   5.293  11.577  0.0585 -0.2667 -0.2752
18787W        W35634  10.577  15.262   3.241 -0.2088  0.0325 -0.0804
18788W        W35635  10.353  17.765  13.644  0.1194  0.0529  0.0814
18789W        W35636   6.938   0.943   3.827 -0.0259  0.0862 -0.0781
18790W        W35637  10.115  11.063  10.901 -0.1391  0.2010  0.0824
18791W        W35638   5.841  14.816   4.344 -0.0429  0.3311 -0.0750
18792W        W35639   4.205   1.254  12.966 -0.0087 -0.1210  0.0029
18793W        W35640   3.468  19.268   3.708  0.0881  0.0042  0.0278
18794W        W35641  12.527   5.698  12.469  0.4373  0.2477  0.1614
18795W        W35642  14.739  12.896   0.869  0.1937 -0.0429  0.0227
18796W        W35643   5.966  15.769  14.821 -0.0853  0.0962  0.1711
18797W        W35644   5.017  12.684  12.122  0.1565  0.3257  0.1529
18798W        W35645  17.572  19.223  13.131  0.0457  0.1291 -0.0861
18799W        W35646  18.275  17.742   5.063  0.1824  0.2320 -0.1621
18800W        W35647  12.904  11.499   0.255 -0.2123 -0.0022 -0.2482
18801W        W35648   8.311  10.562  11.601  0.0721  0.0675  0.3042
18802W        W35649   3.504   3.879  14.584  0.0437 -0.3004  0.0337
18803W        W35650   9.322   0.209  14.398  0.0310  0.3298 -0.1268
18804W        W35651  15.493   8.627   5.558  0.2257  0.2597  0.1122
18805W        W35652   6.864   1.898   9.999 -0.2028 -0.1378 -0.1390
18806W        W35653  12.982   0.955  12.655  0.2347  0.0790  0.2771
18807W        W35654  14.675  16.335   0.313 -0.1434  0.1014  0.1156
18808W        W35655  11.722   9.113  14.301 -0.4155  0.1648 -0.0577
18809W        W35656   3.839  10.780  11.908 -0.0733 -0.2574 -0.1095
18810W        W35657  16.106  13.884  14.969  0.0924  0.4667 -0.4024
18811W        W35658   7.795  13.411   1.840  0.1288  0.0474 -0.1256
18812W        W35659   2.618   9.822   0.712 -0.3308  0.0064  0.0058
18813W        W35660  10.983  13.976   1.791  0.0073  0.0513  0.1057
18814W        W35661  15.626   2.025  13.903 -0.5000  0.2322 -0.0975
18815W        W35662   0.583   0.532  14.617  0.1403 -0.1278  0.0946
18816W        W35663  15.420   7.663  12.930  0.3100 -0.1047 -0.0257
18817W        W35664   1.139  13.905  11.951 -0.0006 -0.2371  0.2746
18818W        W35665  15.891   3.740   1.447  0.1712  0.2369 -0.0262
18819W        W35666  11.087  16.553  11.689 -0.3335  0.2954 -0.2094
18820W        W35667   2.229  12.502  11.469 -0.0161 -0.2000  0.2243
18821W        W35668   4.354  11.998   3.146  0.3228 -0.1481 -0.0143
18822W        W35669   6.916  15.122  14.692  0.1236 -0.2762  0.0103
18823W        W35670  16.298  15.619   5.926 -0.1640 -0.2411 -0.0391
18824W        W35671  10.275  18.972   5.761  0.0905  0.1399  0.2374
18825W        W35672  16.032   5.310  14.326  0.3681  0.0137  0.0117
18826W        W35673  13.513  15.329   2.938  0.0871  0.2316  0.0953
18827W        W35674  12.018  13.862   1.071 -0.1946  0.0236 -0.0037
18828W        W35675  17.239  14.494   2.282  0.1300  0.1953  0.0616
18829W        W35676  17.523  16.028   1.947 -0.0787  0.1435  0.1732
18830W        W35677   1.279   9.648  10.031  0.0350 -0.1234  0.0478
18831W        W35678   3.555  10.751   4.694  0.1912 -0.3607  0.1387
18832W        W35679  17.421   7.970   2.637 -0.0452  0.2478 -0.1890
18833W        W35680  16.822  18.602   3.646  0.0877 -0.1014  0.1247
18834W        W35681   8.335  11.126   0.277 -0.2014 -0.2202 -0.0380
18835W        W35682  12.526   8.761   2.304 -0.1142 -0.0892 -0.0419
18836W        W35683  12.913   0.460   5.515 -0.0147 -0.1409  0.0670
18837W        W35684   2.986   2.315   1.765  0.0648  0.2921 -0.1642
18838W        W35685   6.880  15.689   4.328  0.0014  0.0098 -0.0269
18839W        W35686  14.325   6.924   0.668 -0.1856 -0.2003 -0.2067
18840W        W35687   2.819  18.495  13.644 -0.3985 -0.1709 -0.1620
18841W        W35688  12.499  15.571  12.671  0.1480  0.1562  0.1119
18842W        W35689   9.068   2.516   5.170  0.0227  0.1734  0.1397
18843W        W35690   2.833   9.514   1.363 -0.2469 -0.0320  0.4197
18844W        W35691   3.593   9.820   1.130  0.1039 -0.2361 -0.0849
18845W        W35692   9.366   0.518  13.445 -0.0416  0.3494  0.0896
18846W        W35693   3.201   2.357   3.710  0.3003  0.1771 -0.0252
18847W        W35694   3.976   8.586   1.482 -0.0661  0.0372 -0.1749
18848W        W35695   0.883   9.425  10.464 -0.5320  0.2686 -0.1008
18849W        W35696  12.158  11.088   9.587 -0.2765  0.0600  0.1199
18850W        W35697   3.282   2.203  12.945  0.1119  0.1263  0.0073
18851W        W35698  10.923  13.598  10.541 -0.0579  0.3185  0.1480
18852W        W35699  13.422  11.232   5.244 -0.0713  0.2496 -0.0388
18853W        W35700  17.544   3.967   2.816 -0.0678 -0.4396 -0.3830
18854W        W35701  15.536  10.199   2.833  0.3478  0.0768  0.0126
18855W        W35702  15.014   3.981  12.562  0.1524 -0.0086 -0.0732
18856W        W35703   1.872  16.236  13.929  0.0585 -0.0644  0.0794
18857W        W35704   0.529  16.724  11.284 -0.1743 -0.1602  0.0819
18858W        W35705   5.275   3.367   3.747  0.0469  0.2535  0.1590
18859W        W35706  16.258   9.653  10.937  0.3768 -0.0659 -0.0104
18860W        W35707  14.309   3.678  14.943  0.2961 -0.1565  0.1747
18861W        W35708   9.321   9.111  13.079  0.0026 -0.4643  0.1586
18862W        W35709   6.952  10.642   2.461 -0.1728  0.0546  0.3437
18863W        W35710   2.717   9.675   4.154  0.0606  0.2289 -0.2068
18864W        W35711  14.699  12.556   2.037 -0.0531 -0.1366 -0.0228
18865W        W35712  13.531   8.999  14.739 -0.1606 -0.3561 -0.0598
18866W        W35713  16.579   0.535   3.283  0.1546  0.0839  0.4205
18867W        W35714  19.150   8.690   0.924  0.0936  0.1231  0.1473
18868W        W35715  16.740   2.119   0.357  0.3499  0.0166 -0.0728
18869W        W35716   4.786  15.429  10.588  0.1048  0.0614  0.0041
18870W        W35717  15.057  10.667  12.083 -0.1163 -0.1577 -0.1552
18871W        W35718   4.015   9.215   4.200  0.0213 -0.2547 -0.2068
18872W        W35719  17.252   9.221   9.780  0.0744  0.2524 -0.1648
18873W        W35720   2.940   1.390   3.304  0.1131 -0.2580  0.0771
18874W        W35721   4.157   2.232  12.637 -0.0741  0.3324  0.2124
18875W        W35722   3.561  10.247  12.125 -0.0044  0.1286  0.0339
18876W        W35723   4.178   2.124  13.293  0.1755 -0.0169 -0.1622
18877W        W35724   4.346  11.614  12.413 -0.0891  0.1892 -0.3621
18878W        W35725  18.595  11.521   3.182 -0.0155 -0.0422 -0.0800
18879W        W35726   4.482  16.959   3.339  0.1204  0.0305 -0.1345
18880W        W35727  16.200   1.092  12.435 -0.0789 -0.0300 -0.0523
18881W        W35728   9.294  15.605  12.493 -0.1014  0.1979  0.0715
18882W        W35729  17.807   2.704  14.878 -0.4643  0.0638  0.2868
18883W        W35730  18.727   5.551   4.963  0.1008  0.1115  0.2500
18884W        W35731   0.120  14.432   1.402  0.1364 -0.2688  0.1314
18885W        W35732  16.443  18.178  14.556 -0.0192  0.2008  0.0781
18886W        W35733  15.886   0.188  12.789 -0.0503  0.2741 -0.1682
18887W        W35734  16.903  13.427   2.733  0.0236  0.5298 -0.0362
18888W        W35735   9.805  18.992   2.596 -0.0039 -0.3740  0.1645
18889W        W35736  17.882   2.034  10.419  0.0973  0.3126 -0.0480
18890W        W35737  10.591   3.352   4.925 -0.0807 -0.0626 -0.1011
18891W        W35738  10.469   5.907  11.687 -0.0487 -0.0356  0.0395
18892W        W35739   2.065   0.963  11.062 -0.1101 -0.1748 -0.2190
18893W        W35740  13.628   5.937   1.956  0.1574 -0.2519 -0.0820
18894W        W35741   4.234   2.479   2.523  0.1227  0.2564  0.1256
18895W        W35742   7.267  13.756  10.907  0.2468  0.1997 -0.1776
18896W        W35743  17.525  15.194  13.960 -0.2989 -0.0210  0.1105
18897W        W35744   3.437   4.924  14.975  0.1262  0.2045  0.0329
18898W        W35745  11.409  11.117  12.973  0.2737 -0.2071 -0.2727
18899W        W35746  10.530   3.198   1.319  0.1629  0.2120 -0.4178
18900W        W35747   5.695   8.512   1.987  0.1601  0.1144  0.1992
18901W        W35748  13.567   3.574   5.000  0.0724 -0.1748 -0.2001
18902W        W35749  10.542  12.790   3.581  0.0246  0.1565 -0.0812
18903W        W35750   2.752  10.979   1.074 -0.0055 -0.0736  0.3166
18904W        W35751  14.281   6.827   2.515  0.3142  0.0536  0.3829
18905W        W35752  17.752  16.492  10.932  0.1803  0.0184 -0.0136
18906W        W35753   6.529   4.349  12.312 -0.1606 -0.1264 -0.1098
18907W        W35754  12.193   9.633   4.362 -0.0502 -0.0303  0.1342
18908W        W35755   1.328  10.624   3.370  0.2788  0.1780 -0.1992
18909W        W35756   2.451   2.513   5.142 -0.0102 -0.2821 -0.1815
18910W        W35757   4.367  14.960  14.252 -0.5005  0.2384 -0.1723
18911W        W35758  14.450   5.710  12.955 -0.1503 -0.3037 -0.2391
18912W        W35759   5.010   2.809   1.004  0.0880 -0.0162 -0.0022
18913W        W35760  18.314  10.721  14.673  0.0072 -0.2507 -0.1383
18914W        W35761  14.496  12.859  13.471  0.1405  0.0469 -0.2438
18915W        W35762   5.714  12.836  11.628  0.2420  0.0559  0.2345
18916W        W35763  16.281  11.379   4.346  0.1621 -0.0524  0.0963
18917W        W35764   3.303  18.886  13.101 -0.0862 -0.0778  0.1045
18918W        W35765  16.250   1.779  10.744  0.1671 -0.1769  0.1299
18919W        W35766  14.365   1.079   2.945  0.0456  0.1311 -0.0390
18920W        W35767   5.918  11.214   1.286  0.1655 -0.0152  0.1706
18921W        W35768   9.916   0.818  14.555 -0.4188  0.0027  0.0798
18922W        W35769   7.622   5.117   0.565 -0.2677  0.0663  0.2369
18923W        W35770   4.109  14.900   3.379 -0.1932 -0.1037  0.1136
18924W        W35771   8.238  16.574  12.239  0.0589  0.2929 -0.2471
18925W        W35772   1.011   9.555  13.648 -0.0592 -0.3494 -0.0199
18926W        W35773  13.219  15.193   1.802 -0.2665  0.0092  0.1122
18927W        W35774   5.339  10.106   1.974 -0.0546 -0.2591 -0.0365
18928W        W35775   6.320   6.008   4.184 -0.1655  0.1455 -0.0236
18929W        W35776   0.908  19.247   2.111 -0.0519 -0.0711  0.0463
18930W        W35777  16.052  11.119  11.445 -0.2261  0.1582 -0.0695
18931W        W35778   1.915  11.136   3.815  0.2281  0.2866 -0.1935
18932W        W35779  10.980  11.642  14.963  0.3587 -0.2666  0.0687
18933W        W35780  13.199   4.752  10.817  0.1624  0.0601  0.1299
18934W        W35781  15.751   6.915   0.485 -0.0229  0.1814 -0.1047
18935W        W35782  16.138  14.805   3.938 -0.0224  0.0811 -0.2317
18936W        W35783  14.336   5.909   4.746  0.3942 -0.1950 -0.0987
18937W        W35784   5.543  15.664   3.036  0.0669  0.2138 -0.2559
18938W        W35785  10.033  11.566   0.507 -0.1724  0.0313 -0.1052
18939W        W35786  17.698   4.392   4.325  0.0279 -0.0942 -0.1174
18940W        W35787   8.386   9.886   3.756 -0.1063  0.1702 -0.0930
18941W        W35788  12.620  14.401  12.385 -0.0464  0.2162 -0.1184
18942W        W35789  16.082  17.720   1.688  0.1799  0.0832  0.0250
18943W        W35790  12.123  10.170   3.106 -0.2851 -0.0742  0.1715
18944W        W35791   6.001   5.341  13.052 -0.0450  0.0468  0.3143
18945W        W35792  18.579   5.548  11.580  0.0399 -0.3360  0.1542
18946W        W35793  17.204  15.502  13.492  0.3471 -0.1961  0.0551
18947W        W35794   0.676   1.153   3.311  0.1449  0.0353  0.0537
18948W        W35795  13.542   3.110   4.742  0.2404 -0.1093 -0.1376
18949W        W35796   6.907   7.192  11.876  0.0633  0.1844  0.0938
18950W        W35797   1.828   3.565  13.239 -0.0952  0.1427  0.2251
18951W        W35798  15.895  16.117  10.906  0.2146 -0.0626  0.2533
18952W        W35799   0.438  12.267   4.266 -0.3490  0.2665 -0.0043
18953W        W35800  15.071   2.238   1.134  0.4208 -0.0201 -0.1358
18954W        W35801  16.155   7.165   2.609  0.1485  0.3850  0.2058
18955W        W35802  13.956  18.557   2.333 -0.0436  0.0517 -0.3438
18956W        W35803  12.726  10.632  11.620  0.1304 -0.3053  0.1009
18957W        W35804   4.295   1.856  14.203  0.1307  0.0891 -0.1092
18958W        W35805  18.627   4.154   0.776 -0.1200  0.1447 -0.2918
18959W        W35806   9.426   0.842   1.385  0.2104 -0.1225  0.2781
18960W        W35807  14.466  18.972   1.778 -0.1066 -0.1761 -0.1022
18961W        W35808   3.797   6.610  10.572 -0.2363 -0.1840  0.1640
18962W        W35809   3.839  13.204  10.384 -0.1964 -0.2138 -0.3391
18963W        W35810   2.903   3.002   3.124 -0.1953 -0.0429  0.0845
18964W        W35811  15.621   5.791  12.355 -0.0620  0.2111  0.2383
18965W        W35812  12.393  13.609   0.840  0.2707 -0.1559 -0.1564
18966W        W35813   3.928   8.214   4.353 -0.0295 -0.2065  0.0892
18967W        W35814   2.511   0.296  11.682 -0.1533  0.0965 -0.0954
18968W        W35815  14.219   4.682  13.676 -0.1046  0.1706  0.1857
18969W        W35816   0.060   5.812  12.331 -0.2044  0.0217  0.1944
18970W        W35817   3.366   0.791  12.763  0.1664  0.1372  0.3689
18971W        W35818   9.859  14.799   2.997  0.2148 -0.2254  0.3490
18972W        W35819   6.088   1.919   5.431 -0.0041 -0.1837 -0.1349
18973W        W35820  12.248   7.619  10.337  0.1371  0.0767  0.0666
18974W        W35821  15.586  15.641  14.619  0.1657  0.1607  0.0088
18975W        W35822   4.971  14.492  11.623 -0.0518 -0.0838  0.1083
18976W        W35823  13.692  17.243   2.696  0.2826 -0.0098 -0.2895
18977W        W35824  12.841  11.645  11.473  0.0077 -0.0975  0.1052
18978W        W35825   9.142  16.868   1.135 -0.3747  0.1332  0.0314
18979W        W35826   4.564  13.615  10.675  0.1722  0.2981  0.0088
18980W        W35827   1.177   2.899  11.618 -0.1548 -0.1555  0.2069
18981W        W35828  18.411  12.399   1.752  0.1573  0.1929 -0.2927
18982W        W35829  14.775   8.745   0.719  0.1199  0.1505  0.0992
18983W        W35830   9.743  10.232  10.438  0.4554 -0.4617 -0.0959
18984W        W35831  10.985   2.239  13.321 -0.0698 -0.1552 -0.1899
18985W        W35832   8.167  16.234   2.596  0.0328 -0.0293 -0.1173
18986W        W35833  11.707   4.694  11.678 -0.0818 -0.1515  0.1798
18987W        W35834   4.794   2.675  14.575  0.2955  0.0684  0.0014
18988W        W35835  16.228   3.671   5.194 -0.3232  0.1564 -0.2875
18989W        W35836  12.558   9.443  12.075 -0.1231  0.0236  0.0026
18990W        W35837   3.702   5.093   2.280 -0.0252  0.2133 -0.1467
18991W        W35838  18.260  18.126  11.783  0.0915  0.0901  0.2253
18992W        W35839  15.449  17.427   0.014 -0.1757  0.0936  0.1736
18993W        W35840   0.030  13.653  12.375 -0.0285  0.2841  0.4191
18994W        W35841   6.187  10.970   0.953  0.0037  0.2550 -0.1402
18995W        W35842  17.624  12.108  12.385 -0.0684 -0.0826 -0.3873
18996W        W35843   5.222   8.107  13.816 -0.2248  0.1939  0.1678
18997W        W35844  14.959   0.307   4.890  0.2513 -0.2006  0.1708
18998W        W35845   8.407   8.154   3.059 -0.2746 -0.3511 -0.0370
18999W        W35846  12.863   1.488   1.299 -0.2026  0.2291  0.2224
19000W        W35847  14.879  11.636   5.095 -0.3403 -0.2561 -0.0333
19001W        W35848   8.669  18.876   4.174 -0.2393  0.1138  0.1253
19002W        W35849   6.607   0.826   4.789  0.0673 -0.3324 -0.0106
19003W        W35850   4.423  17.609  11.249 -0.1277  0.0294  0.0343
19004W        W35851   1.509   6.175   1.415  0.1158 -0.2314  0.0624
19005W        W35852   4.928  13.488  11.433  0.0662 -0.2324 -0.1625
19006W        W35853   1.300   7.002  10.780  0.3064  0.1736 -0.0371
19007W        W35854  17.260   0.898   9.839  0.3235 -0.0158 -0.0727
19008W        W35855  15.812   4.257  12.430  0.1788 -0.0434  0.0627
19009W        W35856   9.241  19.220   2.590  0.0406 -0.2891 -0.1619
19010W        W35857   5.900   0.862   4.591  0.0364  0.1136 -0.1113
19011W        W35858   0.259  14.629  13.294 -0.1328  0.1847 -0.1087
19012W        W35859   9.468  11.180  11.218 -0.1443 -0.2233 -0.0602
19013W        W35860  10.606  14.460  13.526  0.1134 -0.1848  0.0571
19014W        W35861   7.359  16.903   4.810 -0.3822 -0.0445 -0.1236
19015W        W35862   8.751  10.991   3.092  0.1316 -0.2507 -0.0228
19016W        W35863   4.974  15.867  12.338 -0.2819  0.1064 -0.1464
19017W        W35864  19.046  10.934  13.065 -0.0312  0.2677  0.3528
19018W        W35865  17.958   3.669  13.392  0.1563 -0.0956  0.1296
19019W        W35866   3.129  10.250  13.003 -0.0670 -0.0889  0.0204
19020W        W35867  18.799   5.928   2.983 -0.1407 -0.2096 -0.0156
19021W        W35868   6.023  11.360   2.888 -0.0676  0.0033  0.0188
19022W        W35869  13.642  15.190  12.416 -0.0165 -0.0075  0.0081
19023W        W35870  12.623  19.254  12.549 -0.0988  0.2055 -0.1394
19024W        W35871   0.849   1.250   1.931 -0.2602  0.1338 -0.1493
19025W        W35872  17.263   5.871   2.592 -0.0049 -0.1024 -0.0898
19026W        W35873   7.453   5.708  12.137 -0.0227 -0.4685 -0.0964
19027W        W35874   4.628  17.501   1.916 -0.1256  0.0707  0.0487
19028W        W35875  18.598  11.756  12.607  0.1552  0.1484  0.0398
19029W        W35876   1.367   4.235   2.625  0.1232 -0.0033 -0.0484
19030W        W35877  15.537   3.901   1.081 -0.1681  0.1012 -0.1177
19031W        W35878   2.012  16.603  14.549  0.2899  0.1024 -0.1301
19032W        W35879   0.933   4.474   1.207  0.1927 -0.0423 -0.2351
19033W        W35880  12.254   5.030   0.636 -0.2098 -0.0621  0.0402
19034W        W35881  18.278   6.363   1.702  0.0859  0.2775  0.1252
19035W        W35882  16.819   5.675  13.086  0.1645 -0.3648  0.1053
19036W        W35883   4.009  12.790  12.123  0.1231 -0.0692  0.0956
19037W        W35884  17.072   2.832   3.565 -0.0656  0.0898  0.1140
19038W        W35885  12.519   2.672  12.152  0.1394 -0.3420  0.3336
19039W        W35886   2.494  10.621  14.725  0.1170 -0.0166  0.1591
19040W        W35887  11.154  16.771   0.488 -0.2913 -0.2218 -0.3582
19041W        W35888  11.392  10.802  13.329  0.0732  0.1512 -0.1752
19042W        W35889   2.480   0.464  12.270 -0.1197 -0.0129 -0.2245
19043W        W35890   7.621  14.854  12.636 -0.0576  0.2082 -0.0486
19044W        W35891  17.500  15.106  10.762 -0.0014 -0.1010 -0.0427
19045W        W35892   7.376  18.902  13.465 -0.0882  0.1046 -0.2940
19046W        W35893  17.706  11.616   1.906 -0.1367 -0.0708  0.0507
19047W        W35894   6.206  15.596  14.479  0.1740 -0.1739  0.1933
19048W        W35895   3.880  13.334  12.170 -0.1220  0.0750 -0.3256
19049W        W35896   2.664  10.953  11.291 -0.3036 -0.2249  0.1251
19050W        W35897   4.983  13.395   0.528  0.1878  0.3303  0.3661
19051W        W35898  13.699  16.050  14.214  0.3306  0.1149 -0.0495
19052W        W35899   0.352  15.135  12.172 -0.0784  0.0533 -0.0282
19053W        W35900   3.458  16.098   0.901 -0.0972  0.2762 -0.0015
19054W        W35901   6.845  18.597  12.225  0.0574 -0.2928 -0.1106
19055W        W35902   6.126  16.406   0.714  0.0382  0.1013 -0.1680
19056W        W35903  11.598  13.130   1.476 -0.2335  0.1977 -0.0589
19057W        W35904   9.217   3.845  14.211 -0.0104 -0.3149  0.3960
19058W        W35905   7.211   1.751   3.328  0.0051 -0.4040  0.0514
19059W        W35906   4.762   4.960  14.351  0.0448  0.0540 -0.1781
19060W        W35907   3.993  15.706   3.238 -0.1618  0.2557  0.1540
19061W        W35908   9.295  10.738   2.258 -0.1871 -0.1776 -0.1346
19062W        W35909   3.218   4.406   2.784 -0.2499 -0.0142 -0.0641
19063W        W35910  16.703  11.670   0.815  0.1430  0.3239 -0.3446
19064W        W35911  18.884  17.830   2.481  0.4434 -0.1882 -0.2265
19065W        W35912  10.925  17.869   4.163 -0.1688 -0.1837  0.4747
19066W        W35913  17.781   7.920  12.145 -0.0394  0.4563  0.0502
19067W        W35914   6.371   1.834  12.528  0.2634  0.1123 -0.0175
19068W        W35915   5.120  18.795  14.769 -0.0286 -0.1982  0.1007
19069W        W35916  15.984  12.595   4.155 -0.0687  0.0575 -0.2434
19070W        W35917   6.244  14.466   4.328 -0.1069  0.2206 -0.1554
19071W        W35918  19.206  10.114   0.434  0.1688  0.0243 -0.0070
19072W        W35919  18.890   5.264   1.846  0.1029  0.2073 -0.0359
19073W        W35920  15.776  18.070  13.781  0.1459  0.0599  0.1612
19074W        W35921  16.089   1.434   9.845  0.2010 -0.0836 -0.2438
19075W        W35922   7.885  10.104  11.552  0.0500  0.3248  0.0502
19076W        W35923  11.636   7.112  13.891  0.0623 -0.1925 -0.4509
19077W        W35924  12.286   1.864  12.768  0.0501  0.3401  0.2335
19078W        W35925   2.134  15.216  10.760  0.0118 -0.0877 -0.0202
19079W        W35926  16.939  10.790   1.014 -0.0619  0.0751 -0.0145
19080W        W35927  12.268  13.150   4.185 -0.1007 -0.0359  0.0710
19081W        W35928  11.521   6.444  12.264  0.0933 -0.1831  0.2142
19082W        W35929  10.125  10.204   2.090  0.1955 -0.0704 -0.2169
19083W        W35930  15.537  15.589   3.367 -0.1821  0.1123 -0.2206
19084W        W35931   2.919  10.759   2.009 -0.1771  0.1121 -0.1089
19085W        W35932   9.770  17.348   3.652  0.2127 -0.3342 -0.1062
19086W        W35933  12.727  12.900   4.833  0.1484  0.2501  0.0451
19087W        W35934   4.005   3.623  11.770  0.0855  0.0953 -0.0951
19088W        W35935   6.637  10.027   3.105  0.0894  0.1988 -0.2164
19089W        W35936  13.557   0.718  12.775  0.0067  0.3274 -0.0031
19090W        W35937   7.514  17.334   0.570  0.1235 -0.1360 -0.0417
19091W        W35938   9.679   4.704   2.534  0.0575 -0.1697  0.0841
19092W        W35939  16.917   7.335   3.929 -0.0904 -0.1578  0.1102
19093W        W35940  11.018   6.816   0.616  0.0887  0.2537 -0.2572
19094W        W35941  18.896   7.648   0.354 -0.1211 -0.0292 -0.1564
19095W        W35942  15.107   5.764   2.749  0.5125  0.0712  0.3223
19096W        W35943  17.867   1.080   0.762  0.2928 -0.3637  0.0985
19097W        W35944   4.981  10.082   1.613 -0.1324  0.2026 -0.2055
19098W        W35945   0.159   4.745   9.469  0.2233  0.1980  0.2543
19099W        W35946  19.043  18.938   5.714  0.2199  0.1418  0.0254
19100W        W35947  17.398  10.694  12.755 -0.0490 -0.1301  0.0807
19101W        W35948  10.455  11.900  10.410  0.1447 -0.0100 -0.0431
19102W        W35949   8.011  13.279   2.418 -0.2989  0.0915  0.0193
19103W        W35950  12.105   9.059   0.737 -0.2496  0.0692 -0.0499
19104W        W35951   4.319  15.373   2.997  0.0831 -0.0373  0.0944
19105W        W35952  11.644  12.813  14.366  0.2736 -0.2473  0.2291
19106W        W35953   3.046  18.389  14.051 -0.0981 -0.0263 -0.2669
19107W        W35954   4.057   9.689   2.562  0.1712  0.1813 -0.2095
19108W        W35955   0.592   8.676   4.846 -0.0034 -0.0541  0.1566
19109W        W35956   3.086   0.277   3.497 -0.0885 -0.0112 -0.0529
19110W        W35957  18.686   8.189  10.489  0.0280 -0.2163  0.3618
19111W        W35958   6.506   3.206  10.535  0.0188 -0.2335  0.1090
19112W        W35959   5.996  15.713  13.905  0.0518 -0.1346 -0.3451
19113W        W35960   5.017  17.632   0.260  0.2548  0.1047 -0.0831
19114W        W35961   0.294  16.632  14.597  0.2469 -0.1661  0.0572
19115W        W35962   1.600  12.748   1.638  0.3481  0.1218  0.2528
19116W        W35963  13.255   5.642  10.813 -0.0539  0.2494  0.0491
19117W        W35964  17.664  18.015  10.431 -0.2801 -0.0950 -0.0829
19118W        W35965  14.188  12.575   5.568  0.5053  0.1396  0.2250
19119W        W35966   1.703  16.637  13.262 -0.2708 -0.0537  0.3025
19120W        W35967  19.253  10.428  10.753 -0.1801 -0.3703  0.0329
19121W        W35968   7.376   2.868  10.799  0.0156 -0.0280  0.0467
19122W        W35969  10.716   7.018  11.624  0.1208 -0.0556 -0.3482
19123W        W35970   3.215   2.768   0.399  0.0861 -0.2916  0.0794
19124W        W35971  14.677  10.601   3.244 -0.1578 -0.1299  0.1275
19125W        W35972  12.877   4.813  13.088  0.0125 -0.1292  0.1281
19126W        W35973   4.732   0.866  13.680  0.2441 -0.0768  0.2179
19127W        W35974  16.263   2.163  13.280 -0.4341 -0.0524 -0.2300
19128W        W35975  15.190   9.023   1.166  0.2069  0.0283  0.0691
19129W        W35976   7.971   9.222  14.970  0.0603  0.0311  0.0303
19130W        W35977  12.542   6.858   3.071  0.0852  0.0090  0.0152
19131W        W35978  11.093  17.490  10.729  0.4267  0.2098 -0.1221
19132W        W35979   9.225   2.158   1.370 -0.1516 -0.4968 -0.1818
19133W        W35980   2.903  13.036   3.617 -0.1544  0.0346 -0.0233
19134W        W35981  18.109   8.240   0.036  0.0092  0.0770  0.3178
19135W        W35982  18.536   1.440  14.673 -0.0960 -0.2113  0.0972
19136W        W35983  15.442  16.772   0.552 -0.2972 -0.0145  0.0777
19137W        W35984  14.270  15.433   0.531 -0.2394  0.0698 -0.1363
19138W        W35985  18.734  15.833  13.368  0.0370 -0.2729 -0.1181
19139W        W35986  16.398  13.719   1.625  0.1518 -0.0641  0.1262
19140W        W35987   5.219   4.802   2.914 -0.1803  0.0305  0.3032
19141W        W35988   6.106   2.266   0.611 -0.0341 -0.0788  0.1357
19142W        W35989  13.768   5.368  12.805 -0.0577  0.2119  0.1775
19143W        W35990   5.197   9.522   1.104 -0.1857 -0.1131 -0.0515
19144W        W35991  16.649   9.881   4.183  0.0287  0.0974 -0.3533
19145W        W35992   2.331   5.230   0.574  0.2173 -0.1134 -0.0011
19146W        W35993  14.111   8.936  11.208  0.1908  0.2382  0.3041
19147W        W35994  13.899   4.473  14.701  0.2055 -0.1469 -0.0965
19148W        W35995  17.617   5.539  13.310 -0.0895 -0.2995  0.1733
19149W        W35996  15.843   4.385   4.288  0.0264  0.0474  0.0264
19150W        W35997   2.786   1.965  14.305  0.1645  0.4708  0.2188
19151W        W35998  11.101   8.396  11.126  0.1994  0.0456 -0.1671
19152W        W35999   3.104  11.433  10.578 -0.2296 -0.1235  0.0683
19153W        W36000  13.940  13.460   2.738  0.1566  0.0579  0.0819
19154W        W36001  16.940   0.378   2.998  0.3194  0.0720  0.0325
19155W        W36002  11.059   3.994   4.562 -0.2220  0.0354 -0.1730
19156W        W36003  13.663   0.424   2.230 -0.2292  0.0693  0.1158
19157W        W36004   3.625  17.584  12.195 -0.0131 -0.0600 -0.0935
19158W        W36005   9.240  15.680  11.828 -0.2728 -0.0416 -0.1559
19159W        W36006   0.344  11.189  11.292  0.3108  0.1168  0.2362
19160W        W36007   5.091  19.220   3.124  0.3481  0.1005 -0.3754
19161W        W36008   7.273  19.113  10.796  0.0417  0.1389 -0.1921
19162W        W36009   4.697  16.004   1.370  0.3282  0.1316  0.0191
19163W        W36010   0.455   8.581  13.693  0.4348 -0.1219  0.1052
19164W        W36011   2.127   8.428  11.302  0.0658  0.0912  0.3506
19165W        W36012  13.337   7.159   4.678  0.5002  0.3989  0.2592
19166W        W36013   8.603  11.906   9.520 -0.3154 -0.1390 -0.0848
19167W        W36014  12.850  10.642   0.188  0.3658 -0.3706 -0.0016
19168W        W36015  11.470   0.268  11.244 -0.1467 -0.1589 -0.2597
19169W        W36016   9.229   3.341  12.299  0.0852  0.0789  0.2469
19170W        W36017   1.980   2.304  14.448 -0.0005  0.0559  0.0829
19171W        W36018   3.353   5.864   1.957 -0.0785 -0.1412  0.1416
19172W        W36019   6.488  10.401  11.171 -0.0526 -0.2092 -0.1400
19173W        W36020  14.752  16.413   1.638 -0.2154 -0.2388  0.1452
19174W        W36021   7.770   3.839  13.021  0.0741 -0.1969 -0.2481
19175W        W36022   5.419   9.869  10.182  0.4291  0.2847 -0.1276
19176W        W36023  16.290  14.042   2.452  0.1929 -0.2348 -0.1291
19177W        W36024   0.740  13.452  13.692 -0.0287  0.1967  0.1532
19178W        W36025   0.441  14.580   5.040 -0.2635 -0.0292 -0.3036
19179W        W36026  17.727  17.273   4.071 -0.1398  0.1201 -0.0119
19180W        W36027   4.877   4.464   3.112 -0.0106  0.4871 -0.1355
19181W        W36028  14.819  10.428   0.096 -0.4772 -0.1397  0.1347
19182W        W36029   4.555   3.422   0.686 -0.0750 -0.2983 -0.0875
19183W        W36030  14.339  11.504   1.602  0.0372 -0.0304 -0.0791
19184W        W36031   7.163  12.076  14.514  0.3418 -0.0489 -0.0457
19185W        W36032   3.633   1.283   2.396 -0.0480 -0.0647  0.0531
19186W        W36033  11.403  17.347  14.622  0.0642  0.1812 -0.2081
19187W        W36034   5.022  12.528   3.787 -0.2226 -0.0724  0.1731
19188W        W36035  12.849  17.408  13.380 -0.4590 -0.0351 -0.1500
19189W        W36036  19.141   6.436  10.648  0.0475 -0.0898  0.1266
19190W        W36037   8.562  13.189  14.621  0.1007 -0.0036 -0.3395
19191W        W36038   7.734   6.521   0.475 -0.0917  0.3844 -0.1113
19192W        W36039  15.292   2.019   9.821 -0.2989  0.1348 -0.0200
19193W        W36040   7.628   0.777   2.670  0.3111 -0.0557 -0.1433
19194W        W36041   0.614   9.790   3.496 -0.3276 -0.1661 -0.0607
19195W        W36042  18.799   6.367   1.609  0.0748 -0.2711  0.2011
19196W        W36043   1.605   1.066   0.449 -0.0963  0.0802  0.2014
19197W        W36044   2.055  11.613  12.349  0.0063  0.1098  0.1556
19198W        W36045  10.025   3.048   2.551  0.1225  0.2692  0.1281
19199W        W36046  16.471  13.344   2.035 -0.0506 -0.4013  0.0415
19200W        W36047  11.074  19.234  11.234 -0.2927  0.1895 -0.2520
19201W        W36048  12.247   9.169   1.229 -0.1436  0.0693  0.0398
19202W        W36049  18.148   3.458  13.940  0.0303  0.2200  0.0379
19203W        W36050   2.321  17.125  10.441  0.0053 -0.4290  0.0138
19204W        W36051   0.039  11.114   1.801  0.0124 -0.1250 -0.0002
19205W        W36052  13.318   6.532  13.362  0.2992 -0.0949 -0.1094
19206W        W36053  18.756  11.048   2.975 -0.0721  0.0586  0.0125
19207W        W36054  18.238  12.438  10.646 -0.3358 -0.2139 -0.1703
19208W        W36055  13.792  10.346   4.744 -0.0557 -0.0899  0.3768
19209W        W36056  15.852  17.182  12.738 -0.1483  0.0970  0.1096
19210W        W36057   7.583   3.421  10.906 -0.0021  0.2076  0.0516
19211W        W36058  11.394  12.494   0.840  0.3882  0.1055  0.1602
19212W        W36059   7.556  17.002  11.135  0.0107  0.1212  0.1171
19213W        W36060   9.843  14.247  14.179 -0.1238 -0.0801  0.1251
19214W        W36061  10.812  14.559  14.889 -0.0882 -0.1298 -0.1474
19215W        W36062  11.205   9.174  14.630 -0.1755  0.1187 -0.1543
19216W        W36063  15.534   3.700  14.195  0.0471 -0.1724 -0.0349
19217W        W36064  18.548   9.302   4.142  0.2203 -0.1499 -0.1645
19218W        W36065  18.752  19.265   4.813  0.0428  0.2741 -0.4234
19219W        W36066  12.150   1.782   5.133  0.2963 -0.0461 -0.1536
19220W        W36067   5.768   3.120   3.767  0.3484 -0.0498 -0.1804
19221W        W36068   2.084   5.717   4.854  0.0955  0.2089 -0.2112
19222W        W36069   7.726   3.583  14.943 -0.2191  0.0331  0.2141
19223W        W36070  11.339  17.717  11.545  0.0089  0.1819 -0.0149
19224W        W36071  16.502   0.571   1.087  0.0410  0.0360  0.0146
19225W        W36072   9.584  14.624  11.585 -0.2789  0.2562  0.0268
19226W        W36073   7.736   0.265   2.739  0.0306  0.1007  0.0484
19227W        W36074   0.421  16.736  13.625  0.1879 -0.3389  0.1273
19228W        W36075  11.906   7.427   0.911 -0.1645  0.2646 -0.3558
19229W        W36076   3.770   0.711   2.434  0.0331 -0.2069  0.3226
19230W        W36077   9.190   2.738   3.119  0.0574 -0.1983  0.0946
19231W        W36078  17.207   2.604  11.321 -0.0572 -0.1393  0.1846
19232W        W36079  13.842  14.709   4.205 -0.0274 -0.0892  0.0024
19233W        W36080   2.198  12.523  13.884 -0.3318  0.0973 -0.0326
19234W        W36081  15.751   4.653  12.158  0.4418  0.1633 -0.0327
19235W        W36082  16.650   9.201  10.936 -0.3206 -0.0311 -0.1379
19236W        W36083   3.639  12.083   2.469  0.3968 -0.2777 -0.4301
19237W        W36084   0.973  19.010   2.537  0.2901 -0.0756  0.0486
19238W        W36085   1.276   5.375   2.106  0.2107 -0.1526  0.2817
19239W        W36086  15.565  11.939   4.428 -0.1886 -0.3940  0.3227
19240W        W36087  14.105   7.203   3.790  0.2647  0.3949 -0.0492
19241W        W36088   7.453   6.478   1.649 -0.2457 -0.0877 -0.0044
19242W        W36089  15.186  12.714   1.710  0.1481  0.2907  0.1151
19243W        W36090  13.819  15.660  10.765  0.3342 -0.1021  0.1005
19244W        W36091  18.161   0.253  12.457  0.2857  0.1867 -0.1340
19245W        W36092  13.144   5.062  14.046  0.0924  0.1190 -0.0137
19246W        W36093   9.157  18.982  14.662  0.0078 -0.2196  0.0165
19247W        W36094   8.453  19.044  10.016  0.0552  0.1909  0.0093
19248W        W36095   5.325   6.898  11.800  0.4375 -0.0103  0.1307
19249W        W36096  15.694   0.084  13.318 -0.1448 -0.3955 -0.1265
19250W        W36097  11.274   7.873  11.054  0.0326  0.0743 -0.0298
19251W        W36098  14.575   3.187  12.074  0.0438  0.2233  0.2586
19252W        W36099   8.500  16.038  14.106  0.0591  0.1275  0.2162
19253W        W36100   4.879  17.804   4.547 -0.3404  0.1464  0.2722
19254W        W36101  15.584   2.401   4.339  0.1741 -0.0575  0.0020
19255W        W36102  17.115   9.775   0.989  0.2151 -0.0676  0.0617
19256W        W36103   0.222  14.661  11.971  0.1504  0.0938 -0.1828
19257W        W36104  16.240  13.662  11.536 -0.2169 -0.1689  0.4096
19258W        W36105   7.942  12.490   4.665  0.1423  0.0993  0.2103
19259W        W36106  18.839   7.391   4.393  0.2226 -0.2393  0.1881
19260W        W36107  18.989  12.005   5.564  0.0354  0.1308  0.0323
19261W        W36108   0.344   6.452  14.117 -0.1269  0.1740 -0.0916
19262W        W36109  16.128   0.234   2.384  0.1606  0.3295 -0.1888
19263W        W36110  17.912  16.970  12.609 -0.0465 -0.0828  0.2181
19264W        W36111  15.624   1.935   3.068  0.2661  0.0196 -0.3473
19265W        W36112   8.835   3.616  14.404 -0.0126 -0.1454 -0.0991
19266W        W36113  16.400  15.953   1.861 -0.0230  0.1130 -0.1158
19267W        W36114  11.707   8.458   1.570  0.2163  0.1388  0.2941
19268W        W36115   7.008  15.564   0.326 -0.3517 -0.3980 -0.1806
19269W        W36116   7.623  15.014  13.192  0.3303 -0.0417 -0.0816
19270W        W36117  10.612  10.444  10.422  0.0074 -0.4340  0.2444
19271W        W36118   7.815   6.666   2.860  0.2221 -0.2617 -0.3410
19272W        W36119   0.812  10.257   3.473 -0.0959  0.0215 -0.3072
19273W        W36120   5.597  11.034   4.325  0.0528 -0.0975 -0.2386
19274W        W36121  10.771   7.475  14.389 -0.0004  0.0775  0.0447
19275W        W36122   8.532  11.582   3.884  0.0406 -0.2440 -0.1890
19276W        W36123  19.274  12.378  12.932 -0.0546  0.0772 -0.0894
19277W        W36124  14.313  15.830   5.464  0.0177  0.1546  0.0704
19278W        W36125  10.136  14.071   3.223 -0.2229  0.0498  0.1706
19279W        W36126   6.942  14.446   2.151 -0.0234 -0.3222 -0.0758
19280W        W36127   0.727   2.870   4.152  0.3850 -0.1363 -0.0891
19281W        W36128   3.169   3.201   2.148  0.1111 -0.3935  0.0900
19282W        W36129   3.211  11.991  14.921 -0.3541 -0.2008 -0.2241
19283W        W36130   3.707  15.937   5.321  0.0465  0.1763  0.1807
19284W        W36131  15.981   9.632   5.039 -0.0149  0.2994  0.3063
19285W        W36132   7.940  19.027   2.800 -0.1385  0.0183  0.0400
19286W        W36133  13.655  11.034  12.921  0.1701  0.2632 -0.2148
19287W        W36134   3.999   7.216   1.621 -0.1974  0.0085  0.2940
19288W        W36135   0.290  10.161   3.276  0.2967 -0.1594  0.0181
19289W        W36136   3.249  11.763   4.037  0.1759 -0.1644 -0.1858
19290W        W36137  13.496   7.035   2.947  0.2192  0.0923  0.0401
19291W        W36138  14.915   7.582  11.723  0.0729 -0.0431  0.2097
19292W        W36139   3.009  16.358   2.464  0.2504 -0.1690 -0.0773
19293W        W36140  13.424   4.744  14.975  0.1716 -0.1124 -0.2255
19294W        W36141   0.099   0.609   1.073  0.1387 -0.0926 -0.0737
19295W        W36142   2.875  12.198  12.255 -0.1139 -0.1360 -0.2089
19296W        W36143  11.330  16.687   2.788  0.3703 -0.4459  0.0863
19297W        W36144  15.310   6.280   9.583  0.2297  0.3085  0.1212
19298W        W36145  18.374  13.180  11.765 -0.1176 -0.3827  0.3470
19299W        W36146   0.386   0.111   1.932  0.0102 -0.1506 -0.0605
19300W        W36147   8.154   7.311   3.181 -0.0955  0.1408 -0.0406
19301W        W36148  15.286   9.752  12.461 -0.0780  0.3712  0.0153
19302W        W36149  14.633  16.695   2.178  0.0636  0.0610 -0.1279
19303W        W36150   7.220   9.858  12.672  0.2371 -0.1193 -0.1654
19304W        W36151   5.061  18.896  11.376 -0.2364  0.1803 -0.0367
19305W        W36152   5.740   7.776   2.930 -0.0356 -0.0805 -0.2856
19306W        W36153   1.580   3.487  13.655  0.0231 -0.0426  0.0094
19307W        W36154  19.283   9.153  12.645 -0.1078 -0.1379  0.2025
19308W        W36155   1.917  11.502   1.029  0.0996  0.0136 -0.0424
19309W        W36156  16.902  16.105  10.007  0.1311 -0.0312 -0.4660
19310W        W36157  15.268  16.813   5.124 -0.0672 -0.1928 -0.0144
19311W        W36158   9.381   8.468  10.893  0.1257  0.1511 -0.2838
19312W        W36159   3.700  18.853   3.309 -0.2206 -0.1008  0.0377
19313W        W36160  15.590   0.731  14.673  0.0827  0.1222  0.1630
19314W        W36161  17.012   3.379   3.322  0.0065 -0.3849 -0.1178
19315W        W36162   0.716   6.043  11.715  0.0344  0.0360 -0.0160
19316W        W36163   5.459  18.322  13.820  0.0349  0.1581  0.0646
19317W        W36164  13.735  11.047  11.547  0.0504 -0.0264 -0.0370
19318W        W36165   9.130  12.646   3.859 -0.2041 -0.2351  0.0841
19319W        W36166  17.019   9.427  10.262 -0.3538 -0.0734 -0.1331
19320W        W36167  15.040  16.677   1.977  0.1757  0.1119  0.3246
19321W        W36168  18.665  13.858   2.902 -0.3644  0.1758 -0.0770
19322W        W36169  12.492  16.517  13.103 -0.4226  0.2169  0.1195
19323W        W36170  18.360   8.916   2.688  0.0546  0.3485  0.3047
19324W        W36171  15.243  17.267  14.602  0.2526  0.2767 -0.1578
19325W        W36172   4.313   1.278  11.495  0.1310  0.2513  0.0658
19326W        W36173   8.866  16.498   3.159 -0.0321 -0.1017  0.0938
19327W        W36174   3.348   3.015   3.488 -0.0810  0.0501 -0.0954
19328W        W36175   2.562   1.621  14.005  0.0431 -0.1433  0.0808
19329W        W36176  13.768   3.393   0.100  0.0552 -0.2273 -0.0949
19330W        W36177   5.077   1.684  11.202  0.2558  0.0632  0.1568
19331W        W36178   5.445   8.140  13.303  0.0165  0.1024 -0.0579
19332W        W36179   2.403  10.220   0.539 -0.0417  0.3336  0.2629
19333W        W36180   8.495  14.201   2.854  0.0430  0.1111 -0.3537
19334W        W36181   9.443  16.495   0.981  0.0509 -0.1496  0.1808
19335W        W36182  15.137  18.145   1.927 -0.1648  0.1713 -0.1583
19336W        W36183  13.892   7.225  11.976  0.2082 -0.2794 -0.2155
19337W        W36184  13.655   4.310   0.082  0.0041 -0.2145 -0.1197
19338W        W36185  16.304  10.123   1.663  0.2754 -0.0284 -0.0823
19339W        W36186   4.257  17.786   1.551  0.0130 -0.1335  0.4579
19340W        W36187   9.857   3.412  13.531  0.0965  0.0174 -0.1781
19341W        W36188  16.720  15.222   0.752  0.0853 -0.0803  0.0401
19342W        W36189   7.815   2.221   9.857  0.0422  0.1235  0.0070
19343W        W36190   0.096   7.528   0.379 -0.0600 -0.0324 -0.2621
19344W        W36191  14.546  17.484  11.987  0.2136  0.1374 -0.0525
19345W        W36192  10.894   7.507  10.432 -0.2390  0.0801 -0.0495
19346W        W36193   8.425  13.832   3.458  0.0086 -0.2208  0.0053
19347W        W36194   1.714  15.869  13.038 -0.1309  0.1480 -0.3610
19348W        W36195  17.918  11.853  10.082 -0.0264 -0.0162  0.2960
19349W        W36196  14.891   6.496  13.257 -0.0791 -0.1710  0.0101
19350W        W36197  16.403  16.475  13.728  0.0663  0.1641 -0.0250
19351W        W36198  10.776  14.973   4.060 -0.0073  0.3130 -0.1200
19352W        W36199   6.402   0.434  12.979 -0.1676 -0.0907  0.1534
19353W        W36200   1.949  11.344  13.464  0.1889 -0.2501  0.0651
19354W        W36201   8.304  17.864   0.741  0.2243 -0.0580 -0.0172
19355W        W36202  12.877   1.989   2.930 -0.0170 -0.0293 -0.1461
19356W        W36203  16.872   7.853  13.198  0.0503 -0.1057 -0.0452
19357W        W36204   0.959  10.672   4.562  0.4393 -0.0142  0.0618
19358W        W36205  11.850   3.465   2.754 -0.1651 -0.0048 -0.1194
19359W        W36206  15.400   7.286   1.845 -0.1755  0.3116  0.0112
19360W        W36207   2.342  14.270  12.580  0.0912 -0.1817  0.1870
19361W        W36208   4.591  11.694   0.016 -0.0945  0.0338 -0.0599
19362W        W36209  14.908   3.587  10.740  0.1258  0.4379  0.0755
19363W        W36210  15.916  13.323   0.164  0.1502 -0.1970 -0.1314
19364W        W36211  14.427   0.371  13.835 -0.1767 -0.0404 -0.0192
19365W        W36212   2.392  15.077   4.967  0.3577  0.2416 -0.0906
19366W        W36213  18.207  17.010   5.831  0.4424  0.4196  0.0603
19367W        W36214   3.125   5.738  10.019 -0.0125  0.1895 -0.1977
19368W        W36215  13.898   0.955   4.298  0.0181  0.1669 -0.2835
19369W        W36216  11.282  17.575   2.047 -0.2044  0.3160  0.1545
19370W        W36217  12.145  15.963  14.247  0.0752 -0.0409 -0.1578
19371W        W36218  16.346  13.333   3.889 -0.1076  0.0070 -0.0988
19372W        W36219   2.839   7.517  12.569 -0.0963  0.1807 -0.0354
19373W        W36220  12.131  11.381   2.445  0.0137 -0.0443 -0.2776
19374W        W36221   6.705  12.032  14.786  0.3400 -0.0453 -0.0470
19375W        W36222  12.780  11.923   3.020  0.1642 -0.2923  0.2773
19376W        W36223   1.222  11.924   1.900  0.0969  0.1078  0.1230
19377W        W36224  10.873   2.622   4.526  0.1194 -0.0846  0.4962
19378W        W36225  16.055  13.371   1.796 -0.0786  0.2652 -0.0442
19379W        W36226  15.948   7.029   4.860  0.0755 -0.0267  0.0470
19380W        W36227   1.402  15.042   0.208  0.0770  0.1193 -0.0191
19381W        W36228  17.100  15.449   4.425  0.3868 -0.2962  0.2004
19382W        W36229   5.859   4.802   3.842  0.3820  0.0905 -0.2729
19383W        W36230  18.260  11.450   4.555 -0.0501 -0.5268  0.4597
19384W        W36231  12.387   9.900   1.802  0.1000 -0.2462  0.1305
19385W        W36232   9.109   0.065  13.470 -0.0318  0.1293 -0.2007
19386W        W36233  18.645  18.891  11.316 -0.2226  0.5162  0.1646
19387W        W36234   8.403   1.864   5.545  0.1129 -0.0635 -0.1143
19388W        W36235  13.805   9.489   4.973 -0.0704  0.2354  0.5777
19389W        W36236  12.265   4.219  11.399 -0.0089 -0.2158  0.2888
19390W        W36237  11.973  12.232  11.776  0.1594  0.2580  0.1915
19391W        W36238  15.264  13.761   3.839  0.2515  0.0156 -0.1191
19392W        W36239   6.681   2.770  12.269  0.0004  0.1640  0.0240
19393W        W36240   1.875  11.303  14.658  0.1031 -0.0489 -0.0363
19394W        W36241  19.234   4.601  11.392 -0.1440 -0.1068  0.2131
19395W        W36242   8.624   3.222   2.523  0.0978 -0.0582 -0.0690
19396W        W36243  16.974  15.686   5.138  0.4432  0.0976 -0.1375
19397W        W36244  15.496  14.174   5.239  0.3003 -0.4048  0.0369
19398W        W36245  18.498   9.231  13.201  0.0015 -0.0127  0.0204
19399W        W36246  17.936   6.938  13.898  0.1280 -0.0123 -0.1809
19400W        W36247  13.159   7.733  12.275 -0.1352 -0.0466  0.0223
19401W        W36248  17.547  17.568  12.342  0.2841 -0.1396  0.4411
19402W        W36249   6.868   3.040  11.465  0.3461 -0.1512 -0.1269
19403W        W36250   0.608  12.399   1.011  0.0975 -0.3426  0.0471
19404W        W36251   4.787   9.747  10.803  0.3393 -0.0360 -0.0047
19405W        W36252   8.429   9.174   5.276 -0.0558 -0.1616  0.0627
19406W        W36253   5.025   2.974  14.256 -0.3506  0.1492  0.1531
19407W        W36254   8.669   9.568   5.733 -0.0041  0.2320 -0.0540
19408W        W36255  15.194   9.659  14.110 -0.0391  0.0354 -0.1038
19409W        W36256  11.745  17.761   5.156 -0.0472  0.1093 -0.2434
19410W        W36257   0.110   4.593   2.205  0.0452 -0.1025  0.1614
19411W        W36258  18.135  12.824  12.424 -0.3797  0.0824  0.2066
19412W        W36259   1.491  18.601   1.993  0.1956  0.0998  0.0551
19413W        W36260  17.391  18.408   1.513 -0.0425 -0.0131 -0.2914
19414W        W36261   9.541  14.514   4.824  0.1008  0.1936 -0.1609
19415W        W36262  12.327   4.296  10.357  0.0227  0.1310  0.0950
19416W        W36263   0.809   2.271   5.264  0.4384 -0.1076  0.1059
19417W        W36264   4.020   9.615   3.600  0.0710 -0.1096  0.5308
19418W        W36265   8.578   9.476   0.857 -0.1222 -0.1448  0.2210
19419W        W36266   3.537  19.222  11.361  0.1214  0.2367 -0.1127
19420W        W36267   5.238   3.354  11.559 -0.2629  0.1636 -0.3482
19421W        W36268  13.925  15.180   4.657 -0.0236  0.0589  0.1104
19422W        W36269   7.669  11.044   1.940  0.3202 -0.0737 -0.3204
19423W        W36270   5.792  10.849   3.867  0.1178  0.0383 -0.2653
19424W        W36271  15.776  13.222  11.912  0.3638 -0.0707  0.1458
19425W        W36272   7.641   9.713   4.820  0.2154 -0.0076  0.1400
19426W        W36273   6.212   6.577  14.212  0.1418  0.0561  0.1659
19427W        W36274   9.715  18.130  12.791  0.1624 -0.0537  0.0402
19428W        W36275   7.841  16.096   4.457 -0.0861 -0.4013  0.0528
19429W        W36276  12.302  16.933   4.011 -0.0258  0.0507  0.1214
19430W        W36277  10.438   9.565   1.015 -0.0017 -0.1856  0.2065
19431W        W36278  10.112  18.212   5.319 -0.1651  0.0828 -0.0021
19432W        W36279   2.833  13.389  11.208 -0.4247 -0.0745  0.1721
19433W        W36280  17.236   4.236   3.078 -0.0449  0.0206  0.2215
19434W        W36281  12.145  13.597   2.321  0.2674 -0.3521  0.2094
19435W        W36282   3.861  10.119   3.409  0.1108 -0.1173 -0.1661
19436W        W36283   1.857  16.726   0.391 -0.0323 -0.2272  0.1029
19437W        W36284  10.931   3.734  14.379 -0.2853 -0.2292  0.0626
19438W        W36285  17.279  16.965   3.989  0.1552  0.0880  0.1998
19439W        W36286  18.339   9.638   1.361  0.0741  0.0079 -0.0326
19440W        W36287   9.965   8.179  14.900 -0.1626  0.2025 -0.2089
19441W        W36288   1.653   3.316  10.548  0.1524 -0.1727 -0.1180
19442W        W36289   5.013  16.346   4.655  0.0379  0.0757 -0.0459
19443W        W36290  12.544   3.142   4.600  0.1484 -0.0951  0.1824
19444W        W36291  16.616   9.498  14.734 -0.1624 -0.1537 -0.0930
19445W        W36292  16.902   5.743   4.202  0.0421 -0.3508 -0.2754
19446W        W36293   8.759   6.824   1.395 -0.1570  0.0311 -0.3198
19447W        W36294   9.561   1.379   5.320 -0.2144  0.0503 -0.2378
19448W        W36295   1.282  18.699   1.445 -0.0589 -0.0994 -0.0384
19449W        W36296  11.987   7.086  13.561 -0.0021  0.0663  0.0614
19450W        W36297   0.784  13.266   0.467 -0.1318 -0.2031  0.3602
19451W        W36298  16.764  16.406  14.088 -0.1982  0.3001 -0.4156
19452W        W36299   1.322  17.593   4.960  0.0610  0.1159  0.2147
19453W        W36300  11.221   5.383   0.859  0.0217 -0.2965 -0.1346
19454W        W36301   4.772  12.572  11.611  0.1359  0.1306  0.1132
19455W        W36302  15.111  10.584  13.162 -0.2194  0.1567  0.1500
19456W        W36303  16.490   7.216   4.282  0.0375 -0.0387  0.0206
19457W        W36304   5.429  10.994  10.869 -0.1283  0.2592  0.2157
19458W        W36305   2.039   3.396   2.178  0.1215 -0.1881  0.0736
19459W        W36306   7.861   8.707   1.392 -0.0711 -0.3553 -0.2489
19460W        W36307  15.665   7.928   3.509  0.1764  0.3513  0.0396
19461W        W36308  12.331  13.659  13.979  0.1576 -0.0172  0.3892
19462W        W36309  10.214   8.994   0.009 -0.2842  0.2464 -0.0556
19463W        W36310  15.739   8.060   0.083  0.0251  0.0806 -0.0114
19464W        W36311  10.511   3.019   4.559 -0.1402 -0.0463 -0.0670
19465W        W36312  15.674   1.026   1.386  0.1859 -0.0675  0.3174
19466W        W36313   6.796  14.893   0.759  0.1839  0.0216  0.1876
19467W        W36314  10.973   6.020   1.397 -0.0505 -0.0954  0.1415
19468W        W36315   4.298  14.917  11.926  0.2830 -0.3339 -0.1368
19469W        W36316  10.409  12.210   2.489  0.2048  0.0386 -0.2661
19470W        W36317  17.095  17.743   0.826  0.0581 -0.0451 -0.0749
19471W        W36318   1.253  16.881   4.314  0.2045  0.1665  0.2041
19472W        W36319  13.066  15.878  11.221  0.1385 -0.5017  0.0974
19473W        W36320   2.071  10.740   4.102  0.1301 -0.0170  0.0757
19474W        W36321   3.870  10.330  13.558 -0.0802  0.0695 -0.4277
19475W        W36322  17.066   4.225   5.442  0.0095  0.2070  0.3186
19476W        W36323  12.740  15.824   5.079  0.0460 -0.1256 -0.1324
19477W        W36324  13.777  14.775  13.108 -0.1328 -0.3315 -0.0782
19478W        W36325  11.411  13.179  12.725 -0.1054  0.0891  0.1562
19479W        W36326  14.641  11.506  11.313 -0.0724  0.0875 -0.0908
19480W        W36327  18.046  12.064   1.667  0.0758  0.0165 -0.4212
19481W        W36328   2.474   7.467  13.872  0.1413 -0.2305  0.1718
19482W        W36329   2.991  12.711   3.196 -0.0937 -0.1373 -0.0482
19483W        W36330  11.174  13.389   2.388  0.4844  0.2579 -0.1925
19484W        W36331   2.716  14.091   3.929  0.2160 -0.2209 -0.2906
19485W        W36332  10.008   3.073  13.196 -0.0206 -0.1439 -0.2501
19486W        W36333   4.095   8.916  12.643  0.1773  0.2049  0.2844
19487W        W36334  19.228  17.368  10.819 -0.3514 -0.1095 -0.0095
19488W        W36335   5.520  18.265   4.657 -0.1462 -0.2780 -0.2219
19489W        W36336   8.524  13.457  14.210  0.1988  0.2942  0.2841
19490W        W36337   8.823   8.918   0.133 -0.1680 -0.3767 -0.1457
19491W        W36338  18.734   9.566   0.462  0.1537 -0.1275  0.0031
19492W        W36339   9.576   3.514   4.663  0.1745 -0.0085 -0.0975
19493W        W36340  13.367  15.803   2.568  0.2633  0.0374  0.0296
19494W        W36341   5.876  15.443  13.556  0.0113 -0.3314  0.0152
19495W        W36342   2.775  16.449   3.035  0.1666  0.1763  0.0787
19496W        W36343  18.614  19.181   2.276  0.0684 -0.2073  0.0162
19497W        W36344  17.276   3.767   0.814 -0.2627 -0.0487 -0.3342
19498W        W36345   5.047  17.037  11.653 -0.1464 -0.0313  0.0383
19499W        W36346  16.008  12.277  12.394 -0.1316 -0.0383 -0.0739
19500W        W36347  14.131   0.863  13.018  0.2228 -0.0380 -0.2555
19501W        W36348   4.924  13.226  14.057 -0.0512 -0.0195  0.1782
19502W        W36349  17.751   7.907   3.632  0.0535  0.1034 -0.2274
19503W        W36350  17.594  13.994  11.803 -0.2174 -0.0308 -0.2283
19504W        W36351  15.387  16.018  13.307 -0.0704  0.1740 -0.1841
19505W        W36352  12.777   4.893   0.571  0.0161  0.0388 -0.4465
19506W        W36353  12.247   5.331  10.940 -0.0608 -0.2601  0.0264
19507W        W36354   2.276   8.072  13.235  0.0826 -0.1787  0.1026
19508W        W36355  10.289   2.226  12.708 -0.1528  0.0573  0.0499
19509W        W36356  18.154   5.538   4.025 -0.2355  0.1424  0.1797
19510W        W36357   1.582  11.737   1.603  0.2152  0.1969  0.2653
19511W        W36358   3.252   9.771   0.132 -0.1792  0.5938 -0.0672
19512W        W36359   0.814   8.640  13.136 -0.0012  0.0209 -0.1631
19513W        W36360  19.045   2.416  12.991 -0.1772  0.0757 -0.1475
19514W        W36361   2.223  15.943  11.923 -0.0243  0.0643 -0.1066
19515W        W36362   9.650  19.012  12.406 -0.1525  0.0002 -0.3084
19516W        W36363  12.698  17.569   4.787  0.0542  0.1077 -0.0911
19517W        W36364  12.402   3.321   1.560  0.1960 -0.0064 -0.0432
19518W        W36365   5.125   8.136   0.644  0.0126 -0.0326 -0.2648
19519W        W36366   2.406   8.730   2.460  0.2406  0.0733 -0.3019
19520W        W36367   8.380   4.640   1.168 -0.1611 -0.1729  0.0169
19521W        W36368  16.787  15.033   4.564  0.1945  0.2249  0.0799
19522W        W36369   8.945  17.470   1.888  0.0523 -0.2048 -0.0996
19523W        W36370  10.681   3.879  13.768  0.1914  0.2127 -0.0910
19524W        W36371  17.373   0.028   4.778 -0.0849 -0.0768  0.0326
19525W        W36372   6.484  15.695  13.012  0.0815  0.0527 -0.2490
19526W        W36373  19.138  10.265   9.430 -0.0527 -0.2739  0.2793
19527W        W36374   9.538   2.508   0.046  0.1315 -0.0791 -0.0404
19528W        W36375   7.292   7.048  12.658 -0.2827  0.1652 -0.0183
19529W        W36376   1.987  16.308   0.032 -0.2403  0.1302 -0.1034
19530W        W36377   1.893  14.440   3.962  0.1581  0.0566 -0.0095
19531W        W36378   4.339  12.764   5.228  0.0977  0.2650 -0.2384
19532W        W36379   3.070   1.655  13.911  0.2198  0.0656  0.0858
19533W        W36380  16.867   1.791   1.804  0.1159  0.1864 -0.1793
19534W        W36381  15.948   8.434  11.803  0.2769 -0.0977 -0.2083
19535W        W36382  11.238   0.910   2.636  0.1190  0.3494 -0.1324
19536W        W36383   5.844  19.246   3.802  0.2989  0.1586  0.3264
19537W        W36384  18.890  13.982   4.284  0.1330  0.2272 -0.0324
19538W        W36385   6.941   5.019   2.840  0.0075  0.0891 -0.2170
19539W        W36386  18.465  15.350  10.587 -0.0529 -0.2878 -0.1327
19540W        W36387  14.703  18.286  11.815  0.1493 -0.4176  0.1873
19541W        W36388  15.029   3.675  11.319 -0.1214  0.0670 -0.0044
19542W        W36389   7.525  11.778   5.283  0.0847 -0.0769  0.0660
19543W        W36390   1.154   9.397   0.095 -0.0529 -0.0360  0.1747
19544W        W36391  12.057  13.531   5.073  0.2192 -0.2548 -0.1469
19545W        W36392   9.034   6.214   0.541 -0.1998 -0.0064  0.1011
19546W        W36393   4.211   6.033  13.604  0.0419  0.0880  0.1178
19547W        W36394   5.323  13.214   2.628 -0.2206 -0.4963 -0.2381
19548W        W36395   9.132   3.637   4.917 -0.2120  0.0493  0.0828
19549W        W36396  15.956  18.090   3.411  0.2101  0.2264  0.0021
19550W        W36397   3.381   0.953  13.824  0.0151 -0.0359  0.1268
19551W        W36398   9.460   3.350   0.935  0.2736  0.0572  0.2741
19552W        W36399  17.987  11.247   0.446 -0.1229  0.2481  0.1707
19553W        W36400   1.532   0.712  13.278 -0.0546 -0.0471  0.1107
19554W        W36401   5.263  18.775  11.844 -0.0884 -0.1595  0.0521
19555W        W36402  17.463   5.463   1.729  0.0613 -0.0610  0.6019
19556W        W36403   3.440  13.863   1.377 -0.0203  0.0318  0.1312
19557W        W36404   9.368   0.373   3.457  0.0443 -0.3351  0.0295
19558W        W36405   7.219  15.467  14.463 -0.0609 -0.2165 -0.0977
19559W        W36406   2.974  18.027   1.359  0.0192  0.3003  0.1078
19560W        W36407  15.310   6.132  12.615 -0.3162 -0.1265  0.0763
19561W        W36408  15.235   6.750  12.582  0.1888 -0.0111 -0.2041
19562W        W36409  10.691  13.052  14.930  0.2067  0.2581  0.0011
19563W        W36410   6.446  12.760  14.199  0.2882  0.0014 -0.2199
19564W        W36411   6.856  17.974   0.501 -0.1417 -0.0817 -0.2064
19565W        W36412  18.857   5.324  12.488 -0.3037  0.1002 -0.2954
19566W        W36413  18.856  10.141  14.073 -0.0564 -0.1354  0.0753
19567W        W36414   7.971  15.551  11.981 -0.2185  0.2233 -0.1007
19568W        W36415  11.528   4.249   4.262 -0.0690 -0.0856 -0.2458
19569W        W36416   0.937   9.096   4.251  0.0215  0.0815 -0.1417
19570W        W36417   4.676   8.780   0.979  0.1542  0.0368  0.0527
19571W        W36418  17.731   5.825  11.425 -0.3847  0.0178 -0.1534
19572W        W36419  10.697  11.340   2.261 -0.3134 -0.1147 -0.1049
19573W        W36420   3.263  13.120  13.355  0.1516  0.0395 -0.0925
19574W        W36421   1.127  17.595  12.255 -0.0245 -0.1218 -0.0619
19575W        W36422  15.907  16.949  10.546  0.0319  0.1350  0.2326
19576W        W36423   1.791  18.968  11.892 -0.1113  0.0447  0.1382
19577W        W36424  12.516   9.738  12.607  0.2107 -0.2010  0.1113
19578W        W36425   7.510   5.115  11.460  0.1664  0.2303 -0.2483
19579W        W36426  11.874   8.679  13.481  0.1442 -0.1127 -0.1378
19580W        W36427   4.558   3.428   1.540  0.1359 -0.0786  0.0214
19581W        W36428   5.943  12.319   0.147  0.2101  0.0020  0.1175
19582W        W36429  10.732   9.117  13.731  0.0945  0.0428 -0.2349
19583W        W36430  17.904   9.795   1.177 -0.1506  0.4249 -0.2581
19584W        W36431   3.246   5.732   2.823 -0.0169 -0.2798 -0.0834
19585W        W36432  11.112   9.867  12.405  0.0932  0.0052  0.0560
19586W        W36433   2.894   4.832   2.670  0.1131 -0.0305  0.2909
19587W        W36434  15.354  17.847  11.680 -0.0156  0.1072 -0.0954
19588W        W36435  15.604  11.607  13.745 -0.2379  0.0796  0.1788
19589W        W36436  17.735   2.070   4.613  0.1219 -0.2284  0.1395
19590W        W36437  16.952  10.622   2.428 -0.2982  0.1160  0.1558
19591W        W36438  10.129   3.966   1.738  0.1302  0.3267  0.2395
19592W        W36439  11.488  10.600   2.479  0.0545 -0.1661  0.0470
19593W        W36440  10.557  18.943  14.331 -0.4825  0.0012  0.3604
19594W        W36441  14.450  17.259  13.726 -0.1476 -0.4190 -0.1099
19595W        W36442   4.472   7.118  11.676 -0.2377  0.3384 -0.3363
19596W        W36443  13.957   1.443   1.120 -0.0651 -0.1328 -0.2434
19597W        W36444   3.930  10.493   3.781 -0.0706  0.0581 -0.0238
19598W        W36445  15.983   6.949  11.627 -0.0151  0.0472  0.3138
19599W        W36446   6.324  17.769   1.837 -0.3137 -0.2342  0.0369
19600W        W36447   4.985  13.701  12.140 -0.3085 -0.0257  0.0059
19601W        W36448  18.871  11.937   1.733  0.0273  0.0424  0.1183
19602W        W36449   6.820   5.489  13.935  0.2640  0.0249  0.1048
19603W        W36450   2.501   4.786   0.153  0.0063  0.0290  0.0234
19604W        W36451  16.322  13.543  13.379 -0.1834 -0.0304 -0.1893
19605W        W36452   7.428   7.634  14.732  0.0943 -0.2184  0.1724
19606W        W36453   0.337  14.344  14.721  0.4067 -0.0055  0.0118
19607W        W36454   8.126   1.515  10.559  0.0500 -0.1623  0.0604
19608W        W36455   6.062   3.114  13.841 -0.3568  0.5578 -0.0323
19609W        W36456   5.293  17.787  12.285 -0.1834 -0.4929  0.1590
19610W        W36457  11.821  17.801   3.669  0.2039  0.1562 -0.2916
19611W        W36458   4.140   1.929  13.732 -0.0696 -0.1984 -0.2162
19612W        W36459   0.256   9.384   3.452  0.1444 -0.1984  0.0785
19613W        W36460   0.080  16.212  12.768 -0.2143 -0.0060  0.0651
19614W        W36461   0.037  15.475   4.363  0.0933 -0.0473  0.1094
19615W        W36462   4.865  12.042   0.378  0.3613 -0.0579  0.2391
19616W        W36463   7.700   0.047   3.996  0.4442 -0.0368  0.2559
19617W        W36464   8.475  12.308  14.457  0.0150  0.1968 -0.1791
19618W        W36465   2.628  16.649   4.271  0.1882 -0.0869 -0.0269
19619W        W36466   0.441   5.426   4.670  0.1026  0.0389  0.0637
19620W        W36467   8.485   1.948   2.604  0.1047 -0.3125 -0.0948
19621W        W36468  12.662   6.912   1.475 -0.2139  0.2249  0.1984
19622W        W36469  18.835  17.840  14.784  0.2805 -0.2152  0.2108
19623W        W36470  13.672  18.385  12.101  0.0553 -0.1686 -0.3191
19624W        W36471   9.643  16.749  11.811 -0.0505 -0.0616 -0.3183
19625W        W36472   0.893   1.128   4.578 -0.1075  0.0049 -0.2595
19626W        W36473  16.379  11.835   4.276 -0.0734 -0.0432 -0.0477
19627W        W36474   7.679  17.648  11.500 -0.2017  0.2211 -0.2328
19628W        W36475   7.310  16.966   1.912 -0.1227 -0.3862 -0.3331
19629W        W36476   5.642  16.657  13.625  0.0870  0.2284 -0.4534
19630W        W36477  12.583  17.333   4.282 -0.0240  0.3224  0.1912
19631W        W36478  16.197   6.577   0.378  0.1224 -0.3375  0.2040
19632W        W36479   9.512   8.696   2.000 -0.2002 -0.4774  0.1055
19633W        W36480   6.545   0.105   4.805 -0.3512  0.1460 -0.3420
19634W        W36481   4.738   2.105   3.230 -0.1000 -0.1933 -0.0322
19635W        W36482  16.210   0.727  13.780  0.3426  0.0047  0.1031
19636W        W36483   8.642   1.465  14.878  0.1313  0.0486  0.1548
19637W        W36484   5.670  12.985   0.862  0.2754  0.3375  0.0130
19638W        W36485  13.099   9.257   0.607 -0.0600 -0.3357 -0.1805
19639W        W36486   4.037  14.489   4.436  0.0786  0.1527  0.0457
19640W        W36487   6.490   1.105   2.114 -0.1272  0.0302 -0.2534
19641W        W36488  14.051   6.961  13.005  0.3256  0.2534 -0.1429
19642W        W36489  18.694   3.919   0.122 -0.0537 -0.0071 -0.1557
19643W        W36490  11.548  19.132   2.894 -0.0012 -0.2005  0.0921
19644W        W36491  19.071  10.095   3.180  0.1490 -0.1245  0.0871
19645W        W36492  13.872   2.354  11.458  0.0610  0.2112  0.0091
19646W        W36493   0.572   7.904   1.188 -0.1451  0.0313  0.2456
19647W        W36494   7.423   2.413   2.441  0.1370  0.3844 -0.3628
19648W        W36495   2.362  14.999   2.012  0.0708  0.2233 -0.1961
19649W        W36496  10.922   8.866  13.264 -0.2618  0.2253  0.1133
19650W        W36497   9.172   3.143   3.463 -0.3222  0.0465  0.2796
19651W        W36498  15.666  10.179   0.841 -0.1726  0.3694 -0.0338
19652W        W36499  19.147   0.285   3.722 -0.2520 -0.0520 -0.0220
19653W        W36500  13.984   4.196   1.859  0.2014 -0.2946  0.2198
19654W        W36501  10.448   3.290   1.892 -0.2641  0.2989  0.0037
19655W        W36502  12.877   6.951   2.714  0.1041 -0.5145  0.0504
19656W        W36503   0.757   0.114  11.018 -0.3280  0.0724  0.1056
19657W        W36504  17.015  10.082  12.039 -0.1031 -0.0744  0.0605
19658W        W36505   8.651   6.098  12.647  0.0592  0.3625  0.1894
19659W        W36506   5.564   5.542   5.010  0.0002 -0.0057 -0.1598
19660W        W36507   3.781   2.687  12.663  0.0561 -0.2089 -0.2506
19661W        W36508  17.367  14.108   5.365 -0.5065 -0.1108 -0.0634
19662W        W36509  13.263  13.636  12.442 -0.0442  0.0538  0.0575
19663W        W36510  17.005  13.926   3.934 -0.1403  0.0437  0.2410
19664W        W36511  15.279   5.965  12.052  0.1619  0.2195 -0.2455
19665W        W36512  10.621   7.030   0.175 -0.0300  0.1674 -0.1518
19666W        W36513  14.218   4.913   3.092 -0.2561 -0.1072  0.2171
19667W        W36514  18.077  10.315  14.677  0.2146 -0.0966 -0.2404
19668W        W36515  18.784  18.398  12.159 -0.0268  0.0232 -0.0185
19669W        W36516  16.082  15.009  10.435 -0.0558  0.5036  0.1420
19670W        W36517  13.210  17.312   0.418 -0.1477 -0.1360  0.1936
19671W        W36518   7.075   9.409  12.225 -0.1847  0.2120 -0.1348
19672W        W36519   8.718   8.568   2.848 -0.0185 -0.1016 -0.0898
19673W        W36520   6.300   7.282   3.583 -0.0133  0.0469  0.1136
19674W        W36521  18.992  16.182   5.191 -0.0896  0.0730 -0.1072
19675W        W36522   4.210   2.844   3.180 -0.0428  0.4496  0.3769
19676W        W36523   0.093  14.353  13.665 -0.2396  0.0629 -0.0709
19677W        W36524  17.053  11.084   4.132  0.3152  0.0005 -0.0378
19678W        W36525   5.202   1.167   3.533  0.2474 -0.0917 -0.0736
19679W        W36526   8.714  16.594  12.916  0.0820 -0.2224  0.0254
19680W        W36527  12.693  19.234   4.296  0.3565 -0.2149  0.0328
19681W        W36528   8.528   1.271   4.396  0.2174 -0.1619  0.0350
19682W        W36529  15.026   5.285  14.457  0.2651 -0.2176  0.0440
19683W        W36530   1.996   0.870   0.771 -0.2842 -0.3309  0.1906
19684W        W36531  18.140  10.538   1.854 -0.0065  0.1088  0.0556
19685W        W36532   6.541  14.397   0.035 -0.2823 -0.0460 -0.2801
19686W        W36533   6.572   9.808   3.750 -0.5254  0.0944  0.0060
19687W        W36534   1.978  12.260  13.487  0.0882 -0.0954 -0.2073
19688W        W36535   7.415   8.293   3.657  0.0746 -0.0282 -0.0292
19689W        W36536   0.756  15.964  14.554 -0.0087 -0.0293 -0.1172
19690W        W36537  11.793   9.160  12.098 -0.0453 -0.4008 -0.0575
19691W        W36538  12.891  11.569   1.846  0.4413 -0.0528  0.4512
19692W        W36539  16.999   8.887   0.098 -0.0737 -0.0665 -0.0694
19693W        W36540  18.957   7.413   2.670 -0.0898  0.1504  0.1984
19694W        W36541   0.411  16.789  12.575  0.1299 -0.0463 -0.0151
19695W        W36542   4.552   0.980   0.101 -0.1260  0.2127  0.3120
19696W        W36543  10.112   0.666   0.561 -0.2420  0.0821  0.0033
19697W        W36544  13.502  12.795   0.896 -0.0156 -0.2389  0.0774
19698W        W36545   0.696  11.407   1.621 -0.1545  0.1384 -0.0118
19699W        W36546  18.674  16.669   3.020 -0.0333 -0.1472 -0.1281
19700W        W36547  14.522   6.097  13.207 -0.4324  0.2162  0.0472
19701W        W36548  12.890   0.416   1.916  0.4091  0.0402 -0.3052
19702W        W36549   6.634   4.890   4.469  0.1655 -0.4143  0.1648
19703W        W36550   6.252  16.674  10.171 -0.3169  0.0599 -0.1554
19704W        W36551   9.534  15.314   3.722  0.2001  0.0744  0.2913
19705W        W36552   3.432  13.764   4.072 -0.1338 -0.0743  0.0230
19706W        W36553   1.535  10.514   0.171  0.0905 -0.3718  0.0240
19707W        W36554  12.859  16.099  11.603  0.0902  0.0008 -0.2381
19708W        W36555   8.701   8.639  13.872 -0.2594  0.0492 -0.0697
19709W        W36556   7.986  15.838  13.819  0.0228  0.2450 -0.0951
19710W        W36557   3.478  14.311  13.147  0.0044  0.0969 -0.0570
19711W        W36558  11.999  14.827   4.584 -0.1307 -0.1596 -0.0173
19712W        W36559   0.984  12.061  10.835 -0.1083 -0.0566  0.0274
19713W        W36560  17.953   4.627   3.653 -0.0782 -0.0747 -0.0099
19714W        W36561  18.496  16.110   1.428 -0.1195  0.1157  0.0870
19715W        W36562   4.754   5.885  14.053 -0.2892 -0.1380 -0.1983
19716W        W36563   6.549  10.957  10.842 -0.1768 -0.0526  0.0022
19717W        W36564   7.590   8.364  10.886  0.2188 -0.0160  0.1993
19718W        W36565   5.007   9.547   1.548  0.3933  0.2368  0.2047
19719W        W36566  14.201  18.337  12.199  0.1449 -0.0357  0.2788
19720W        W36567   7.560   8.971  14.688  0.0639 -0.1024 -0.1431
19721W        W36568   8.423   9.934   1.108 -0.3628  0.2717  0.0815
19722W        W36569  16.125  17.740  14.561  0.2464 -0.0711 -0.0738
19723W        W36570  18.122   3.995  14.230 -0.2717 -0.1440  0.3707
19724W        W36571  10.166   5.029  12.433  0.0831 -0.0321 -0.0825
19725W        W36572  15.025  18.853   3.916 -0.0256  0.1794 -0.0638
19726W        W36573   7.865  18.256   2.828 -0.0901  0.4146 -0.1683
19727W        W36574   9.737  12.760  12.471  0.1072 -0.1729 -0.1905
19728W        W36575   5.982  13.957   2.807  0.0156  0.0861  0.1614
19729W        W36576   9.353   0.360   5.133  0.1110  0.0061  0.2365
19730W        W36577   1.363  15.903   2.708 -0.0101  0.0264  0.2601
19731W        W36578   1.333   3.719  14.619 -0.0441 -0.0396 -0.2174
19732W        W36579  18.392   9.735   0.895 -0.1364  0.3723  0.1411
19733W        W36580  18.322  17.768   1.945  0.1985  0.3007 -0.1509
19734W        W36581  14.412  16.436   3.373  0.0831 -0.0184 -0.0808
19735W        W36582  16.819  16.355   1.306 -0.0218 -0.0635  0.0279
19736W        W36583   4.473   3.098   1.924 -0.0576  0.0096  0.1087
19737W        W36584  12.063   6.888  12.974 -0.0549  0.4149  0.0279
19738W        W36585  12.687   4.782   2.300 -0.2917 -0.1774  0.0408
19739W        W36586   6.502   1.748  14.576  0.3849 -0.2928  0.0488
19740W        W36587   3.613   3.940   2.400 -0.0088  0.0468 -0.0387
19741W        W36588   3.451   6.066  12.708 -0.0243  0.1796 -0.1986
19742W        W36589  11.621  11.860  11.022  0.3312  0.1174  0.1399
19743W        W36590   4.084   1.593  11.165  0.2048 -0.1336  0.3845
19744W        W36591   9.331  13.568  10.496  0.3642 -0.0986 -0.0275
19745W        W36592  11.761   3.892  10.935  0.1019  0.1445  0.1302
19746W        W36593   3.638   3.089  12.014  0.1956  0.0543  0.0206
19747W        W36594  14.442   5.794  14.443 -0.2800 -0.0720  0.3747
19748W        W36595  10.407   2.097  14.909 -0.0660 -0.3295  0.2287
19749W        W36596  16.745   8.378  13.072 -0.0570  0.2082  0.1117
19750W        W36597  13.227  16.759   4.471  0.1910  0.1296  0.1883
19751W        W36598   6.388  11.037   3.088 -0.0279  0.2455 -0.0951
19752W        W36599   8.383   2.345  13.818  0.1618  0.0238  0.0180
19753W        W36600  12.063   6.940   2.684  0.1068 -0.1605  0.1819
19754W        W36601  12.951  13.983  12.282 -0.2649  0.0404  0.0075
19755W        W36602   4.590  16.390  14.758  0.1029  0.2715  0.0242
19756W        W36603  19.129   5.825  10.739 -0.0563  0.1010  0.0038
19757W        W36604   6.366  12.380  14.829 -0.0149 -0.0640  0.6356
19758W        W36605   0.785  13.093  10.265  0.1106 -0.1630 -0.0164
19759W        W36606   8.048   2.944   1.785 -0.1434 -0.0929  0.2471
19760W        W36607  13.377  12.386   4.450  0.2842  0.0431  0.1053
19761W        W36608  13.421   7.320  12.320  0.2104  0.1294 -0.2025
19762W        W36609  10.821   4.860   3.491 -0.0342 -0.4618  0.1130
19763W        W36610   1.471  18.935  14.029 -0.2274 -0.0068 -0.1039
19764W        W36611  13.448   3.396   1.439  0.1102 -0.0760  0.2361
19765W        W36612  13.561  10.621  12.658  0.2171  0.2389  0.2409
19766W        W36613   8.653  16.957   4.451  0.4510  0.2085 -0.0356
19767W        W36614  15.651  17.462  12.318 -0.2704  0.0467 -0.0331
19768W        W36615   1.704   7.935  14.059  0.0667 -0.0845  0.2578
19769W        W36616  17.599   5.675   1.215  0.3662 -0.1634  0.0289
19770W        W36617   0.864   0.023   4.946  0.0655  0.3110  0.0998
19771W        W36618   5.353  18.435   0.699 -0.3848  0.2459 -0.1986
19772W        W36619   9.783  13.034  11.526  0.1431 -0.1486  0.0723
19773W        W36620   3.610   4.900   1.814 -0.1614  0.1466  0.1567
19774W        W36621  16.893   0.647   2.546 -0.0187  0.0038  0.0203
19775W        W36622   7.691   6.957   3.713 -0.2813 -0.4483  0.0491
19776W        W36623  18.748   1.281   0.706 -0.1615  0.0577  0.2851
19777W        W36624   6.720   0.057   3.703  0.0656 -0.0553  0.0499
19778W        W36625   0.511   8.893  14.101  0.0269 -0.1387  0.1587
19779W        W36626  17.896   6.227   2.018 -0.0066 -0.1508  0.4040
19780W        W36627   6.159  18.939  12.096 -0.1110 -0.0102  0.0559
19781W        W36628  17.369  18.391   3.128 -0.1729 -0.0080 -0.1305
19782W        W36629  17.837   2.250   3.991  0.3559 -0.2577 -0.3623
19783W        W36630  17.296  18.665   0.505  0.1966 -0.0831  0.1375
19784W        W36631   1.629   7.246   4.399 -0.1312  0.1454 -0.0972
19785W        W36632   5.460   8.883  12.932  0.0813 -0.1518 -0.0464
19786W        W36633  16.603  18.093  13.439 -0.0749 -0.0318 -0.0146
19787W        W36634  16.777  15.768  13.375  0.2493 -0.1251  0.0904
19788W        W36635   2.916   9.511   3.179 -0.1931 -0.0990  0.2386
19789W        W36636   1.497   2.658  13.976  0.0108  0.1825  0.1015
19790W        W36637  12.585  16.583   0.843 -0.3065  0.5144  0.1049
19791W        W36638   7.985   1.493   3.192  0.1666  0.3951 -0.1287
19792W        W36639  10.895  10.080   0.511  0.1021  0.0975 -0.1173
19793W        W36640  18.790  17.341   2.539  0.1347  0.0164 -0.2240
19794W        W36641   2.128  17.650   2.206 -0.1417  0.0125 -0.1509
19795W        W36642   7.275   9.533   0.496 -0.1208 -0.0357  0.1108
19796W        W36643   4.766   5.634  12.487 -0.0576 -0.0503  0.3282
19797W        W36644  15.712   4.256   1.454 -0.0588 -0.0863  0.1475
19798W        W36645   1.438   3.332  11.609 -0.3557  0.1184  0.1176
19799W        W36646   8.283  14.369   1.963  0.4218 -0.2688  0.0460
19800W        W36647   6.569   8.950  12.988  0.2897  0.3281 -0.1722
19801W        W36648  13.668   6.334  11.000 -0.0950 -0.0070  0.0532
19802W        W36649   2.363   2.494  15.009 -0.3223 -0.1026  0.0988
19803W        W36650   5.678   8.141  12.130  0.1311 -0.0450 -0.0729
19804W        W36651  13.677   6.698   1.442 -0.1151 -0.0995  0.1797
19805W        W36652  18.658   7.858   3.766 -0.0454  0.0689  0.0552
19806W        W36653  13.108  17.600  12.444 -0.2192 -0.3913  0.1622
19807W        W36654   9.457  12.486   1.741  0.0497 -0.0198  0.2585
19808W        W36655  15.805  13.894   4.357  0.2694  0.0252 -0.4725
19809W        W36656  17.007  13.535   0.772  0.1450  0.0517  0.1804
19810W        W36657  19.186  13.695   2.532 -0.0227  0.6267 -0.2182
19811W        W36658   1.453  15.120   4.471  0.1875  0.0084 -0.1178
19812W        W36659  10.076   5.345  10.212  0.1638 -0.1116  0.0301
19813W        W36660   8.068  16.779   1.062  0.1143  0.2507 -0.1241
19814W        W36661   7.827  17.768  12.472 -0.1520 -0.0412  0.2094
19815W        W36662  10.544   8.287   4.572  0.2169 -0.2558 -0.0603
19816W        W36663   1.317   5.786  11.309 -0.2312  0.0006 -0.3408
19817W        W36664  18.151   1.133   4.373 -0.0158 -0.2731  0.8068
19818W        W36665  14.338  10.111   3.038  0.1189  0.0941 -0.1789
19819W        W36666   9.412  14.590  10.715  0.1104  0.1300 -0.0049
19820W        W36667   1.057  15.968   0.368  0.2064 -0.0027  0.0663
19821W        W36668  16.089  10.025   0.567 -0.0441  0.2808 -0.0033
19822W        W36669   4.049  13.275  12.862  0.0351 -0.1768  0.1705
19823W        W36670  12.183   0.941   1.490  0.1976  0.1110  0.0769
19824W        W36671   1.487   5.308   0.222 -0.0139 -0.0305  0.1700
19825W        W36672   0.843   5.902  13.999 -0.1026  0.0151 -0.2500
19826W        W36673   4.742   4.412   2.640 -0.2818 -0.2199 -0.1481
19827W        W36674   7.992   0.366   4.335 -0.0073 -0.2293 -0.1463
19828W        W36675  18.569  10.877  12.197 -0.1824  0.3964  0.0419
19829W        W36676  13.524  16.187   1.318  0.1449  0.1498 -0.0314
19830W        W36677   3.900   6.922   4.775 -0.1750 -0.2235  0.1462
19831W        W36678   8.300   4.138  11.111 -0.3564 -0.0416  0.0415
19832W        W36679   7.373  12.043  11.925 -0.0261  0.2334 -0.0282
19833W        W36680   7.408   9.113   2.504 -0.0271 -0.0847  0.0498
19834W        W36681  17.502  14.001   0.569  0.0506  0.0802  0.1477
19835W        W36682  19.035  15.802  12.653 -0.0859 -0.0625 -0.2948
19836W        W36683   9.894   6.488  10.154 -0.1243 -0.1098 -0.0418
19837W        W36684  16.102   8.298  13.121 -0.0394 -0.1412  0.0468
19838W        W36685  18.692  14.271   4.763 -0.2523  0.0993 -0.1489
19839W        W36686  18.845   9.609   2.230 -0.3127  0.1842 -0.2436
19840W        W36687  16.790  15.397   1.572  0.1123 -0.2666 -0.2592
19841W        W36688  10.324  14.739   2.062 -0.0022  0.0986  0.2001
19842W        W36689   1.934   9.208  11.377 -0.1758  0.0529  0.1277
19843W        W36690   7.903  12.428  11.681  0.2386 -0.0844 -0.0399
19844W        W36691   8.984  16.130  14.498  0.2926 -0.1709 -0.1138
19845W        W36692  19.167   3.904   0.354 -0.3492  0.0139 -0.0639
19846W        W36693  16.148   7.716   3.466 -0.0650 -0.0956 -0.0863
19847W        W36694   3.846  12.657   2.736 -0.2098 -0.5194  0.0810
19848W        W36695   5.916  18.318   2.548  0.0209 -0.1837 -0.2626
19849W        W36696  16.192   1.059  12.955  0.1971 -0.1635 -0.1046
19850W        W36697   1.601   0.831   2.742 -0.0020  0.0500 -0.0119
19851W        W36698  18.508  18.034   2.882  0.3432 -0.0309  0.1921
19852W        W36699   4.361  14.617   2.190  0.0841  0.1470  0.2910
19853W        W36700  16.409  15.682  13.074  0.2041 -0.1697  0.0788
19854W        W36701  16.863  13.189   9.592 -0.0724  0.3494 -0.0257
19855W        W36702  18.613  17.744  11.947  0.0574 -0.1442  0.3907
19856W        W36703  18.340   1.658   3.781 -0.2055 -0.2579 -0.0567
19857W        W36704   7.196  11.822   0.550  0.0585 -0.1583 -0.1569
19858W        W36705   0.184  10.859   9.996 -0.4105 -0.3527  0.4965
19859W        W36706  15.633   2.157  11.615  0.0740 -0.0848  0.2759
19860W        W36707  12.995  17.563   5.289 -0.2281  0.2380  0.1719
19861W        W36708  11.221  14.358   4.605  0.0183  0.0054 -0.0029
19862W        W36709  14.329   1.813   3.858  0.2444  0.1171  0.0304
19863W        W36710   4.924   2.309   3.679 -0.1077 -0.4595  0.3940
19864W        W36711  17.997  16.225  11.336  0.0992 -0.1877  0.1153
19865W        W36712   1.798   0.939  12.803  0.0664  0.0003  0.0238
19866W        W36713   4.906   4.230  12.857  0.0153  0.1601  0.1301
19867W        W36714  19.252  16.063   3.100  0.3745  0.0490  0.0403
19868W        W36715   7.275  13.917   3.515 -0.2353  0.1363  0.2519
19869W        W36716   6.733   4.025  11.030  0.2742  0.0702 -0.2137
19870W        W36717  17.145   5.539   1.327  0.0193  0.2284 -0.0233
19871W        W36718  17.544  13.142  13.264  0.0599 -0.0436  0.0929
19872W        W36719  17.819   3.156   1.962  0.1401 -0.2468 -0.0640
19873W        W36720   4.121  17.955   3.822 -0.2718  0.1081 -0.1950
19874W        W36721  18.129   2.331  11.112  0.1896 -0.1587 -0.2767
19875W        W36722  17.920  13.028  13.963  0.1310  0.2755 -0.0146
19876W        W36723   6.109  10.235   1.598 -0.4418 -0.0027 -0.0368
19877W        W36724   2.412   6.804  14.595  0.0135 -0.0019 -0.0970
19878W        W36725   8.840  11.133  12.628  0.0810 -0.0095  0.2747
19879W        W36726  13.159   1.529   2.833 -0.2627  0.2867  0.1068
19880W        W36727   3.920  11.314  13.465 -0.1440  0.0467  0.2359
19881W        W36728   4.894   8.689  12.287 -0.2244  0.3450 -0.2772
19882W        W36729  15.639   7.659  13.409 -0.5305 -0.3156  0.0549
19883W        W36730  10.469  18.810   1.948  0.2249  0.1188  0.0045
19884W        W36731  15.809   5.258   3.833  0.0920  0.0189 -0.0699
19885W        W36732  16.045   3.143  11.209 -0.1182 -0.0694  0.1571
19886W        W36733   8.316  14.668   3.575  0.2556 -0.1737 -0.2351
19887W        W36734   3.721  12.362  12.022 -0.0024 -0.0459  0.0545
19888W        W36735   6.357   0.321   3.203 -0.3146 -0.1344  0.0642
19889W        W36736  10.390   1.520   1.990  0.2162  0.4938 -0.1991
19890W        W36737  15.654   7.499   3.302  0.0982  0.0026 -0.1122
19891W        W36738  13.750   7.410   2.651 -0.0574 -0.1485  0.1101
19892W        W36739   7.229  16.321  13.480 -0.0680 -0.2400  0.1276
19893W        W36740  17.378  10.851   1.394 -0.0023 -0.1234 -0.0025
19894W        W36741   8.003   2.656   3.610  0.2583  0.0049  0.1872
19895W        W36742  12.583   6.355   1.666 -0.0765  0.0906  0.2560
19896W        W36743   1.220   7.878   3.049 -0.0152 -0.0682 -0.1486
19897W        W36744  16.325   9.479   0.667 -0.4593 -0.1441  0.1492
19898W        W36745  19.190   6.077   2.059  0.2389 -0.0068 -0.2514
19899W        W36746  14.759  14.422   1.587 -0.0519 -0.3784  0.0074
19900W        W36747   3.775  18.384   0.417 -0.1593 -0.2937 -0.0430
19901W        W36748  14.954   7.722   4.951 -0.4313  0.1443 -0.1276
19902W        W36749   6.662  16.280  12.118 -0.2831 -0.1272  0.1103
19903W        W36750   9.952   5.964  14.456 -0.2785  0.1124 -0.1707
19904W        W36751  12.245  16.440   5.303  0.1374  0.4375  0.0896
19905W        W36752  10.162   7.532   1.964 -0.0463 -0.0397  0.2622
19906W        W36753  15.827   7.860   1.069 -0.0370 -0.0658 -0.0154
19907W        W36754   2.554  10.394   2.495  0.1929 -0.1210  0.1261
19908W        W36755  17.397   6.291  10.245  0.0571  0.0140 -0.0844
19909W        W36756  12.298   5.480   0.974  0.1099  0.2691  0.1005
19910W        W36757   9.754  17.351  14.924 -0.0739 -0.1838 -0.1058
19911W        W36758   5.948   6.879  14.698  0.2092 -0.0989 -0.0537
19912W        W36759   1.875   3.846  14.609  0.1642  0.1292  0.0969
19913W        W36760   4.487  18.051  14.760 -0.0475  0.1086 -0.1311
19914W        W36761  13.148   4.554   4.460  0.1599 -0.0476 -0.0715
19915W        W36762  11.844   7.240   3.567 -0.1206 -0.1072  0.0580
19916W        W36763   8.191   3.596  12.310  0.0927 -0.1204  0.0229
19917W        W36764  12.149  18.328   2.437  0.1487  0.2110 -0.1175
19918W        W36765   2.268  14.298  11.661 -0.1678  0.1565  0.3167
19919W        W36766  16.856   9.213   4.670  0.1457 -0.2649  0.0534
19920W        W36767   5.500  14.142   0.235 -0.1710 -0.0440 -0.1666
19921W        W36768  16.162  15.654   0.477  0.0762 -0.2645 -0.4337
19922W        W36769  12.763  11.162   3.788 -0.2530 -0.0805  0.0268
19923W        W36770  13.762   1.514  12.601 -0.1717  0.2351 -0.0115
19924W        W36771   8.916   6.865  13.333  0.0325  0.1166  0.1117
19925W        W36772   0.463  17.226   2.727 -0.3021 -0.1569 -0.2120
19926W        W36773   6.763   5.385   4.537 -0.1164  0.0556 -0.1753
19927W        W36774  17.592   4.429   5.407 -0.2619 -0.0011  0.0002
19928W        W36775   7.818  14.672   3.673  0.0235  0.0274  0.0369
19929W        W36776  17.864   3.841   3.665  0.4138 -0.0754 -0.1789
19930W        W36777   2.496  12.908   3.365 -0.3643  0.1485  0.0816
19931W        W36778  16.829  13.248  10.128  0.1035  0.0077  0.0082
19932W        W36779  18.800   2.728   1.549  0.3238  0.0499 -0.0866
19933W        W36780  12.759  15.215   0.376 -0.0416 -0.3455 -0.0694
19934W        W36781   4.899  14.050  12.964  0.0165 -0.2070 -0.1709
19935W        W36782   7.275  15.342   4.535  0.1983  0.1228  0.0783
19936W        W36783   9.625  17.711  10.271 -0.0874  0.0685 -0.2691
19937W        W36784  16.404   8.696  12.936 -0.4799  0.0702 -0.1299
19938W        W36785   3.291   3.572  11.477  0.1542  0.0614  0.0716
19939W        W36786   9.270  10.271  12.806  0.0620  0.0930  0.3374
19940W        W36787   3.634   2.449  13.860 -0.1551  0.1915  0.0439
19941W        W36788  13.458   9.260   0.204  0.3121 -0.1113 -0.1070
19942W        W36789  11.333   7.582  11.681 -0.0408  0.3477 -0.1205
19943W        W36790  18.873   4.064  12.639 -0.1247  0.0837 -0.2798
19944W        W36791   0.481  18.574  11.336 -0.2428 -0.1546  0.0371
19945W        W36792   2.178   7.986  10.401  0.0384  0.0074  0.0466
19946W        W36793  19.150  12.311  13.588  0.2564 -0.0537 -0.1412
19947W        W36794  13.320   3.437  14.234  0.0756 -0.0123  0.0847
19948W        W36795  11.568  16.205   3.064 -0.1929 -0.2379  0.1517
19949W        W36796  14.380  13.072  11.562 -0.1796  0.2130  0.0807
19950W        W36797  18.746  15.227   1.525 -0.3386 -0.0282  0.0262
19951W        W36798   0.117   4.173   5.493  0.0330 -0.2153 -0.1303
19952W        W36799   7.294   3.627   1.344  0.0741 -0.3233  0.2742
19953W        W36800  14.344   3.231  10.989 -0.1738 -0.3703  0.1826
19954W        W36801   5.110  15.048   3.748  0.1485  0.0075  0.2336
19955W        W36802  13.105  13.461   2.196  0.2089 -0.0990 -0.1021
19956W        W36803  18.495  12.075   1.404  0.0832  0.0306  0.1386
19957W        W36804  10.588   6.672   4.493 -0.1009  0.1130  0.2614
19958W        W36805  12.985  14.084  11.071 -0.1845 -0.3146 -0.1719
19959W        W36806   5.830   2.220   4.633 -0.0674 -0.3721 -0.2372
19960W        W36807  13.821  14.961   3.157  0.0200 -0.4998  0.1359
19961W        W36808   3.409  17.403  14.678 -0.0202 -0.1553  0.0503
19962W        W36809   3.182  10.736   1.397  0.0995 -0.1094  0.2422
19963W        W36810   0.963   7.908   2.420  0.0139  0.1410 -0.1497
19964W        W36811   8.810  16.858  11.450 -0.0564 -0.4798 -0.1391
19965W        W36812  19.253   6.697  14.868 -0.1449  0.1906 -0.0611
19966W        W36813  15.775   8.923  11.924 -0.2973  0.0276  0.0201
19967W        W36814  10.795   7.449  14.952 -0.2988 -0.0168 -0.1895
19968W        W36815  14.571   5.120   0.537 -0.1541 -0.0893 -0.0843
19969W        W36816  11.776  17.071   5.321 -0.4346 -0.4138  0.2556
19970W        W36817  15.187  16.558  13.977 -0.5516 -0.1201 -0.0531
19971W        W36818   4.104   4.183  11.475  0.2114  0.0765  0.2726
19972W        W36819   5.493  17.035   3.558  0.3606  0.3171 -0.2515
19973W        W36820  11.639   9.323  14.756  0.2279  0.1430 -0.0956
19974W        W36821  10.137   5.994  12.715  0.0467  0.2906  0.1177
19975W        W36822  18.367  19.196   4.500  0.0678 -0.2002  0.2490
19976W        W36823  10.764  10.623  13.909  0.0997  0.2464 -0.0926
19977W        W36824  15.396   5.297   9.210 -0.2710  0.1384  0.4278
19978W        W36825   6.398  15.826  10.641 -0.0276 -0.0989 -0.2819
19979W        W36826   3.378   3.115   4.404  0.0567  0.0429 -0.0910
19980W        W36827   1.546  11.590  13.173 -0.5347  0.1026  0.0048
19981W        W36828   4.581   5.455  11.726  0.0986  0.1529  0.1665
19982W        W36829  11.024   5.870  13.713 -0.3140  0.0003 -0.1043
19983W        W36830  14.267  10.826  11.282  0.1342  0.3625  0.1383
19984W        W36831  14.792   1.800  13.489  0.1327  0.0414  0.0288
19985W        W36832   3.968   5.527   2.486  0.0185  0.2072 -0.0199
19986W        W36833   0.441  14.936   2.235  0.0579 -0.3140 -0.1129
19987W        W36834   6.073  14.979   0.215 -0.6647  0.1004 -0.1154
19988W        W36835   6.483  11.213   0.648  0.1512  0.1374  0.2135
19989W        W36836  18.374  10.539  10.654 -0.0168 -0.0339  0.0643
19990W        W36837   0.076  12.398   3.388  0.3606 -0.1742  0.0245
19991W        W36838   6.894   6.002  13.306  0.0088 -0.0569 -0.0730
19992W        W36839   8.739   0.172   1.727 -0.2861 -0.1230 -0.0031
19993W        W36840  18.240   5.439  11.955  0.0415 -0.1630 -0.1711
19994W        W36841  10.837   4.408   4.350 -0.0343 -0.1900  0.1045
19995W        W36842   8.519   0.268  11.244  0.1028 -0.2300 -0.0245
19996W        W36843   6.867   1.635  11.375 -0.2161 -0.0386  0.0886
19997W        W36844  14.354   3.495   2.346 -0.4825  0.2698  0.3172
19998W        W36845  14.711  19.007   3.141 -0.2829 -0.1409  0.0692
19999W        W36846   8.079  13.849  11.751 -0.3352  0.3119 -0.1329
20000W        W36847  12.347  14.320   2.875  0.2114 -0.1791 -0.1531
20001W        W36848   3.353  14.496  11.199 -0.1161 -0.0321  0.1702
20002W        W36849   6.974  11.206  11.631  0.1606  0.0664  0.0508
20003W        W36850   8.045  18.420   1.641  0.1709  0.1096  0.1409
20004W        W36851   6.587  19.125   0.825  0.1388 -0.3357 -0.2525
20005W        W36852  14.246   1.791  11.357 -0.3061 -0.0576 -0.1388
20006W        W36853   7.971   5.592   9.766 -0.0779  0.0011  0.0726
20007W        W36854  15.255  13.992   0.466 -0.2756 -0.3289  0.3344
20008W        W36855   9.328  15.440  11.389  0.1485 -0.0117 -0.1013
20009W        W36856  18.338   1.714   2.667 -0.1335  0.2715  0.0006
20010W        W36857  18.826   2.223  13.441 -0.3073  0.5540 -0.1553
20011W        W36858   3.968   6.257   2.268 -0.4754  0.0483 -0.2013
20012W        W36859   6.258   7.487   1.784  0.2929 -0.0930 -0.0201
20013W        W36860  18.270  14.106  10.413 -0.0599  0.1900  0.4574
20014W        W36861  12.902  15.011  11.832  0.1177  0.2782 -0.0378
20015W        W36862   5.452   1.129   4.382  0.0103  0.1085 -0.0047
20016W        W36863   0.459   4.338  13.914  0.2729  0.2910 -0.1720
20017W        W36864   4.416  16.890  14.796  0.0321  0.2620  0.3298
20018W        W36865   3.263   3.725  14.123 -0.2291 -0.0508 -0.0766
20019W        W36866  17.385  18.728   2.023  0.3347  0.1288  0.3522
20020W        W36867  17.279  10.219  11.623  0.4367  0.4039 -0.1422
20021W        W36868   3.109   7.108   1.319 -0.0070 -0.2351 -0.1001
20022W        W36869   1.139  17.624   2.015 -0.1762 -0.1471  0.1534
20023W        W36870   6.072  16.111  11.443  0.0418  0.3542 -0.0136
20024W        W36871  14.870  16.838   4.341  0.1584  0.3010  0.0619
20025W        W36872   8.317   0.012  10.838 -0.0061 -0.0110 -0.0254
20026W        W36873   7.153  14.269   1.369  0.0375  0.0498  0.1130
20027W        W36874   8.771   3.579   4.277 -0.0189 -0.1113  0.1840
20028W        W36875   9.456   6.780   3.174  0.3172 -0.1543 -0.0688
20029W        W36876   8.593   4.831  12.278  0.2740  0.0568  0.2656
20030W        W36877   8.784  15.507   2.644 -0.0729 -0.1421  0.1491
20031W        W36878   1.047   2.328  11.634 -0.1413 -0.1601 -0.1975
20032W        W36879  17.521  16.764   1.797 -0.0989 -0.0083  0.4221
20033W        W36880  17.684   3.590  13.793 -0.1041 -0.1542  0.0977
20034W        W36881  10.974   6.338   3.607 -0.3317 -0.0306 -0.0097
20035W        W36882   9.597  10.005  11.687  0.0486 -0.2312  0.1143
20036W        W36883   7.065   2.556  11.634  0.0113 -0.0409  0.0923
20037W        W36884  18.955   5.306   3.523 -0.3941  0.1698 -0.3089
20038W        W36885  12.102  12.808   0.134  0.0015 -0.1190 -0.1106
20039W        W36886   7.902   7.678  10.363 -0.0313  0.0593  0.2710
20040W        W36887  14.948  10.840   2.913 -0.1262  0.1022 -0.0337
20041W        W36888  13.392  11.225   1.634  0.0441 -0.1361  0.3121
20042W        W36889  16.520   6.346  11.844  0.0905 -0.3317  0.1793
20043W        W36890   0.500  15.587   4.576  0.0084 -0.0614  0.1350
20044W        W36891   6.218   0.810   3.371  0.3941 -0.0082  0.2466
20045W        W36892   4.216   7.920  10.306  0.0420 -0.5112 -0.1323
20046W        W36893   6.852  14.742  13.216 -0.2982  0.2199  0.1255
20047W        W36894   0.070   2.176   0.315 -0.0212  0.2633 -0.2170
20048W        W36895  18.337   0.885   4.796  0.1955  0.1379  0.1063
20049W        W36896  16.265  14.407   1.575  0.3141  0.1099  0.1000
20050W        W36897   1.993   1.992   2.749 -0.1880  0.0992  0.0549
20051W        W36898   8.195  12.309   2.930 -0.0710  0.2513 -0.2206
20052W        W36899  16.358  11.339  11.856  0.3977  0.0836  0.0649
20053W        W36900  12.033  13.297  14.186  0.2995  0.1412  0.0224
20054W        W36901  19.187   1.710   3.808  0.1359  0.3378  0.1703
20055W        W36902   0.952  11.015  10.554 -0.2061  0.1187 -0.2147
20056W        W36903   1.295  14.387   2.045 -0.0722  0.0602  0.1544
20057W        W36904  16.694  17.705  14.505 -0.1865 -0.2397 -0.0078
20058W        W36905   0.303  15.177   1.357  0.1281 -0.0457 -0.3371
20059W        W36906   9.611   1.402   1.766 -0.2699  0.0024  0.0542
20060W        W36907  19.040  14.667  11.001 -0.0446  0.2257 -0.1749
20061W        W36908   9.762   3.911  10.086  0.3587  0.1331  0.0775
20062W        W36909   4.194   9.368  13.312 -0.0702  0.2223  0.0254
20063W        W36910   2.992   5.193   0.060  0.2902  0.1262  0.1445
20064W        W36911   0.722  11.547   2.549 -0.1491  0.1030 -0.0071
20065W        W36912  12.051   3.717   1.575 -0.0621  0.3846 -0.0827
20066W        W36913   6.207  14.203  11.381  0.0316 -0.1539 -0.1295
20067W        W36914  13.723   9.345  11.398  0.2553  0.2705  0.1569
20068W        W36915  10.050   3.556  13.069  0.3257  0.0496 -0.1433
20069W        W36916   1.170   4.424  10.953 -0.0064 -0.0693  0.1092
20070W        W36917   7.663  10.733  12.901 -0.0019 -0.2990  0.0918
20071W        W36918  10.732   2.139   4.373  0.4104  0.1551  0.4817
20072W        W36919  12.921  18.500   3.698 -0.1968  0.0336 -0.0062
20073W        W36920   6.427  18.006  13.188 -0.3084 -0.0144 -0.0370
20074W        W36921  18.489   8.711   5.488  0.2057 -0.0194 -0.1283
20075W        W36922   6.909   7.726   3.850 -0.0250 -0.1793 -0.3882
20076W        W36923   4.897  17.784   5.093  0.0945  0.3949 -0.0855
20077W        W36924   7.235  15.946   9.988 -0.1820  0.1324 -0.0855
20078W        W36925   8.979   6.472   1.074  0.1770 -0.1136 -0.2436
20079W        W36926   1.718   4.427   0.456 -0.1592  0.1066  0.0148
20080W        W36927  18.424  14.874  12.908  0.1955  0.2554  0.0981
20081W        W36928   6.071   0.907   1.820 -0.3467  0.2467 -0.0523
20082W        W36929   8.134   9.910   1.864  0.0205  0.0185  0.3188
20083W        W36930   7.245   5.298  12.266 -0.1478  0.1408 -0.2319
20084W        W36931   9.935   2.152  13.227 -0.1762 -0.0131  0.0605
20085W        W36932  13.645   8.200  10.464  0.1194 -0.0236  0.1030
20086W        W36933   7.389  18.838  12.903  0.1649 -0.0454  0.0321
20087W        W36934  15.359   4.498  14.602 -0.0101  0.0452  0.2058
20088W        W36935   7.583  16.567  14.383 -0.2428 -0.1214  0.0553
20089W        W36936   4.346   6.488   3.085  0.4591 -0.0276 -0.0970
20090W        W36937   8.545   9.495   2.931 -0.0892 -0.1413 -0.0588
20091W        W36938   3.384   6.092  13.923 -0.3139  0.2647 -0.2726
20092W        W36939  12.993  18.079   0.818  0.2104  0.0769 -0.1526
20093W        W36940  13.314   5.838   4.576 -0.3123 -0.5305  0.3011
20094W        W36941   0.757   1.635   5.850  0.2232 -0.2486  0.0246
20095W        W36942  19.126   2.004   2.189 -0.0706  0.1392  0.4413
20096W        W36943   3.706  14.916  10.279  0.0406  0.0592 -0.1385
20097W        W36944  11.285  13.885   4.527  0.0004 -0.0303 -0.0555
20098W        W36945  16.544  10.184  14.293  0.0540 -0.0823  0.3338
20099W        W36946   2.007   0.542  14.522 -0.0829  0.3681  0.2546
20100W        W36947  12.545   3.155  12.869 -0.3921  0.0160  0.2031
20101W        W36948   9.900  10.328  14.944  0.1125  0.0761  0.3713
20102W        W36949  13.925   0.936   1.379 -0.4243  0.0560  0.1166
20103W        W36950  16.544   1.632  11.637  0.2126  0.1160 -0.2015
20104W        W36951  12.687   9.918  14.515  0.0079  0.0795 -0.0559
20105W        W36952   0.313   9.583   3.984 -0.1565  0.3268 -0.2197
20106W        W36953  19.037  17.941  13.446 -0.2262  0.1092  0.0338
20107W        W36954   8.874  16.161  11.059  0.2530 -0.0019 -0.1311
20108W        W36955  17.740  15.458   1.316 -0.2983  0.1656  0.2175
20109W        W36956   0.863   6.029   2.717 -0.0519  0.2348  0.0192
20110W        W36957  13.925  13.256   1.598 -0.0627  0.3556  0.2624
20111W        W36958  18.598   8.649   0.169 -0.3137  0.0327  0.1367
20112W        W36959  17.478   1.189  12.632  0.1447 -0.0918  0.1873
20113W        W36960   8.645   3.690   2.259 -0.1854  0.0151 -0.3143
20114W        W36961   6.907  16.998  12.812 -0.1561 -0.3320 -0.3343
20115W        W36962   4.144   2.190   0.469 -0.0934  0.4943 -0.2075
20116W        W36963   1.651   8.695  13.400  0.3946 -0.2966 -0.0693
20117W        W36964  16.787   2.965  14.042  0.1179 -0.0389 -0.1494
20118W        W36965  19.277  15.527   0.011 -0.1996 -0.0978  0.0599
20119W        W36966  12.293   8.119   3.181  0.0424 -0.3056  0.0780
20120W        W36967  10.367  16.332   2.969  0.1142  0.2550 -0.0348
20121W        W36968   4.482  10.613  11.275 -0.0848  0.1034  0.1728
20122W        W36969   9.825   3.708   9.624  0.1252  0.1207  0.2397
20123W        W36970  15.751   9.983  12.919 -0.1994 -0.0595 -0.1912
20124W        W36971  10.860  15.874  14.609 -0.1462  0.3272  0.1724
20125W        W36972   3.388   1.518   1.189  0.4243 -0.0634 -0.1479
20126W        W36973   8.129   5.924   0.082 -0.3343 -0.3643  0.2832
20127W        W36974   4.899   7.757   0.855  0.2301  0.2556  0.0930
20128W        W36975  19.198  10.627   0.308  0.4398  0.0675  0.1970
20129W        W36976   4.490   4.972  11.763  0.2412 -0.3699  0.2594
20130W        W36977  10.160  15.962   2.100  0.3210 -0.1075  0.1028
20131W        W36978   6.673  12.540  11.592  0.1121 -0.1954  0.0754
20132W        W36979   6.816   4.206   3.224  0.3586  0.1224  0.2169
20133W        W36980   0.697  11.639  12.967  0.1442 -0.0536  0.1009
20134W        W36981   5.436  14.180  10.479  0.0686 -0.0112 -0.0278
20135W        W36982  13.292   5.335  13.624  0.0645  0.4489  0.0456
20136W        W36983   3.763  13.617   4.481 -0.0512 -0.2643 -0.2309
20137W        W36984   6.428   5.390  14.966  0.1704 -0.1632 -0.2018
20138W        W36985  17.073   2.462  10.721 -0.0080  0.0968 -0.0608
20139W        W36986  13.711  12.475  11.837 -0.2233 -0.0959  0.0678
20140W        W36987   1.940  19.033  10.315 -0.0505 -0.3192  0.1166
20141W        W36988  14.181  14.381   4.303  0.0773  0.2181  0.0660
20142W        W36989  16.403  14.476  11.837  0.1963  0.0866  0.0393
20143W        W36990   2.137   7.396   1.781  0.0250 -0.0052  0.3592
20144W        W36991  12.108   3.028   4.859 -0.2311 -0.0777  0.1214
20145W        W36992   7.653  18.844  12.069 -0.3276  0.0876 -0.0556
20146W        W36993   2.375  13.750  12.656 -0.2678  0.0739 -0.0677
20147W        W36994  13.180  19.222  13.967  0.0257  0.3067 -0.0758
20148W        W36995   3.227  13.969   2.740  0.3197 -0.1444  0.2743
20149W        W36996   0.405  15.147   3.051 -0.2121  0.0342  0.1030
20150W        W36997  17.904   9.611  14.330 -0.1003  0.1189  0.1206
20151W        W36998  11.842  17.171   4.122  0.0272 -0.1702  0.2220
20152W        W36999  14.140   1.104  11.998  0.2537 -0.0233  0.3405
20153W        W37000   5.644  11.276   5.251  0.2084  0.3970  0.1878
20154W        W37001  17.519   5.276  11.692 -0.1556 -0.2266  0.0302
20155W        W37002   8.887   1.372   0.641  0.0887 -0.2414 -0.0816
20156W        W37003   0.769   0.066  12.506  0.2671 -0.0412  0.2563
20157W        W37004  17.287   3.507   2.893 -0.3358 -0.2363  0.1957
20158W        W37005  10.614   6.057  14.518 -0.3851  0.1699 -0.0260
20159W        W37006   0.522   8.746  11.358 -0.1759 -0.0356 -0.1014
20160W        W37007  14.481  18.855   3.952  0.2385  0.2627 -0.2167
20161W        W37008  11.441   3.009   0.739 -0.0589  0.3498 -0.0093
20162W        W37009  10.126   4.836  13.283 -0.0082 -0.3362  0.0203
20163W        W37010  13.970   3.262   2.616  0.0846  0.0065 -0.0425
20164W        W37011  11.763   4.267   2.352 -0.2698 -0.1009  0.4118
20165W        W37012  15.563   9.146   2.587 -0.0154 -0.0956  0.0257
20166W        W37013   5.934  17.595   2.116  0.0933 -0.1579  0.0972
20167W        W37014   4.687   6.883   0.335 -0.1761  0.1789  0.2767
20168W        W37015   2.554  16.323  11.627  0.0093  0.6198  0.0070
20169W        W37016   2.986  17.474  13.460 -0.0602  0.1881 -0.1274
20170W        W37017   6.386   9.775  10.430  0.0595  0.2899  0.0091
20171W        W37018  18.291   3.647  14.479 -0.0362  0.0563  0.0867
20172W        W37019   5.265   6.990  11.336 -0.2804  0.2412  0.4132
20173W        W37020  10.608  16.247   4.979 -0.2835  0.1833  0.0404
20174W        W37021   0.561  19.169  14.256 -0.3185 -0.2778 -0.1815
20175W        W37022  14.688  13.359   4.946  0.1835 -0.0818 -0.0906
20176W        W37023   4.660   0.489   1.262  0.3116  0.0147  0.0650
20177W        W37024  15.265  13.222   1.673 -0.1960 -0.1843  0.7076
20178W        W37025  18.286   1.798   0.566 -0.1045 -0.1064  0.1185
20179W        W37026   4.007  13.808   0.757 -0.2915  0.2345 -0.0497
20180W        W37027  11.424  12.655  12.390 -0.2756 -0.3143  0.3549
20181W        W37028  14.492   0.526   2.719  0.3404 -0.0203  0.1248
20182W        W37029   4.827   7.713  12.775 -0.1356  0.0709  0.0459
20183W        W37030  17.559  10.059   2.893  0.1100  0.0246 -0.0178
20184W        W37031   4.333  11.103  11.096 -0.2412  0.0128 -0.1086
20185W        W37032  14.492   3.136  13.663  0.0198 -0.1800  0.2753
20186W        W37033   3.891  17.392  10.609  0.0679  0.0489  0.0244
20187W        W37034   5.521  14.340  14.781 -0.3868 -0.1520 -0.1372
20188W        W37035  10.551   5.552   4.521  0.2137  0.1369 -0.3080
20189W        W37036  13.856   1.345   4.615 -0.0842 -0.1727  0.4563
20190W        W37037   3.395   6.210   2.922  0.0842  0.3519  0.2637
20191W        W37038  15.822   1.689   2.283  0.2025 -0.0026 -0.0439
20192W        W37039  14.473  14.002   4.008 -0.0836  0.2088 -0.1967
20193W        W37040   7.191  19.188   3.601 -0.1734  0.1709 -0.0401
20194W        W37041   9.913  13.556  13.550 -0.0134  0.2558 -0.0038
20195W        W37042   8.926  10.654  11.744 -0.1648  0.4394  0.3077
20196W        W37043  15.404  16.483   4.756  0.2040 -0.0730 -0.1598
20197W        W37044   9.981   1.542  12.115  0.0673  0.1673  0.0131
20198W        W37045   5.537  16.368   1.551  0.1082 -0.0247 -0.2824
20199W        W37046   0.532   9.159  10.238 -0.2625  0.3523  0.2030
20200W        W37047   5.699  13.391   5.434 -0.0886  0.0294 -0.0583
20201W        W37048   6.626   3.820  11.624 -0.4350  0.1455 -0.2227
20202W        W37049  15.787   6.429  13.482  0.1039 -0.1989 -0.1081
20203W        W37050   9.364   5.838   0.509 -0.0274  0.2661  0.2428
20204W        W37051  16.082  14.950  12.261  0.2715 -0.2652 -0.2807
20205W        W37052  12.565   6.191   2.410 -0.1118  0.4143 -0.1372
20206W        W37053   3.536   8.086   3.382 -0.1164 -0.4482 -0.1208
20207W        W37054  11.062   5.142  13.298  0.3323 -0.4095  0.0317
20208W        W37055  10.530   9.867   1.928 -0.1212 -0.2032  0.0324
20209W        W37056   1.126  12.073   0.136  0.0594 -0.2645 -0.2309
20210W        W37057  16.157   2.427   4.017 -0.0113 -0.1067 -0.0431
20211W        W37058  17.970   0.663   4.541  0.1487  0.1650  0.0903
20212W        W37059  14.615  17.044  13.256  0.1454  0.0376 -0.0914
20213W        W37060   1.946  13.421   3.734 -0.2510 -0.1767  0.0949
20214W        W37061   1.671   6.669  11.989  0.0915 -0.2890 -0.0972
20215W        W37062  16.800   3.573  10.844 -0.0593  0.0579 -0.1173
20216W        W37063  15.734   1.190   4.445 -0.1088  0.0144  0.0133
20217W        W37064   2.981  14.698   4.933  0.3031  0.2554 -0.1279
20218W        W37065  11.762   2.743   5.041  0.0541  0.0654  0.2065
20219W        W37066  10.913  13.483   3.120 -0.0447  0.0764 -0.0327
20220W        W37067  18.615   0.436  12.352  0.2665 -0.1362  0.3930
20221W        W37068   3.583  18.736  12.344  0.0487  0.2172 -0.1441
20222W        W37069   5.774   6.160   0.914 -0.0591  0.0542  0.1518
20223W        W37070  19.152   4.470  12.604 -0.0734 -0.0382  0.4109
20224W        W37071   4.377  18.831   2.116 -0.3826  0.0252 -0.2170
20225W        W37072  18.623   8.268  13.776  0.0678  0.0524 -0.0633
20226W        W37073   0.236   7.870  13.047 -0.0355  0.3166 -0.3144
20227W        W37074   4.589  10.510   0.872 -0.1474 -0.0889 -0.0304
20228W        W37075   9.836  17.726   3.270 -0.0190  0.3303  0.1967
20229W        W37076  15.422   5.773   9.384 -0.1788  0.0139 -0.2622
20230W        W37077  13.252  12.970   0.502  0.0015 -0.1021  0.0561
20231W        W37078  16.234  19.029   4.472  0.1678 -0.1348 -0.0137
20232W        W37079   2.968   5.291   0.678 -0.1980  0.5163 -0.0546
20233W        W37080  10.632  10.861   4.268 -0.0939  0.0998  0.1039
20234W        W37081   3.664   9.369  14.940  0.0640 -0.1230  0.1984
20235W        W37082  14.037  11.861  13.251  0.0155 -0.2018  0.1793
20236W        W37083   3.740   6.910  14.876  0.3234  0.0706  0.1692
20237W        W37084  13.567  17.710   3.724  0.3176  0.3066 -0.1499
20238W        W37085  10.439  11.457  14.336 -0.0902 -0.0321  0.0247
20239W        W37086  14.431   1.487  10.884  0.2684 -0.3336  0.2827
20240W        W37087  11.543  10.517  12.958 -0.0503  0.3310 -0.0743
20241W        W37088   1.076   7.140   2.402 -0.0049 -0.0191  0.2923
20242W        W37089  15.867  18.807   1.785  0.1287 -0.1276  0.1611
20243W        W37090   4.840   4.025   1.881  0.1870  0.0519  0.1454
20244W        W37091  13.972   9.686  12.729 -0.0443 -0.2533  0.0818
20245W        W37092   4.817   2.087  14.477  0.2148 -0.0654  0.0904
20246W        W37093   6.672  17.060  14.433  0.1591 -0.0260  0.2495
20247W        W37094   7.035   4.104  11.448 -0.0308  0.0670 -0.1422
20248W        W37095  11.499   9.785  11.590 -0.1342 -0.1257  0.1441
20249W        W37096  12.077  13.781  10.990  0.4259  0.0440 -0.2602
20250W        W37097   4.614  17.381   1.456  0.0490 -0.2079  0.0504
20251W        W37098   8.983   7.450  10.645 -0.1717 -0.0720 -0.0794
20252W        W37099   1.720  18.130  12.989  0.4696 -0.0063  0.0691
20253W        W37100  13.836  15.551   2.510 -0.0716  0.2050 -0.1689
20254W        W37101   5.028   6.772   0.791  0.0795  0.3733  0.3030
20255W        W37102   8.475   5.739   0.435 -0.0414  0.1079 -0.1087
20256W        W37103  12.662  16.772   5.327 -0.0274  0.2199  0.1424
20257W        W37104  12.514   2.066   2.442  0.2549 -0.0428  0.1865
20258W        W37105   1.045  12.539  13.486 -0.1088  0.1608  0.1059
20259W        W37106   7.424   7.983  13.893 -0.1098 -0.3017 -0.0163
20260W        W37107  12.385   5.631  10.511  0.0511  0.3137 -0.1413
20261W        W37108  14.261   5.610  10.721 -0.1301 -0.2705 -0.2158
20262W        W37109  13.332   5.382  11.945  0.0962  0.2055  0.0818
20263W        W37110   6.429  11.129   0.180  0.2489 -0.2713  0.0787
20264W        W37111  16.251  12.975  11.784 -0.1683 -0.0159  0.0395
20265W        W37112  18.269  10.655  13.399 -0.0888  0.2624 -0.3267
20266W        W37113   4.775   5.531   2.687  0.0184 -0.0761 -0.4366
20267W        W37114  14.028  10.195   3.891 -0.0702 -0.1682 -0.0098
20268W        W37115   7.094   4.572   3.729 -0.0575  0.0401 -0.0588
20269W        W37116  19.184  11.118   1.108 -0.0895  0.0806 -0.0320
20270W        W37117   2.649  11.570   1.714 -0.0361 -0.1395 -0.1298
20271W        W37118  11.708   4.930  11.241  0.0686  0.5115 -0.3257
20272W        W37119  18.677  13.063  13.242  0.2229  0.1329 -0.1146
20273W        W37120   4.495   5.870   0.555 -0.1169 -0.2563 -0.0550
20274W        W37121  11.851  13.190   2.304 -0.0719 -0.3270 -0.0162
20275W        W37122  11.009  12.947  11.214 -0.3697 -0.1669  0.1936
20276W        W37123  15.057  14.440   4.395  0.2091  0.1708  0.0047
20277W        W37124   0.529  17.876   2.367 -0.3986  0.0110 -0.1379
20278W        W37125  13.880   3.379   0.640 -0.1774 -0.1807 -0.0118
20279W        W37126   6.984   0.429   1.374  0.1274 -0.0440  0.1577
20280W        W37127   7.830  19.077  13.297  0.1055  0.0561 -0.2362
20281W        W37128   8.865   9.106   9.999  0.0078 -0.0498  0.0469
20282W        W37129   8.918   1.986   2.272  0.0978 -0.3517 -0.1526
20283W        W37130   3.497  11.113   1.522  0.0520  0.0424  0.0643
20284W        W37131   9.103   0.660  14.261  0.0275  0.2702  0.1886
20285W        W37132   7.312   3.781   0.829 -0.2283 -0.2956  0.2898
20286W        W37133   8.015  12.978   4.364 -0.2076 -0.1736 -0.0435
20287W        W37134  18.446  11.517  14.786  0.1746 -0.1914  0.2263
20288W        W37135  10.399  18.485  14.220  0.4149  0.0895 -0.2801
20289W        W37136   3.060  12.761   9.524 -0.1670 -0.2254  0.1754
20290W        W37137  14.412  16.431  13.651  0.0381 -0.3607  0.1219
20291W        W37138   3.763   7.647   3.413 -0.2057  0.0686  0.3313
20292W        W37139   9.222   5.079  12.318 -0.0367  0.2584 -0.2256
20293W        W37140   0.721   6.486  14.415 -0.0644 -0.2186 -0.0137
20294W        W37141  15.391   6.027  14.021 -0.1096  0.2202 -0.2910
20295W        W37142   7.066  12.418  11.925  0.0134 -0.0859 -0.0113
20296W        W37143   5.015   7.026  10.868  0.0020 -0.1610  0.2565
20297W        W37144  19.143  10.628   1.896 -0.0388  0.1740 -0.0882
20298W        W37145   4.143  19.217   0.137 -0.0326  0.1669  0.1040
20299W        W37146   3.160   4.979   0.962  0.2478 -0.1823  0.2223
20300W        W37147   5.177  18.538  14.338 -0.2761  0.1747  0.0355
20301W        W37148  11.952   6.850   4.250  0.0628  0.1824 -0.1038
20302W        W37149  16.599   6.108   4.348  0.0391  0.0826  0.1279
20303W        W37150  19.046   4.435  13.207  0.0387 -0.0218  0.1530
20304W        W37151   4.067   1.439   5.677  0.0286 -0.1321  0.0829
20305W        W37152   6.977   5.236   2.371 -0.1430 -0.1223 -0.1182
20306W        W37153  16.206   3.959   3.981 -0.3113 -0.1726 -0.3852
20307W        W37154   1.600  17.237   2.874  0.2506 -0.1426 -0.1572
20308W        W37155   4.191  11.725  11.949  0.0489 -0.1873 -0.1462
20309W        W37156  17.796   8.446   3.390  0.3468 -0.2429  0.2008
20310W        W37157   2.596   0.523  14.700  0.0127 -0.3504  0.3073
20311W        W37158  18.581  17.804   1.067 -0.0692 -0.2495  0.4280
20312W        W37159  18.929  10.169  12.232  0.0921  0.1368  0.1450
20313W        W37160   2.152   4.624  12.865 -0.0485 -0.1505  0.1323
20314W        W37161   4.292  15.594  11.249 -0.1107 -0.0504 -0.1077
20315W        W37162   0.010   6.426  11.792  0.0519 -0.0646  0.1188
20316W        W37163   5.245   9.262  13.769 -0.1050  0.3219  0.0381
20317W        W37164  13.963   9.618  10.586 -0.0468 -0.0271 -0.2243
20318W        W37165  11.143   0.337  13.617  0.1978  0.0733 -0.0680
20319W        W37166   1.114   7.134  14.484  0.2132  0.1325 -0.0156
20320W        W37167   9.264  12.707  10.999  0.0317 -0.1354  0.0093
20321W        W37168   2.521   1.136   2.983  0.1159 -0.3898 -0.1671
20322W        W37169   7.228  15.206   0.622 -0.0115 -0.1194 -0.4589
20323W        W37170   3.671   8.310   2.950  0.0346 -0.4341 -0.0591
20324W        W37171   1.451  17.795   5.390 -0.1331  0.1820  0.0231
20325W        W37172   8.196  13.414  14.931  0.4879  0.3406  0.1265
20326W        W37173  14.832  15.985  11.817 -0.1614 -0.1029  0.0408
20327W        W37174   3.658  13.409   1.086 -0.2161  0.2069 -0.0912
20328W        W37175  15.622   7.002   3.689  0.0152 -0.1912 -0.0818
20329W        W37176   2.993   0.696   1.641 -0.1443 -0.3489  0.0995
20330W        W37177   9.640  17.171   5.214 -0.0933  0.1148  0.0999
20331W        W37178   9.340   3.404  13.802  0.1879 -0.2221 -0.1874
20332W        W37179   8.136   0.046  13.036  0.2657 -0.3361 -0.1479
20333W        W37180   4.092  16.525   1.517 -0.0093  0.1440 -0.3124
20334W        W37181   8.818   9.853  11.334  0.1051  0.1923  0.1667
20335W        W37182   5.704   1.533   1.144 -0.1644 -0.2909 -0.0198
20336W        W37183  11.873   1.578   3.033 -0.1215  0.1029  0.1411
20337W        W37184   8.274   3.043   4.790 -0.0631  0.1648  0.0609
20338W        W37185  12.640  13.748   0.432 -0.0188 -0.1814 -0.2687
20339W        W37186   0.595  11.196   4.845 -0.3382 -0.0467 -0.0206
20340W        W37187   5.290  16.477  12.825 -0.1144 -0.1465 -0.0537
20341W        W37188  11.334  14.420   0.491  0.1715 -0.1191  0.1117
20342W        W37189  19.042  12.758  10.912 -0.3928 -0.1797  0.1240
20343W        W37190   2.623  16.901   3.709  0.0163  0.2929 -0.1011
20344W        W37191   6.879   9.607   3.370 -0.5168 -0.0021 -0.3818
20345W        W37192  13.110   2.548   3.673 -0.1767 -0.0029  0.2896
20346W        W37193   6.618  13.573   1.078  0.4493 -0.3325 -0.2475
20347W        W37194  11.676  14.164   3.221 -0.2085 -0.2748  0.0545
20348W        W37195  13.758  14.609  11.110 -0.1412  0.1079  0.0298
20349W        W37196  13.230  17.213  14.838 -0.1670  0.0192 -0.3204
20350W        W37197  11.866   4.667   2.032  0.1503 -0.1645 -0.0524
20351W        W37198  11.974   2.122  14.336 -0.3801 -0.3952 -0.1854
20352W        W37199   6.631  15.865   5.052  0.0392 -0.0494  0.2229
20353W        W37200  18.774  18.499  11.628  0.2636 -0.3379  0.1076
20354W        W37201  12.519  17.910   4.153  0.0359  0.0525 -0.1156
20355W        W37202   3.713   4.004   0.579 -0.0698 -0.0483  0.1654
20356W        W37203   2.790  13.247  13.349  0.1722 -0.0846  0.1883
20357W        W37204  17.126   9.724  11.683  0.1254 -0.1494 -0.0917
20358W        W37205  16.685  16.892   3.244  0.3142 -0.0573  0.2717
20359W        W37206   7.810  18.870   5.105  0.1153  0.1498 -0.1407
20360W        W37207  17.799   4.308  12.932  0.2838 -0.1648  0.2855
20361W        W37208   5.818  16.269   2.746 -0.1590 -0.0053 -0.2908
20362W        W37209   6.580  11.465   3.508 -0.1028  0.1512 -0.3798
20363W        W37210  15.942  14.401  11.468 -0.0777  0.0244 -0.4218
20364W        W37211  17.477   3.074   2.711 -0.0434  0.2667 -0.0246
20365W        W37212  11.306   3.167  13.861 -0.1073  0.1367  0.1281
20366W        W37213  13.984  12.358  14.026 -0.1279  0.7134  0.0358
20367W        W37214   5.723   2.629   0.689 -0.2575 -0.3728  0.0151
20368W        W37215   7.845   8.866   1.890 -0.2282  0.0408  0.1278
20369W        W37216   3.561   8.380  10.795  0.2013  0.2361 -0.0131
20370W        W37217  17.952  18.774  13.238  0.0600 -0.5432  0.2500
20371W        W37218   2.720   6.027   1.958 -0.1885 -0.3530 -0.0083
20372W        W37219   3.489   9.739   3.594 -0.0348  0.0341 -0.2614
20373W        W37220   6.509  16.964  11.177 -0.1950 -0.0629  0.0843
20374W        W37221   9.388  11.858  11.049  0.2291  0.0613  0.0400
20375W        W37222  15.565  15.077  12.807  0.1716 -0.1170  0.0138
20376W        W37223  13.730  14.848   0.289  0.1620 -0.0937 -0.0757
20377W        W37224  18.933  14.456   4.222  0.2045 -0.3147 -0.2467
20378W        W37225  11.455  13.925   2.053  0.1194  0.0441  0.0202
20379W        W37226   3.275   6.692   1.598 -0.3138 -0.0840 -0.0940
20380W        W37227   4.845  15.358   1.871 -0.0496  0.1412  0.2997
20381W        W37228  12.537   7.043  13.819 -0.2142 -0.2195  0.0506
20382W        W37229  13.108  11.852  14.975 -0.1108 -0.2001  0.0688
20383W        W37230  14.129   7.637   2.898 -0.2953  0.0536  0.0517
20384W        W37231  17.471   9.553   4.698 -0.0674 -0.5278  0.0144
20385W        W37232   0.743  10.615   2.075 -0.2157 -0.1765 -0.0601
20386W        W37233   6.071   0.901  10.484  0.0890 -0.3680 -0.1015
20387W        W37234   1.278  18.503  12.924  0.0152  0.1943  0.1385
20388W        W37235  13.600  14.561   0.701  0.0561  0.1764  0.0547
20389W        W37236  13.206   6.892   1.926 -0.2044 -0.0359  0.1057
20390W        W37237   5.307   9.515   3.014 -0.2586 -0.3829 -0.1836
20391W        W37238   9.675  12.874   4.270 -0.2049  0.0550 -0.5255
20392W        W37239   6.889   7.477   4.604  0.2448  0.2360 -0.2406
20393W        W37240  14.613  14.901   3.442 -0.3699  0.1377  0.0446
20394W        W37241  13.338  15.058   3.833  0.2267 -0.0595  0.2915
20395W        W37242  17.430  12.480  11.039  0.0515  0.0247  0.3829
20396W        W37243   6.945   4.746  12.135  0.0541 -0.1837  0.0513
20397W        W37244  15.534   6.018   2.006 -0.2165  0.1641 -0.3424
20398W        W37245   3.530  12.402   4.180  0.1047 -0.1651  0.1548
20399W        W37246  15.907  10.375   1.273 -0.0701 -0.3188  0.1139
20400W        W37247   5.487   3.069  11.915  0.0576  0.0229 -0.0468
20401W        W37248  11.604  16.571   1.863 -0.2433  0.1075 -0.0140
20402W        W37249  10.709  11.569   2.774  0.2233 -0.0751  0.2845
20403W        W37250  16.538   1.723   4.013  0.3212 -0.1677  0.0557
20404W        W37251  17.445   6.610  12.002  0.0554 -0.2053 -0.0621
20405W        W37252  18.799   7.123   1.318  0.0664 -0.1274  0.1678
20406W        W37253   7.711  16.701   4.433 -0.0121 -0.0165 -0.3592
20407W        W37254   3.909  14.263   9.912  0.2743 -0.2126 -0.3019
20408W        W37255  12.189   3.326  11.619  0.0678 -0.0321  0.0559
20409W        W37256  19.014   4.712  10.828  0.0510  0.2828  0.2138
20410W        W37257  14.706  14.690  14.880  0.0723  0.1031  0.1414
20411W        W37258   5.086   4.754   2.324 -0.0254 -0.0304 -0.2843
20412W        W37259   9.101  16.218  11.829  0.2433  0.2734 -0.3006
20413W        W37260  13.809   2.934   0.282  0.1087 -0.0686 -0.0124
20414W        W37261   9.273  15.389  13.830 -0.0163 -0.2920  0.3537
20415W        W37262   9.062  14.410  14.951 -0.2100 -0.1694  0.0203
20416W        W37263  14.685   3.327   4.304  0.1039  0.3449 -0.0664
20417W        W37264  11.427  18.643  11.653  0.1309  0.2574  0.2320
20418W        W37265   2.576  12.411  14.315  0.2969  0.0064 -0.1776
20419W        W37266  13.856  16.666  12.680 -0.1300 -0.0097  0.0269
20420W        W37267   7.292   4.187   3.074  0.0456 -0.1066 -0.5310
20421W        W37268   5.726   9.454  11.425  0.0776  0.4764  0.2256
20422W        W37269  16.035   4.923  11.330  0.1694 -0.3070 -0.0656
20423W        W37270   4.242  17.142   2.928 -0.1652  0.2177  0.1411
20424W        W37271  17.652  12.218   4.643 -0.4211  0.1373 -0.0609
20425W        W37272   3.315  18.238  13.602 -0.1205  0.0592  0.2774
20426W        W37273   2.408   4.143   2.498  0.1881 -0.3436 -0.1403
20427W        W37274  13.969   6.509  12.719 -0.0637 -0.0506 -0.0616
20428W        W37275   0.276   8.489   3.465 -0.3016 -0.1841 -0.0758
20429W        W37276  18.381   1.744  13.216 -0.1911 -0.1475  0.0865
20430W        W37277  18.490   9.603   3.219  0.2571 -0.0118  0.0001
20431W        W37278  19.233   1.175  12.770 -0.2639 -0.2988 -0.2010
20432W        W37279  16.049  13.581  12.951  0.0797 -0.1153  0.2079
20433W        W37280   4.899  16.531   1.236 -0.2752  0.0419 -0.3456
20434W        W37281  11.659  12.315   4.120  0.2259 -0.0494  0.3664
20435W        W37282   0.195  13.392  13.678 -0.1283 -0.1107  0.1843
20436W        W37283  12.138   2.309  12.645  0.0182  0.1185  0.4044
20437W        W37284  14.762  15.292  12.489  0.2891  0.0640 -0.4743
20438W        W37285   3.501  17.814   2.213  0.1119  0.1123 -0.2792
20439W        W37286   0.606  13.659   3.890 -0.1162 -0.1854 -0.0098
20440W        W37287  16.808   9.974   1.338 -0.1578  0.0487 -0.1743
20441W        W37288  16.668   3.079  14.827  0.3907  0.2099  0.0426
20442W        W37289   5.577  16.565   3.122  0.2350 -0.0018 -0.1259
20443W        W37290   0.770   5.008  12.576  0.1299  0.1502 -0.1301
20444W        W37291   8.060   7.916   2.000 -0.1436 -0.0004 -0.0426
20445W        W37292   7.108  16.558   4.420 -0.3800  0.0260 -0.0763
20446W        W37293  12.705   3.861   3.907 -0.2297 -0.0174  0.2259
20447W        W37294  11.366   5.767  15.005  0.0642 -0.3844  0.0375
20448W        W37295  16.659   5.024  10.502  0.2629  0.0017  0.0792
20449W        W37296   6.996  16.108  12.427 -0.2272  0.1573  0.0853
20450W        W37297  18.418   4.852  13.240  0.1742  0.3749 -0.0588
20451W        W37298  16.457  15.786   0.023  0.2315  0.1549  0.6130
20452W        W37299   8.752  16.961  10.622 -0.0470  0.0136 -0.1068
20453W        W37300   9.109   2.330  11.308  0.4124  0.3429 -0.1683
20454W        W37301   9.661   4.372   2.883  0.0768  0.0472  0.0259
20455W        W37302  18.607   5.729  10.803 -0.2951  0.0311  0.1407
20456W        W37303   6.298   5.787  11.951  0.3864  0.0950 -0.2565
20457W        W37304   3.288   7.114   2.538  0.0991  0.2900  0.0215
20458W        W37305   2.976   1.210  12.983 -0.0378 -0.0537 -0.2699
20459W        W37306   4.905   9.525   2.629 -0.1980  0.0624  0.0660
20460W        W37307  16.324  10.024  14.666  0.2894  0.1454  0.0221
20461W        W37308   9.260   3.107  14.769 -0.0610  0.1717  0.0198
20462W        W37309  15.381   1.420  14.109  0.2475 -0.1874 -0.1748
20463W        W37310   8.913  10.776  10.315  0.0123 -0.0270 -0.2153
20464W        W37311  11.250  14.372   1.951 -0.2504  0.0849 -0.0066
20465W        W37312  10.721  18.725  14.859  0.1166 -0.2767 -0.0127
20466W        W37313   4.579   7.219  12.991  0.3760 -0.2058 -0.0241
20467W        W37314   9.269  18.280   0.817  0.0054  0.2233 -0.6442
20468W        W37315   6.125   5.159   4.732 -0.1996  0.1256  0.0702
20469W        W37316  17.637  16.691   3.860  0.0007  0.1134  0.0325
20470W        W37317  15.110  17.508   3.466  0.4234  0.0932  0.0983
20471W        W37318   3.058  10.434   5.476 -0.0683 -0.0051  0.2357
20472W        W37319   6.819  11.542   9.465  0.2556 -0.0355  0.0556
20473W        W37320  14.257   4.414  14.317  0.0533  0.1367 -0.3103
20474W        W37321   6.296   1.851   9.880  0.2825  0.0049 -0.1538
20475W        W37322   0.056  17.209  12.527  0.2368  0.0520 -0.3503
20476W        W37323  13.592  13.595  14.390  0.2406  0.0830 -0.2767
20477W        W37324   6.331  11.724  12.868  0.0936 -0.0637 -0.2948
20478W        W37325  15.677   0.186   3.179 -0.1539 -0.0261 -0.0190
20479W        W37326  18.561  18.111   0.638 -0.1105  0.2225  0.2980
20480W        W37327   0.210  13.384  11.004  0.1006  0.0086  0.0272
20481W        W37328  19.218   8.347  14.648  0.0545  0.2245 -0.0800
20482W        W37329   1.614   5.564   9.573 -0.2145  0.0212  0.0145
20483W        W37330   5.285   7.589  13.623 -0.4112 -0.1494  0.0530
20484W        W37331  15.590  11.025  12.841  0.0982 -0.3328  0.2001
20485W        W37332  13.340  11.861  13.180  0.1280 -0.3010  0.1484
20486W        W37333   9.656  12.744   2.158  0.0956 -0.0329 -0.1850
20487W        W37334   6.260  17.794  10.606 -0.0272  0.0900  0.2788
20488W        W37335  12.579  14.035   3.198 -0.0387 -0.3567  0.0801
20489W        W37336  18.278   0.123  13.796 -0.0950 -0.1199  0.0721
20490W        W37337   9.935  15.967  12.943 -0.1439  0.0239 -0.3753
20491W        W37338   5.824   8.264   2.870 -0.0355  0.1531  0.2122
20492W        W37339  13.840  14.764  13.608 -0.4276 -0.1942 -0.0031
20493W        W37340  11.521  12.070  13.799  0.1131 -0.2036  0.1265
20494W        W37341   1.491  18.831  14.622  0.0424 -0.2446 -0.2068
20495W        W37342   1.270  15.441  10.485 -0.3957  0.0587 -0.2211
20496W        W37343   1.580  11.810   3.866  0.1804  0.0183 -0.1693
20497W        W37344  10.384  16.167  14.404 -0.1813  0.0782 -0.0582
20498W        W37345   1.580   6.211  12.371 -0.0883  0.0592 -0.0892
20499W        W37346   8.625   7.752   3.272 -0.0201  0.1284  0.1864
20500W        W37347  10.066   9.028   1.401  0.0728  0.0254  0.2199
20501W        W37348   2.714   7.196  14.741  0.0041  0.2903  0.2904
20502W        W37349  16.832  12.490  13.190 -0.3753 -0.3650 -0.2705
20503W        W37350   8.726  16.622  11.051  0.2494 -0.3018  0.1952
20504W        W37351  18.493  11.346  12.231  0.0471 -0.1919  0.0082
20505W        W37352  12.492  12.030  13.966  0.3153  0.1806 -0.1447
20506W        W37353   1.404  17.897  12.529 -0.2796 -0.1671 -0.0252
20507W        W37354   9.300   8.404  14.341  0.0453  0.1747  0.1036
20508W        W37355   3.583  12.520   0.821 -0.0295  0.1980  0.0231
20509W        W37356   7.115   1.677  13.781 -0.0551  0.1501  0.0797
20510W        W37357   1.127  13.217  13.901 -0.2051 -0.2172 -0.1037
20511W        W37358  14.263   3.854  14.258  0.3055 -0.0080 -0.2920
20512W        W37359   0.152   8.752  14.405 -0.0401 -0.1766  0.1023
20513W        W37360  17.522  15.403   0.356  0.1680  0.1378  0.0119
20514W        W37361   8.336   1.081  14.809  0.2067 -0.0228  0.1407
20515W        W37362  17.819  12.635  10.695  0.2246  0.1621  0.2213
20516W        W37363  15.408   0.204   1.582  0.1083 -0.1784 -0.2322
20517W        W37364  15.361   5.889   4.691 -0.2444  0.3473  0.0281
20518W        W37365   4.366   5.135  10.833  0.0682 -0.1434 -0.1149
20519W        W37366  13.773   2.465  15.013  0.0522  0.0603 -0.1972
20520W        W37367   7.651   2.567  13.174  0.1679 -0.3434 -0.1183
20521W        W37368  11.189  10.263   3.744  0.1355  0.0453  0.2134
20522W        W37369   8.462  17.437   4.415 -0.0449 -0.1685 -0.1582
20523W        W37370   9.858  16.262   1.312 -0.1047 -0.0645  0.0099
20524W        W37371   4.322   8.435  11.056 -0.2612  0.1810  0.0689
20525W        W37372  11.983  12.841   2.628  0.2506 -0.0205 -0.0328
20526W        W37373   3.886  17.638  14.026 -0.1284 -0.1901 -0.1553
20527W        W37374   1.115  17.480  11.701 -0.1056  0.0234  0.2816
20528W        W37375   6.464  13.023  11.699 -0.2875  0.3211 -0.2154
20529W        W37376  17.079  14.216  10.373  0.1935  0.0669  0.0810
20530W        W37377   9.599   7.623   5.074 -0.0834  0.0408 -0.0510
20531W        W37378   8.487   7.222  13.307 -0.2029 -0.2119 -0.0064
20532W        W37379   9.307  11.174   2.477  0.0829 -0.2425 -0.2278
20533W        W37380  11.176  12.281   1.300  0.1979 -0.2232  0.1390
20534W        W37381   4.956  12.501   4.440 -0.1321  0.0314 -0.2301
20535W        W37382  16.573   1.396   4.418  0.1818  0.1267 -0.3517
20536W        W37383  10.320   1.319   4.663 -0.0250  0.1133 -0.0317
20537W        W37384  13.868   1.143  14.328  0.1597 -0.3112  0.1969
20538W        W37385  14.530   9.848  11.646  0.2737  0.1049  0.1992
20539W        W37386   2.138   1.425  11.251  0.0326 -0.1571 -0.0449
20540W        W37387  13.040   2.579  12.253 -0.0691 -0.2851 -0.3007
20541W        W37388   8.298  16.576   5.280  0.0225 -0.2552 -0.1334
20542W        W37389   8.984  13.640   5.480 -0.0304  0.1106  0.0538
20543W        W37390   0.281   0.511   2.327 -0.2450 -0.2011  0.0589
20544W        W37391  16.628  14.164   4.190 -0.3733 -0.0001 -0.2322
20545W        W37392  13.780  16.002  14.722 -0.3168  0.1512 -0.2827
20546W        W37393   2.451  18.695   5.692  0.2643 -0.3339 -0.1567
20547W        W37394  10.226  12.528   2.829 -0.0519 -0.1542 -0.0881
20548W        W37395   9.305   7.418   0.785 -0.2092  0.1118  0.0592
20549W        W37396   7.215  14.610  10.576 -0.0433  0.0645  0.0372
20550W        W37397   9.000  19.137  10.224  0.1669 -0.1049  0.0664
20551W        W37398   4.661  16.143   0.869 -0.0131  0.0067  0.0607
20552W        W37399   8.373  13.721  11.282 -0.0253 -0.1154  0.3028
20553W        W37400   1.507  16.336  12.891  0.1235  0.5132 -0.2141
20554W        W37401   6.451  19.257  12.498  0.0265  0.2299  0.0284
20555W        W37402  16.866  17.650  13.392 -0.1910  0.2888 -0.0663
20556W        W37403  17.957  14.155  12.554 -0.0152  0.3204 -0.2084
20557W        W37404  15.650  12.710  14.573  0.0659  0.1496  0.0332
20558W        W37405  18.003  15.353   0.484  0.1825  0.2164  0.0188
20559W        W37406  11.026  16.170   2.206 -0.0196  0.4620  0.1369
20560W        W37407  12.678   6.063   3.639  0.3155 -0.0147  0.0176
20561W        W37408  11.240   1.127  14.141  0.2219  0.2572  0.0189
20562W        W37409   9.659   2.264   0.492 -0.0428 -0.0992  0.0234
20563W        W37410  17.739   3.934  12.036 -0.0203 -0.1999 -0.0092
20564W        W37411  14.596   4.887   3.399 -0.0728 -0.0780 -0.2052
20565W        W37412   0.808  16.777   2.894  0.1293 -0.3769  0.0851
20566W        W37413   4.619  15.732   3.113 -0.2161 -0.0690  0.0111
20567W        W37414   0.376  15.660   1.575 -0.1917  0.5129 -0.1218
20568W        W37415   8.521  17.708   2.121  0.0962 -0.1247  0.1174
20569W        W37416   3.258  11.640  12.009  0.1634 -0.3359 -0.0978
20570W        W37417   5.407   2.851  10.399 -0.1391  0.0335  0.0382
20571W        W37418  10.007   3.668  10.432 -0.1224 -0.0620  0.0263
20572W        W37419  11.641   1.297   2.661 -0.0643 -0.1633 -0.2097
20573W        W37420   4.503  17.027   4.254 -0.0877 -0.3159  0.4252
20574W        W37421  15.374   2.331   3.392  0.0023  0.0787  0.1684
20575W        W37422  16.029  17.035  11.058  0.3073  0.0054 -0.0383
20576W        W37423   0.210   7.373  11.643 -0.3566 -0.2591  0.2180
20577W        W37424  10.297  15.122   5.180  0.0045 -0.6795  0.1189
20578W        W37425   2.392   6.267   1.674  0.1947  0.3619  0.0530
20579W        W37426   4.536   3.086  11.430 -0.2120  0.0061  0.3455
20580W        W37427   6.659  12.154  14.303 -0.2655 -0.0926 -0.1726
20581W        W37428   2.981  15.455  14.805 -0.0075 -0.1521  0.5865
20582W        W37429   3.349  11.704   0.924  0.0962  0.1895 -0.2372
20583W        W37430  12.135   9.631  13.326 -0.1302  0.2047  0.1633
20584W        W37431  15.677  16.271   3.164  0.0434 -0.2046  0.1440
20585W        W37432  12.368  12.994  11.232  0.0517  0.0764  0.1116
20586W        W37433  15.830   2.612   2.448 -0.0488  0.3156 -0.4345
20587W        W37434   9.412  10.299  14.307  0.2237 -0.0936 -0.0988
20588W        W37435   5.403  14.883   1.294 -0.0055  0.2827 -0.0827
20589W        W37436  15.909  15.754   1.706  0.2119 -0.0828 -0.1380
20590W        W37437  19.261  16.619   2.335  0.0759 -0.2930 -0.0244
20591W        W37438  19.191   3.553  10.760  0.3916 -0.1820  0.1862
20592W        W37439  15.932   8.410   3.298  0.1069 -0.1858 -0.0548
20593W        W37440   5.623  10.178  13.746  0.0105  0.1467  0.1251
20594W        W37441   8.446  18.307   0.521  0.0048  0.1517  0.0080
20595W        W37442  15.542  14.211  11.909  0.1874 -0.1305 -0.1623
20596W        W37443   3.508  12.159   1.104 -0.1122 -0.0852  0.1874
20597W        W37444  14.961   5.713   1.068 -0.0588  0.0107  0.0611
20598W        W37445   7.714   9.339  12.246  0.1564 -0.1522  0.0168
20599W        W37446   4.455   5.343   1.649 -0.2831 -0.0548  0.0519
20600W        W37447  13.126   0.552   3.130  0.1239 -0.0781  0.1217
20601W        W37448  14.526   6.234  14.078 -0.1386  0.1618 -0.2681
20602W        W37449  18.595   6.595   4.641 -0.1297 -0.1975  0.0664
20603W        W37450   8.760  14.240   0.456  0.0520 -0.1956 -0.0444
20604W        W37451   7.040  16.170   1.571 -0.1053 -0.1762  0.3666
20605W        W37452  11.458   0.211  13.264  0.0922 -0.1504  0.1776
20606W        W37453  10.451  11.304   4.722 -0.1100  0.0245 -0.0063
20607W        W37454  10.673   7.537  12.404  0.0923 -0.0374  0.0372
20608W        W37455   9.399  15.637  10.826  0.4354  0.1648 -0.1579
20609W        W37456   1.305  12.532   2.422 -0.0086 -0.2118 -0.3395
20610W        W37457  14.589   0.360  11.768 -0.2562 -0.0388 -0.0145
20611W        W37458  16.482   6.682   2.456  0.2756  0.1017 -0.2183
20612W        W37459  13.225  18.003   5.387  0.1762  0.3504 -0.3625
20613W        W37460  12.256   4.068  14.523 -0.0820  0.4125  0.0666
20614W        W37461  17.195   9.730   2.836 -0.0812 -0.1844  0.0340
20615W        W37462   8.324   8.700   2.475  0.0178  0.2792 -0.2684
20616W        W37463   2.634  15.114  14.871  0.3006 -0.2382 -0.3056
20617W        W37464   2.191  18.267  12.164 -0.0129 -0.0147  0.0382
20618W        W37465   5.830  12.527  11.213 -0.0331  0.0129  0.1076
20619W        W37466  13.762   3.836   2.594 -0.0054 -0.1734 -0.2824
20620W        W37467  16.308   3.405  12.065 -0.0767 -0.2219  0.1556
20621W        W37468  13.103  13.787   5.426 -0.2355  0.2081  0.0020
20622W        W37469  18.786  16.564  12.239 -0.0218 -0.0850 -0.0145
20623W        W37470   6.086   0.102   0.093 -0.1531  0.0366 -0.1743
20624W        W37471   7.575   7.235   0.057 -0.1062  0.2128  0.0455
20625W        W37472   6.158   4.861  14.193  0.0164  0.2035  0.0841
20626W        W37473  16.460  17.047   5.251  0.0211 -0.0424 -0.1509
20627W        W37474   4.411   5.806  14.451  0.1317  0.0723  0.0150
20628W        W37475   0.202  15.533  11.937 -0.1239  0.1408 -0.3244
20629W        W37476   9.455  10.796  14.219  0.0102 -0.0073  0.0476
20630W        W37477  14.760   5.891  11.880  0.2467  0.0131  0.0687
20631W        W37478   0.985  17.935  14.391 -0.1042  0.0905  0.1158
20632W        W37479  15.392   0.030  12.923 -0.0564  0.2113  0.1563
20633W        W37480  13.367  14.983  10.174  0.3000  0.0669  0.0033
20634W        W37481   5.948   1.330   4.386 -0.0154  0.1596 -0.2647
20635W        W37482   4.484  13.123   4.499 -0.2721  0.2961 -0.0239
20636W        W37483  15.958   2.950  14.669  0.0441  0.1001 -0.0343
20637W        W37484   5.941  15.363   2.607  0.1494 -0.2739  0.1135
20638W        W37485   5.197   5.048  14.502  0.1393 -0.3176  0.1840
20639W        W37486   9.061  16.856  13.945 -0.0937  0.0059  0.1657
20640W        W37487   5.490   1.063   3.145 -0.0489  0.4665  0.0910
20641W        W37488   2.421   9.621   3.034 -0.0832  0.0066  0.4494
20642W        W37489   5.559   7.067  14.983 -0.2183  0.0644  0.0145
20643W        W37490  10.933  19.275   2.545 -0.0555 -0.0473  0.0122
20644W        W37491   6.745  16.477  12.939 -0.0212 -0.1173 -0.1943
20645W        W37492  19.022   4.465  12.030 -0.0489  0.0825  0.0783
20646W        W37493   1.771   9.532  13.248 -0.3172 -0.0279  0.3117
20647W        W37494   5.972  12.081   5.063  0.1284  0.0818  0.1125
20648W        W37495   8.119   8.621   4.317 -0.2859 -0.1042  0.1398
20649W        W37496  15.517   3.673  10.087  0.0744 -0.0062  0.2356
20650W        W37497   9.412  14.623   1.052 -0.0306  0.3164 -0.0383
20651W        W37498   6.818   4.542   4.197 -0.0316 -0.0939  0.5531
20652W        W37499   1.237  15.172  11.365  0.2553  0.1446 -0.1619
20653W        W37500   1.695   5.939  12.922 -0.5635  0.0448 -0.0709
20654W        W37501  17.090  16.837   2.903 -0.1152  0.0361  0.0299
20655W        W37502   6.690   5.483  11.146  0.0261  0.0107  0.0102
20656W        W37503   5.960  12.632   0.667 -0.0968  0.2852  0.1088
20657W        W37504   5.546  17.046   2.877 -0.1918 -0.1991 -0.0605
20658W        W37505   8.203   5.783  13.085  0.3245  0.0306 -0.0415
20659W        W37506   3.534  11.954   4.465  0.3739  0.0329  0.0621
20660W        W37507  12.331  13.763   2.759 -0.2360  0.1286  0.1659
20661W        W37508  17.382   5.966  14.641  0.0856  0.0659 -0.0944
20662W        W37509   6.284   6.141   5.195 -0.3315 -0.2512 -0.0211
20663W        W37510  13.622   7.901   1.796 -0.0156 -0.2309  0.0173
20664W        W37511  10.489  15.540   0.269 -0.0415  0.2174 -0.1115
20665W        W37512   4.619   4.140   3.463 -0.0984 -0.0955 -0.2261
20666W        W37513  15.369  19.081   3.331  0.5561  0.0828 -0.0621
20667W        W37514  16.594   4.384   9.322  0.1880  0.1373  0.2496
20668W        W37515   9.345   1.264   9.917 -0.1384 -0.2044 -0.1527
20669W        W37516   9.071   1.760  14.852 -0.0440 -0.0357  0.0385
20670W        W37517  16.122   0.833  11.840 -0.0537 -0.0653 -0.0431
20671W        W37518   0.963   2.413   0.714 -0.0067 -0.1437 -0.0875
20672W        W37519   0.970   7.850   4.507  0.0338  0.2295 -0.1867
20673W        W37520  18.052   7.518   3.572 -0.0964 -0.1721 -0.1347
20674W        W37521   3.066  12.529   1.840  0.0022 -0.0626 -0.0416
20675W        W37522   6.215   3.542  14.005  0.0740 -0.1343 -0.1667
20676W        W37523   2.016  17.702   1.266  0.3001 -0.1459 -0.3579
20677W        W37524   6.731  15.232  11.263 -0.0723 -0.0462 -0.0664
20678W        W37525   4.083   8.160   3.388  0.1062 -0.0435  0.1611
20679W        W37526   9.150   8.392  11.356  0.0109 -0.0930  0.2848
20680W        W37527  16.865   4.867  10.936 -0.0388  0.1383  0.0661
20681W        W37528   2.078  14.092   3.228  0.3867 -0.0133 -0.2407
20682W        W37529  15.763  17.110   0.359 -0.0230  0.0767  0.0452
20683W        W37530   7.261  11.141   1.545  0.0908 -0.2180 -0.0236
20684W        W37531   2.844  17.354   2.573 -0.0198  0.2034 -0.0636
20685W        W37532   9.310   9.491  12.259  0.0535 -0.2429  0.0532
20686W        W37533  16.550   6.638  14.076 -0.4057  0.1122  0.0638
20687W        W37534   8.431  12.597   4.615 -0.1073 -0.1000 -0.2136
20688W        W37535   3.694   7.918   1.064 -0.0438 -0.1118  0.3347
20689W        W37536  14.191  11.494   2.870  0.0216 -0.0356 -0.3876
20690W        W37537  13.720   7.328   0.072 -0.0650  0.1399 -0.2163
20691W        W37538  18.120   5.910   5.531  0.4339 -0.0094 -0.3670
20692W        W37539   6.457   9.590   0.908  0.3365  0.1850  0.0026
20693W        W37540   7.710   6.766  10.173 -0.2473 -0.1954 -0.0242
20694W        W37541  14.471   6.204   3.776 -0.0457 -0.1618 -0.2618
20695W        W37542   2.632  16.301  10.173  0.1573 -0.0841 -0.1705
20696W        W37543  17.080   0.188  11.067 -0.0712 -0.2273 -0.0252
20697W        W37544  17.363   4.133  12.335 -0.1901 -0.5405  0.1217
20698W        W37545   2.878   3.501  10.676 -0.1133  0.0861 -0.2191
20699W        W37546  14.956   5.763  14.202  0.0416  0.0265 -0.0040
20700W        W37547  15.135   8.020   3.630 -0.2897 -0.0829 -0.1704
20701W        W37548  17.851  13.394   0.044  0.0197  0.0044 -0.1975
20702W        W37549   6.735   3.502   5.169  0.1754 -0.0158  0.5707
20703W        W37550  16.064  13.819   0.895 -0.1281  0.0125  0.2122
20704W        W37551  17.536   0.792  13.153  0.1357  0.1739 -0.0739
20705W        W37552   2.684  14.931   4.602 -0.0010 -0.2629  0.1180
20706W        W37553  10.324   0.569  10.807 -0.1378  0.0810  0.1241
20707W        W37554   3.965  10.524  14.108 -0.0086  0.0538  0.3448
20708W        W37555  14.351  16.805  14.560 -0.1800  0.0899 -0.1781
20709W        W37556   7.897  18.654   2.444  0.0632  0.1074  0.3279
20710W        W37557   4.467  10.014   4.455 -0.0068 -0.2208  0.3080
20711W        W37558  15.830   8.553  14.832 -0.0378 -0.2778  0.5890
20712W        W37559  17.966  16.456  11.859 -0.3116  0.4721 -0.0511
20713W        W37560  13.635   7.430   4.945 -0.0004  0.0031  0.1677
20714W        W37561   5.678  18.129  12.302  0.0697 -0.2300  0.0247
20715W        W37562   0.866   8.271  11.681 -0.0783  0.0073 -0.1740
20716W        W37563  17.684   9.972  14.780  0.0574  0.2648 -0.0662
20717W        W37564   6.732   8.711  10.820 -0.0495  0.2078  0.1198
20718W        W37565  13.895  11.495  12.355  0.3810 -0.4090 -0.0561
20719W        W37566  10.334  18.687  10.907  0.1563 -0.1845 -0.0547
20720W        W37567  12.624   7.716   0.524  0.2504 -0.2225  0.1042
20721W        W37568  15.464  16.456   1.791 -0.3520  0.2614  0.3023
20722W        W37569  14.159   6.629   3.932 -0.2538  0.2858 -0.0851
20723W        W37570  17.411   7.554  12.016 -0.1643  0.1351 -0.2552
20724W        W37571   5.260  17.233  14.996 -0.0647 -0.0654 -0.0884
20725W        W37572   2.967  16.652   2.040  0.2255  0.3569 -0.3620
20726W        W37573   8.575   8.136   1.476  0.1683  0.1656 -0.1812
20727W        W37574  19.194   9.233  11.936  0.3702  0.1265  0.0063
20728W        W37575  11.447  10.835  10.311 -0.2786  0.2282  0.0523
20729W        W37576  13.876   1.970   1.237 -0.1993  0.1158 -0.3577
20730W        W37577  11.940  10.978  13.489  0.0065  0.1128 -0.3677
20731W        W37578   5.342  14.916  10.537  0.0630  0.1249  0.2328
20732W        W37579   7.912   8.078   2.884 -0.1356  0.0919 -0.4141
20733W        W37580   9.222   8.151   1.368 -0.0999  0.0896  0.0256
20734W        W37581   6.057  17.799   2.555 -0.0108  0.0627 -0.0233
20735W        W37582   1.373  13.872   1.531  0.1306  0.1924  0.1345
20736W        W37583   8.751   0.215  14.310  0.0802 -0.2518  0.0851
20737W        W37584  17.400  19.142   0.241 -0.0824 -0.0546 -0.0145
20738W        W37585  14.159   9.073  10.689 -0.4858 -0.0094 -0.0645
20739W        W37586  11.237   4.390  14.535  0.2681  0.2893  0.1212
20740W        W37587   5.715   4.097   9.493 -0.0556 -0.2281  0.1625
20741W        W37588  16.244  11.406   1.369 -0.0012 -0.1642 -0.1402
20742W        W37589   5.803   1.954  12.298  0.1261  0.2973  0.0530
20743W        W37590  14.168   9.271   4.109  0.1684  0.3191 -0.1489
20744W        W37591   7.429  11.549   0.907 -0.4743 -0.1170 -0.0335
20745W        W37592  13.071  12.059  14.026  0.1820 -0.2131 -0.1831
20746W        W37593   9.321  17.269  13.749  0.2338  0.1607 -0.0658
20747W        W37594  16.335  18.989   1.662 -0.2006  0.2251  0.2314
20748W        W37595   1.217   5.035   5.002 -0.0157  0.2493  0.0588
20749W        W37596   8.756   0.808   1.495  0.1996 -0.1796 -0.0344
20750W        W37597   3.236   4.199  10.701 -0.1324  0.1175  0.1866
20751W        W37598   0.241  16.656  13.166 -0.0308  0.0049  0.1578
20752W        W37599   2.946  10.148   0.510 -0.3170  0.0942 -0.0325
20753W        W37600  16.592   2.466  13.688  0.1647  0.2676  0.4453
20754W        W37601  15.112  13.934  11.917  0.2092  0.2558  0.3081
20755W        W37602  18.040   6.595   4.794 -0.0664  0.3325  0.0176
20756W        W37603   9.741   0.525   4.372  0.3322 -0.4834 -0.0649
20757W        W37604   8.843   1.514  11.117  0.2371 -0.1606  0.1559
20758W        W37605   4.925   9.250   4.562 -0.1276  0.1595 -0.1398
20759W        W37606  15.479   6.948  10.245 -0.0073 -0.0039  0.0367
20760W        W37607   6.696   6.364   2.165 -0.1900 -0.3092 -0.0390
20761W        W37608  13.105   1.279  11.556  0.0054 -0.1220 -0.2164
20762W        W37609   8.440  13.724  10.352 -0.0381 -0.2026  0.0902
20763W        W37610   1.683  12.940  14.594 -0.0096  0.2776 -0.1670
20764W        W37611   3.293   1.162  10.678  0.1355  0.1223 -0.0619
20765W        W37612   7.367  12.197  11.106  0.2223  0.3109  0.1058
20766W        W37613   1.848  16.682  12.614 -0.0223 -0.0868  0.3095
20767W        W37614  16.358   4.475  13.787 -0.0456 -0.0044  0.2540
20768W        W37615   2.720   9.355   5.524  0.0886  0.1641 -0.1540
20769W        W37616   7.993  15.271  13.763 -0.3294 -0.0032  0.1563
20770W        W37617   4.383   5.619   3.028  0.1433 -0.2583 -0.0644
20771W        W37618  17.787  18.055  12.208 -0.1043  0.1500  0.0225
20772W        W37619  16.492   0.514   2.292 -0.2316 -0.0448 -0.2728
20773W        W37620   4.287   6.118   4.144 -0.1840 -0.1349  0.3920
20774W        W37621   8.953  16.119   4.139 -0.0854 -0.3225  0.0743
20775W        W37622   0.582  15.853  11.037  0.0191  0.0679 -0.0040
20776W        W37623   6.893   9.000  10.389  0.0978  0.1290  0.2917
20777W        W37624   9.916   5.018  12.009  0.1031  0.0604 -0.1450
20778W        W37625  16.537  10.447   4.166  0.0779  0.2807 -0.0503
20779W        W37626  18.467   5.328  11.125  0.1568 -0.2700  0.2618
20780W        W37627  16.490  14.721  12.287  0.2527  0.1260 -0.1257
20781W        W37628   3.891   6.041   5.549  0.0717  0.0729  0.1142
20782W        W37629   5.753   6.329  10.765  0.4841  0.0655  0.0123
20783W        W37630   9.168  13.793   4.301 -0.1108  0.1296  0.3271
20784W        W37631  18.481  18.119  11.301  0.3587  0.2691  0.2560
20785W        W37632   2.952   9.387  12.828 -0.0109 -0.1551  0.0766
20786W        W37633  14.416  15.149  12.055 -0.0281  0.1131 -0.0237
20787W        W37634  11.025   2.781  13.434  0.2278 -0.0410 -0.4976
20788W        W37635   2.556   8.293  14.170  0.5160 -0.0302  0.0237
20789W        W37636   2.660  17.731   2.290  0.1842  0.1029 -0.0138
20790W        W37637   0.584  14.341  12.768 -0.0621  0.0354  0.0156
20791W        W37638  13.127   4.112  12.787  0.1960 -0.0274 -0.0005
20792W        W37639   8.985  14.178   5.460  0.0644  0.1696  0.0816
20793W        W37640   3.600   8.585  14.347 -0.3397  0.0192 -0.1478
20794W        W37641  15.640  14.173   0.739  0.3153  0.0242  0.0456
20795W        W37642  14.082   6.816   3.474  0.0861  0.0735 -0.1252
20796W        W37643   0.911   5.495  12.636  0.1161 -0.0166 -0.2188
20797W        W37644  15.189   1.676   3.209  0.0703  0.1287 -0.1949
20798W        W37645   8.834   1.647   4.201 -0.0344 -0.1705 -0.2647
20799W        W37646  10.224   7.626  12.495 -0.0326 -0.1650 -0.1645
20800W        W37647   5.233  18.620   2.874  0.1649 -0.0103 -0.2788
20801W        W37648  15.523  14.318  11.187  0.1694 -0.1010  0.1560
20802W        W37649   6.672  14.263   4.169  0.0400 -0.0755  0.0911
20803W        W37650   1.751   0.219   0.029 -0.0657 -0.1465  0.0470
20804W        W37651  12.402   9.697   3.489 -0.0651  0.1764 -0.0609
20805W        W37652   4.657   1.419   2.236 -0.1828 -0.0154  0.0046
20806W        W37653   0.018  10.744   1.434  0.3186  0.2761 -0.2385
20807W        W37654   0.055  18.592  13.783  0.0806 -0.1375 -0.0616
20808W        W37655   3.266   9.303  12.319 -0.2896  0.0917 -0.2099
20809W        W37656  18.481  17.465  14.790 -0.2424 -0.0269  0.0602
20810W        W37657  12.480   9.215  14.006 -0.1568  0.0628  0.1365
20811W        W37658   5.323   2.412   0.938  0.2194  0.1724 -0.1693
20812W        W37659  10.237   2.306  11.978 -0.1646 -0.0548 -0.1827
20813W        W37660   4.195  14.374  11.949 -0.3004 -0.0932  0.0321
20814W        W37661  17.473   1.432   3.664  0.0984 -0.0284  0.2661
20815W        W37662   9.572  11.365  10.210  0.0192  0.2068 -0.1346
20816W        W37663  16.497  12.843  14.116  0.1363 -0.2321 -0.0675
20817W        W37664   7.855   8.495  14.857  0.1134  0.0013  0.2033
20818W        W37665  13.725  17.861  13.848 -0.3555  0.5195 -0.1324
20819W        W37666  14.761   1.741   3.520  0.0484 -0.1801  0.2409
20820W        W37667  16.334   9.959   1.110  0.0666  0.0380  0.0974
20821W        W37668   9.671  11.250   0.364 -0.0007 -0.1502  0.0984
20822W        W37669  19.146  19.268  11.212  0.1209 -0.1981 -0.1530
20823W        W37670   3.195  14.067   1.805 -0.1477  0.0999  0.0492
20824W        W37671  17.682  17.301  14.095  0.0321  0.3144 -0.0686
20825W        W37672  15.064  11.183   2.533  0.2297 -0.1581  0.1260
20826W        W37673  16.654   5.692   0.009  0.1679 -0.0178 -0.0943
20827W        W37674  18.337   9.179   0.483  0.2488  0.2386  0.1601
20828W        W37675  12.904   8.023  13.959 -0.1744 -0.0458  0.0320
20829W        W37676   0.571  10.892   4.191  0.0112 -0.2267  0.0236
20830W        W37677   7.239   4.140   3.587 -0.0597  0.1349  0.0027
20831W        W37678   1.800   7.763  14.960  0.0188 -0.0264  0.1444
20832W        W37679   6.205  18.687  12.961  0.1599 -0.0573 -0.1569
20833W        W37680  18.374   8.849   0.829 -0.0103  0.2695 -0.2095
20834W        W37681   6.064   1.592  14.787  0.1766  0.2979 -0.3875
20835W        W37682  17.900  12.561   1.910 -0.0696 -0.1096  0.1936
20836W        W37683  17.660  13.420   1.924 -0.1098  0.4098  0.1166
20837W        W37684   9.895   2.347  13.746 -0.0599  0.4154 -0.0767
20838W        W37685   3.860   4.160   1.908 -0.1576  0.0710  0.2027
20839W        W37686  11.727   8.003  10.356  0.0456  0.0604  0.0869
20840W        W37687   8.966   6.847   2.177 -0.2882  0.0677 -0.1251
20841W        W37688  11.779  14.960   0.217 -0.0905 -0.0528 -0.0616
20842W        W37689  12.769   3.837  13.662 -0.3907 -0.1428 -0.0164
20843W        W37690   0.840   0.049   4.363 -0.1824  0.0952 -0.2524
20844W        W37691  10.361   0.672   3.801  0.0723  0.1705  0.1240
20845W        W37692   8.032   9.012   0.596 -0.1784 -0.0582  0.0512
20846W        W37693   9.600   7.830   3.449  0.0411 -0.0278 -0.1163
20847W        W37694  16.804   1.463  13.949  0.1882 -0.0235  0.3984
20848W        W37695   1.435  12.676  13.219 -0.2392  0.2830 -0.1608
20849W        W37696   1.129   3.350   2.532  0.0477 -0.4224  0.1673
20850W        W37697  15.883  11.727  10.091  0.1715 -0.1303  0.0063
20851W        W37698  12.782   6.420   9.614 -0.0795  0.2671  0.0364
20852W        W37699   8.974   7.820   4.238 -0.2321  0.1139  0.1903
20853W        W37700  13.013  17.198   4.065  0.1922 -0.0856  0.2292
20854W        W37701   7.170   3.851  14.522  0.0838 -0.1545  0.1588
20855W        W37702   4.049   8.049   0.210 -0.1807  0.0159 -0.1398
20856W        W37703  18.879   3.919  13.114 -0.0469 -0.0879  0.1627
20857W        W37704   1.119  17.276  13.110 -0.0973 -0.0029 -0.0203
20858W        W37705  12.160  11.741  14.298  0.2044 -0.0516  0.0153
20859W        W37706  19.240  19.152   4.096 -0.0811  0.0025  0.1232
20860W        W37707  13.532  10.918   2.923  0.5132  0.0434  0.0562
20861W        W37708  13.113   6.103   0.420  0.1824 -0.1964  0.2282
20862W        W37709   8.775  13.851   5.084  0.4569  0.2611  0.1174
20863W        W37710  11.891   9.478  10.659  0.0176 -0.0551 -0.0769
20864W        W37711   7.865   2.480   2.693  0.3252  0.0150  0.1987
20865W        W37712  12.132  14.454   1.606 -0.0051 -0.1593 -0.0883
20866W        W37713  17.798   2.835   2.436 -0.0565 -0.0594  0.0133
20867W        W37714  14.642   0.905  11.891 -0.3330 -0.2743 -0.0105
20868W        W37715  13.355   2.877   4.054 -0.4407 -0.1747  0.0034
20869W        W37716   4.989  10.779  13.828  0.1862 -0.0167  0.2322
20870W        W37717   2.851   3.080  13.771  0.2511 -0.2245 -0.2534
20871W        W37718   9.307  18.847   1.610 -0.3728 -0.1492  0.0977
20872W        W37719  12.858   4.701  14.919  0.1852  0.0873  0.1461
20873W        W37720   5.747  14.272  12.615 -0.3285 -0.0496  0.3539
20874W        W37721  14.346   2.119   3.042  0.0187  0.2537  0.0233
20875W        W37722  13.151   8.115  13.164 -0.2080  0.1006 -0.0574
20876W        W37723   4.891  15.846   4.950  0.0024 -0.1623 -0.0139
20877W        W37724   1.109   2.809   4.444  0.0871  0.1983  0.3155
20878W        W37725  17.878   8.259   4.032  0.1975 -0.1272  0.1226
20879W        W37726   9.520   5.619  13.253  0.0316  0.0256  0.2909
20880W        W37727  12.819   5.357  13.273 -0.2020  0.0165 -0.1891
20881W        W37728   6.625  11.008   2.136  0.0490 -0.1577 -0.0469
20882W        W37729   0.519  12.720  14.992  0.0088 -0.0550  0.0389
20883W        W37730  16.798   8.901  11.395 -0.1484 -0.0961  0.0528
20884W        W37731  11.799  16.883   2.985  0.3329 -0.2094  0.1433
20885W        W37732  17.615  19.262   5.243  0.1050  0.0617  0.2042
20886W        W37733  19.187   9.327   2.983 -0.0351 -0.0123 -0.0956
20887W        W37734   7.958   5.967  12.144  0.1974  0.0543  0.0215
20888W        W37735   3.027   7.070   3.312  0.3024 -0.1584 -0.1797
20889W        W37736   6.892   1.497   0.303 -0.1190  0.0959 -0.0361
20890W        W37737   7.049  16.913  11.970  0.3199 -0.1003 -0.1164
20891W        W37738  13.282   1.955   6.054  0.1932 -0.2662  0.0628
20892W        W37739  11.622   7.017   1.424  0.0696  0.1596 -0.0904
20893W        W37740   8.332  17.302   0.027 -0.2417 -0.0718 -0.1495
20894W        W37741   2.525  10.131   2.960  0.2795 -0.0609 -0.1657
20895W        W37742  14.556  17.751   0.515  0.1006  0.0771 -0.1233
20896W        W37743   7.254  14.678   3.055 -0.1006  0.1836  0.2003
20897W        W37744   0.212   7.610   1.277  0.4441 -0.2374 -0.2100
20898W        W37745  14.055   1.968  11.735  0.2842 -0.1065 -0.3909
20899W        W37746   0.598   4.439   4.232  0.2254 -0.0572 -0.1719
20900W        W37747  15.312   5.517  13.402 -0.0467 -0.1242 -0.1196
20901W        W37748  15.720   9.774   3.721 -0.3963  0.1339  0.2494
20902W        W37749   4.819  15.874  13.371 -0.0449  0.2075 -0.4017
20903W        W37750  12.724  13.620   3.330 -0.1355  0.0841 -0.1200
20904W        W37751   4.769  12.914   4.106 -0.1488  0.2774  0.0245
20905W        W37752   2.575   4.962  14.083  0.1919 -0.0129  0.0568
20906W        W37753   5.824  15.844  11.877 -0.0446  0.0740  0.0177
20907W        W37754   3.309  12.738  11.687 -0.0071  0.0170  0.3890
20908W        W37755  13.194   8.677   1.908  0.1418 -0.2095 -0.3656
20909W        W37756   8.559   3.657  11.916  0.0899 -0.0695 -0.1856
20910W        W37757   9.930  13.090   3.947  0.0611 -0.1463 -0.1679
20911W        W37758   0.664  18.288   5.213  0.0750  0.1649  0.0652
20912W        W37759   5.554   5.256   1.750  0.1979  0.0275  0.0051
20913W        W37760  16.292   2.577  14.179 -0.2603  0.0303  0.1246
20914W        W37761  14.212  12.279   1.543  0.2710 -0.0397 -0.2693
20915W        W37762   7.524  14.327  11.848 -0.0190 -0.3694 -0.0207
20916W        W37763   0.121   8.138   1.243 -0.0994  0.0097  0.0532
20917W        W37764  14.857  13.790   0.200  0.1219 -0.1453  0.0528
20918W        W37765  18.392   2.291   2.594 -0.3625  0.2122 -0.1755
20919W        W37766  17.821   7.377   0.208 -0.1927  0.0106 -0.2028
20920W        W37767   7.573  11.449   2.337  0.0369  0.2056 -0.2647
20921W        W37768   9.472   4.167   9.791 -0.1089 -0.1048 -0.3537
20922W        W37769  18.770  13.630   1.283 -0.1251  0.0112 -0.0018
20923W        W37770  15.760   6.072   4.420 -0.0386  0.1725 -0.0159
20924W        W37771  13.353  15.018  14.936 -0.1677 -0.1858  0.1355
20925W        W37772   6.611  10.160  10.746 -0.1817  0.2778 -0.1606
20926W        W37773  10.043   2.794  11.355 -0.0093 -0.0543 -0.0219
20927W        W37774   7.018  10.127   3.623 -0.0841 -0.2812  0.0085
20928W        W37775  12.133  18.428  14.001 -0.1601  0.2517  0.1018
20929W        W37776  17.774  16.409   2.145 -0.1471  0.2358  0.0064
20930W        W37777   4.657   5.534   5.374 -0.0173 -0.0300 -0.0663
20931W        W37778   8.028   2.460   5.641  0.2429  0.0788  0.2418
20932W        W37779  17.561  16.773  14.162  0.0017  0.0140  0.0430
20933W        W37780   3.864   1.078  11.822 -0.3133  0.1851  0.0001
20934W        W37781   0.513  14.213   4.018  0.1507 -0.3586  0.1930
20935W        W37782  17.192   7.496   4.364 -0.0510  0.0955  0.1842
20936W        W37783   8.596   1.418  13.942  0.0772 -0.1349  0.0118
20937W        W37784  12.934   2.847  11.907  0.0987  0.0558  0.0480
20938W        W37785   6.038  15.567   4.004 -0.0814  0.0700 -0.1887
20939W        W37786   7.145  18.418   2.091 -0.1671  0.1712  0.2787
20940W        W37787  15.918   2.850  10.275  0.0096 -0.2062  0.1185
20941W        W37788  17.435   5.479  12.441  0.0626  0.3531 -0.0276
20942W        W37789  16.247   4.111  11.439 -0.1574 -0.0391 -0.0008
20943W        W37790  14.796   3.251   1.463 -0.2375  0.2115  0.1159
20944W        W37791  17.199  11.092   2.553  0.2725 -0.0725  0.0169
20945W        W37792  15.936  15.533  14.964  0.2242  0.0188 -0.0779
20946W        W37793  15.787   8.930   2.116  0.1719 -0.2746 -0.0379
20947W        W37794  17.851   2.930   1.551 -0.0990  0.1901  0.0410
20948W        W37795   1.883   1.021   1.684  0.0288  0.0323  0.0162
20949W        W37796   6.989  15.011   0.190  0.2947  0.2862 -0.0294
20950W        W37797   1.273  12.314  10.516  0.1056  0.2459 -0.0709
20951W        W37798  16.355   1.639  14.341 -0.2270  0.0587  0.2994
20952W        W37799   4.980   2.920   5.281 -0.1221  0.0096  0.2812
20953W        W37800  18.856   6.654  14.587  0.0372  0.0461  0.2114
20954W        W37801  11.751   9.030  13.801  0.2607 -0.0831  0.2012
20955W        W37802  14.989   4.449  12.621  0.0299  0.0643  0.0929
20956W        W37803  10.899   1.148   2.002  0.2379 -0.1939 -0.0380
20957W        W37804  16.753  10.622   0.024 -0.0822 -0.1513  0.0603
20958W        W37805   3.626   2.006   5.616 -0.1432 -0.2332  0.0341
20959W        W37806   3.263   6.889   2.099 -0.3159  0.0078  0.1433
20960W        W37807  10.237   6.639  12.384 -0.0070  0.0128  0.2665
20961W        W37808  13.435  11.614  10.657  0.1198 -0.2528 -0.0951
20962W        W37809   4.666  12.727   4.854  0.0524 -0.0483 -0.2674
20963W        W37810  18.261   8.921   2.199  0.1402  0.0540 -0.2890
20964W        W37811   4.104   3.340  12.176 -0.0527 -0.0345 -0.1096
20965W        W37812  10.481  18.576  13.156  0.5570 -0.2077  0.1552
20966W        W37813   8.201  14.522   2.617  0.3361  0.1706 -0.0633
20967W        W37814   6.459   1.278  14.376  0.2927  0.1024 -0.1275
20968W        W37815   5.707  14.246  13.409  0.2729 -0.0922 -0.0944
20969W        W37816   3.043   8.361   3.882 -0.0626  0.3272 -0.1052
20970W        W37817   8.207  17.081   1.464  0.0765 -0.0408  0.2198
20971W        W37818  17.508  12.964  14.461 -0.1361  0.1354 -0.0424
20972W        W37819   4.644   9.732  12.560  0.1169  0.0673  0.1070
20973W        W37820  18.286   2.917  12.984 -0.1444 -0.1016  0.0560
20974W        W37821   3.739   3.896   4.400 -0.0527  0.1597  0.0640
20975W        W37822   1.752  18.525  11.684 -0.0946  0.0420  0.1296
20976W        W37823   2.090  16.355  12.254 -0.0253  0.1554  0.2356
20977W        W37824   2.605   7.788   2.892 -0.0931  0.2703 -0.2408
20978W        W37825  18.748   1.894  11.241  0.1322 -0.0850 -0.0497
20979W        W37826   7.537   1.572   1.068  0.0227  0.0002 -0.1256
20980W        W37827  19.062   9.832  13.747  0.0460  0.1049 -0.0953
20981W        W37828   5.749  14.937   2.529  0.0407  0.1533 -0.3322
20982W        W37829  10.850  13.025  14.449  0.0531  0.1045  0.0716
20983W        W37830   4.612  15.577   0.097 -0.0200 -0.1646  0.0517
20984W        W37831  14.507  11.036   2.884  0.5270  0.1174 -0.1781
20985W        W37832   8.427  16.784  14.773  0.0584 -0.0334  0.0084
20986W        W37833  11.255   6.007   2.265  0.1332  0.4018  0.0954
20987W        W37834  11.662   5.957   1.506 -0.2408 -0.0987 -0.1655
20988W        W37835  15.779   2.687  11.050  0.3158 -0.5425 -0.0971
20989W        W37836  12.403   0.406  12.519 -0.0538 -0.2980 -0.0452
20990W        W37837   9.100   9.076   4.197 -0.0813 -0.0551  0.0245
20991W        W37838  12.666  13.871  14.272  0.1091  0.1030  0.0898
20992W        W37839  17.393  17.664   2.801 -0.4118  0.1093  0.1428
20993W        W37840   5.362  12.390  12.292  0.1689  0.0043  0.1284
20994W        W37841   9.648   3.705   0.097 -0.1570 -0.1242  0.1385
20995W        W37842   5.603   5.703  14.353 -0.0292  0.0564  0.1551
20996W        W37843   8.043   2.870  11.720 -0.1679 -0.0196 -0.2590
20997W        W37844   1.601   1.916   3.247 -0.2150 -0.0590  0.0169
20998W        W37845   5.721   7.843  14.427  0.3164 -0.1181  0.2334
20999W        W37846   3.694   9.434   4.504  0.0571  0.4348  0.3557
21000W        W37847   6.604  11.756   0.459 -0.0362  0.1028  0.0646
21001W        W37848  15.177   5.136  10.761  0.0677  0.2857 -0.0425
21002W        W37849   5.502   7.570   2.554  0.2788 -0.0293 -0.4652
21003W        W37850   5.808   9.319  12.790  0.1070  0.0339 -0.0825
21004W        W37851  16.035  17.475   4.231  0.0821  0.3472  0.2629
21005W        W37852   6.811  11.341  10.130 -0.0463 -0.2756 -0.0972
21006W        W37853  17.278   1.585   2.916  0.2178  0.3111  0.0581
21007W        W37854   6.832  11.954   5.189 -0.3324  0.0728  0.0078
21008W        W37855   3.142  13.059  14.693  0.0720  0.2163  0.0751
21009W        W37856   3.882  10.264   2.918 -0.3124  0.3093  0.0570
21010W        W37857   1.119  12.422  12.844  0.0466 -0.0015 -0.0931
21011W        W37858   6.001   1.861  10.927 -0.1014  0.0649  0.0190
21012W        W37859  17.048  12.028   3.841 -0.2874  0.0231  0.0680
21013W        W37860  16.501  12.787   1.943 -0.0973  0.2483 -0.0525
21014W        W37861   1.901   5.215   4.370 -0.1610 -0.1530 -0.2572
21015W        W37862  13.461  14.328  14.321  0.1266  0.0251  0.0154
21016W        W37863  17.561   0.272   0.998 -0.2318  0.2060 -0.0636
21017W        W37864  13.703  11.407   2.907 -0.2542  0.0630  0.0418
21018W        W37865   3.035   0.405   0.161  0.1346 -0.0990 -0.0526
21019W        W37866  10.654   2.942  10.675  0.0931 -0.5250  0.2232
21020W        W37867  18.725  18.334  13.219  0.0934  0.1630  0.1830
21021W        W37868  13.764  15.295  13.418  0.0385 -0.2883 -0.2131
21022W        W37869  13.458  12.539  10.762 -0.1903 -0.0490  0.2695
21023W        W37870   1.523   4.008  13.879 -0.2386 -0.1924  0.4131
21024W        W37871  18.591  18.235   2.473 -0.0904  0.1072 -0.0437
21025W        W37872   4.984   5.508   1.040 -0.1293  0.1385  0.0911
21026W        W37873  14.514   5.383   3.276 -0.1688  0.0154  0.0022
21027W        W37874  17.017  18.872  14.077 -0.4036  0.0220 -0.2120
21028W        W37875  12.095  12.335  11.249 -0.0820  0.1969 -0.2264
21029W        W37876  14.423   5.711   3.952 -0.0047 -0.1252  0.0611
21030W        W37877   5.638  19.037  12.093 -0.0476 -0.0906  0.0821
21031W        W37878  11.170  15.018  11.223 -0.2339  0.1983  0.1363
21032W        W37879   9.183  12.633  10.440  0.1002 -0.1231  0.0524
21033W        W37880   8.607   1.444  11.922 -0.2486 -0.4482  0.0202
21034W        W37881  15.263   1.807  11.422 -0.3956  0.0074  0.1053
21035W        W37882   0.861  17.128  11.337  0.1913  0.1353 -0.4071
21036W        W37883   4.688   8.778  10.811  0.0145  0.1018 -0.5433
21037W        W37884   1.364   0.968  14.589  0.0907 -0.2172  0.3914
21038W        W37885   6.594   5.975   0.869  0.0101  0.4798  0.0270
21039W        W37886   5.000   8.886   1.370 -0.2711 -0.0722  0.4038
21040W        W37887   0.042   9.259  11.440 -0.0995  0.1661  0.0216
21041W        W37888   0.277  15.841   2.214  0.2045  0.1283 -0.1021
21042W        W37889  13.746  13.819   5.156  0.1852 -0.2050 -0.0220
21043W        W37890   0.445  13.835   4.383 -0.1520  0.2683  0.3805
21044W        W37891   5.584   4.022  10.468  0.2719  0.1193  0.0879
21045W        W37892   4.678   1.911  10.792 -0.4375 -0.2265  0.0780
21046W        W37893   8.279   4.214   2.145  0.1997 -0.3663 -0.1746
21047W        W37894  12.996   3.460   3.060 -0.0887  0.0786  0.3912
21048W        W37895  13.292  10.925   2.020  0.1669  0.5198  0.0264
21049W        W37896  11.633   6.656   2.810 -0.2004 -0.4852  0.1417
21050W        W37897   0.579   0.736   1.276  0.0377 -0.2503  0.2766
21051W        W37898  10.069  12.662   3.723  0.1454  0.0749 -0.1148
21052W        W37899   3.427  17.270   1.388 -0.0450  0.2272 -0.0945
21053W        W37900  18.238   9.859  14.804  0.0500  0.1159 -0.0461
21054W        W37901   3.786   7.663  14.348  0.1718 -0.2841 -0.0936
21055W        W37902  14.668   5.747   3.001  0.1425 -0.4443 -0.2107
21056W        W37903  11.663   1.344   4.433 -0.1125  0.1461  0.0703
21057W        W37904   5.148   5.285   0.412 -0.0290 -0.2776  0.1352
21058W        W37905   9.459   4.083   0.872 -0.0534  0.0226 -0.2950
21059W        W37906   4.091   3.822   1.550 -0.0285  0.0065  0.1382
21060W        W37907   7.419   5.885   3.901 -0.0480  0.0714  0.0285
21061W        W37908   6.637  16.537   3.191 -0.3999 -0.1345 -0.1285
21062W        W37909  18.386   3.004   5.167 -0.5859 -0.0115  0.0666
21063W        W37910  16.904   3.778   1.451 -0.0359  0.2703  0.3095
21064W        W37911   9.147   6.329  11.384  0.4249 -0.1265 -0.0353
21065W        W37912   5.097  14.135  14.947 -0.3336  0.1090 -0.0830
21066W        W37913  16.128  15.127   4.589 -0.2718  0.1297  0.3999
21067W        W37914   5.946  11.381   0.782 -0.0570 -0.2482  0.0531
21068W        W37915   0.804   4.221  10.171 -0.6163 -0.0832 -0.0712
21069W        W37916   0.089   6.164  10.980 -0.0416  0.0507 -0.2403
21070W        W37917  17.647   3.403  14.305  0.2539 -0.2834 -0.0467
21071W        W37918  15.063   8.420  14.473 -0.2053 -0.0438 -0.1082
21072W        W37919  13.972  18.984  13.015  0.1153 -0.1470  0.0234
21073W        W37920   6.720  14.429   4.667  0.1881 -0.3063  0.0955
21074W        W37921  18.986  17.670   3.025  0.0460 -0.0578  0.1383
21075W        W37922  18.501   6.089   0.932 -0.2799  0.1203  0.0607
21076W        W37923   4.007   7.774  13.264 -0.2859  0.2932 -0.1140
21077W        W37924   7.686   4.336   0.979  0.1540 -0.1977 -0.1942
21078W        W37925   9.085  18.575  13.948 -0.2801 -0.0384 -0.2142
21079W        W37926  17.195   9.921  12.499  0.2138 -0.1112 -0.3076
21080W        W37927  15.300  13.519   1.279  0.0185 -0.0089  0.0749
21081W        W37928  17.611  16.877   4.370 -0.0560  0.1409 -0.2956
21082W        W37929   4.468  16.111  10.465 -0.0664 -0.0537 -0.2371
21083W        W37930  15.622  10.409   2.232  0.3543  0.2205  0.1513
21084W        W37931   9.618   5.292   1.231  0.2482 -0.0026 -0.1622
21085W        W37932   2.639  12.060   3.288 -0.2097 -0.0783  0.0531
21086W        W37933   4.448  15.118   0.785 -0.2223  0.0719 -0.4093
21087W        W37934   9.660  10.765  11.052  0.2585  0.1299 -0.0242
21088W        W37935   4.630   4.495  14.165 -0.0845 -0.0191 -0.1814
21089W        W37936   0.776   1.338   5.401 -0.1010  0.0377  0.1913
21090W        W37937  14.137   0.606  11.092 -0.3419 -0.2609  0.1339
21091W        W37938   3.239   0.836   2.436  0.1986 -0.0833  0.1023
21092W        W37939  15.606   6.607   0.082  0.1244  0.1866  0.0402
21093W        W37940   0.068  19.073  11.718 -0.1574  0.2795  0.0680
21094W        W37941  15.994   7.593  14.838 -0.1925  0.3211 -0.2109
21095W        W37942  16.873   2.130  14.874 -0.1058  0.0692 -0.3395
21096W        W37943  10.109   1.991   2.399  0.1879 -0.0210  0.0297
21097W        W37944   1.112  16.382   2.146 -0.3625 -0.0691 -0.0033
21098W        W37945   6.726   3.953   0.726 -0.1788 -0.1595 -0.3117
21099W        W37946  15.210  18.331  12.449 -0.0521  0.0760 -0.0675
21100W        W37947   3.111  18.142   2.928  0.0296  0.1171  0.1703
21101W        W37948  10.953  18.235   1.309 -0.1626 -0.0857  0.2906
21102W        W37949   1.358  11.822   1.024  0.1610 -0.0389  0.2040
21103W        W37950  18.279  19.162  11.529  0.0140  0.0867 -0.2211
21104W        W37951  17.512  14.275   1.547 -0.1614 -0.1234  0.0337
21105W        W37952  13.168   8.985  10.775 -0.1828  0.2063 -0.1318
21106W        W37953  11.252   0.121   0.075 -0.2530  0.1568 -0.2195
21107W        W37954  12.190   3.515  12.919  0.3010  0.0092  0.3011
21108W        W37955   0.325   7.564   2.185  0.0571 -0.0381 -0.0961
21109W        W37956  17.956  15.644   0.898 -0.0467  0.0386  0.0952
21110W        W37957  17.962   6.832  11.135 -0.2508 -0.3576  0.2228
21111W        W37958  12.683  13.132   3.112  0.0547  0.0827 -0.0618
21112W        W37959  19.234  14.250  10.597 -0.4013 -0.6006 -0.1128
21113W        W37960   1.628   8.542   0.464  0.0670 -0.2167  0.3541
21114W        W37961   5.504  14.594  11.681  0.2004 -0.2185  0.2002
21115W        W37962  18.355   9.478  14.486  0.0018  0.0587 -0.1702
21116W        W37963  11.540  16.472  11.930  0.2213  0.0597  0.2433
21117W        W37964  11.856   7.627  14.868 -0.0114 -0.1928 -0.2786
21118W        W37965  17.145   6.208   2.995 -0.1647 -0.1284  0.1762
21119W        W37966  10.263  13.832   2.316  0.0455 -0.0383  0.0961
21120W        W37967   0.102   7.509   2.989 -0.0586 -0.0513 -0.3002
21121W        W37968   9.078  12.791   9.509 -0.1812  0.0024 -0.0376
21122W        W37969   3.389   1.468   4.174 -0.1088 -0.2203  0.3621
21123W        W37970   0.493   1.022   4.199  0.1026 -0.2265  0.2073
21124W        W37971   8.984  17.578  10.866 -0.0382  0.3233 -0.0676
21125W        W37972  11.612  12.084   1.057 -0.1667 -0.0443 -0.0348
21126W        W37973  12.921  12.744   1.620  0.2671  0.1869 -0.0241
21127W        W37974   2.499  14.263   9.557  0.0550  0.2934  0.1397
21128W        W37975   6.777   9.047  13.456 -0.1673 -0.0663 -0.0656
21129W        W37976  14.349  10.332  11.428 -0.4515  0.2055 -0.1539
21130W        W37977   8.120   3.383   2.515 -0.1909  0.0260  0.0778
21131W        W37978   2.355  16.187   4.329 -0.2448  0.1864 -0.0803
21132W        W37979   2.886   1.017  12.134 -0.0090 -0.2745  0.2478
21133W        W37980   1.664  14.896  12.702  0.0435 -0.2891  0.1927
21134W        W37981   3.853   8.923   0.719 -0.0050 -0.0538 -0.0175
21135W        W37982   9.982   5.447  10.849 -0.0060 -0.4808  0.0673
21136W        W37983  13.707  16.045  12.077  0.0263  0.1568 -0.2914
21137W        W37984  10.454   9.401   4.640  0.0173 -0.0870 -0.2788
21138W        W37985   4.419  12.864  12.853  0.0388  0.0308 -0.1321
21139W        W37986  15.011  14.686   3.831  0.0448  0.2593  0.2845
21140W        W37987   9.013  14.335  10.892 -0.0196  0.0309 -0.0371
21141W        W37988  10.083   8.261   2.745  0.0511  0.0438  0.5142
21142W        W37989  14.259  17.895   4.462 -0.2908  0.2270 -0.0728
21143W        W37990   1.911   6.438   1.536 -0.1120  0.3191 -0.4468
21144W        W37991  12.678   9.932   0.645 -0.1575 -0.0271 -0.1725
21145W        W37992  11.103  12.983  12.193  0.3358 -0.1643  0.3095
21146W        W37993  17.103   2.346   9.610 -0.1939 -0.0828 -0.0592
21147W        W37994   8.451   0.997  11.909  0.2800 -0.2152  0.1246
21148W        W37995  14.630  12.598   4.755  0.2724 -0.1687 -0.0062
21149W        W37996   8.799  17.740   0.730  0.0655 -0.2309  0.1881
21150W        W37997  12.639   6.286   0.662  0.2127 -0.1781 -0.1914
21151W        W37998  17.670   7.725   9.379 -0.0668  0.4134 -0.0888
21152W        W37999   1.575  17.762  10.443  0.1923 -0.2495  0.1235
21153W        W38000  14.713  12.406  14.962 -0.1371 -0.1617 -0.0279
21154W        W38001  18.934   6.922   2.379 -0.1952  0.2362 -0.1842
21155W        W38002  13.926   5.981   3.132 -0.2293 -0.2157 -0.1322
21156W        W38003  13.825   4.985   5.441  0.1472  0.1066 -0.2162
21157W        W38004   3.990  10.174   1.858  0.2330  0.0910  0.0346
21158W        W38005  14.941  19.053   5.020  0.1665  0.0107 -0.2551
21159W        W38006   8.037  17.812   3.904 -0.1145  0.1000  0.1575
21160W        W38007   2.996   0.104   1.527 -0.0238  0.0653 -0.3103
21161W        W38008   3.341  18.525  10.537  0.1331 -0.1964  0.0939
21162W        W38009  13.566   3.769   0.793  0.0100  0.1413  0.0587
21163W        W38010   1.893  14.759   2.234 -0.1471 -0.0082  0.7347
21164W        W38011  15.542  14.898  13.744  0.1841  0.2329 -0.0275
21165W        W38012   5.306   9.071  14.711  0.0211  0.1666 -0.0478
21166W        W38013   3.780  16.772   3.685 -0.0427 -0.2417 -0.1139
21167W        W38014   4.242  10.171   0.356  0.3464 -0.2213  0.2026
21168W        W38015   6.955  18.124   2.502 -0.0406 -0.0170 -0.2863
21169W        W38016  15.074  16.625   0.022 -0.1056  0.0027 -0.1741
21170W        W38017  13.210  11.911  11.753  0.3159 -0.3482 -0.1888
21171W        W38018  13.113   5.483   0.465 -0.1796 -0.2074 -0.3669
21172W        W38019  18.410   6.704  13.230  0.0594  0.0179 -0.1055
21173W        W38020  17.104  12.027  11.361 -0.0402  0.0079 -0.0372
21174W        W38021   5.448   6.840  12.912 -0.1701 -0.0276 -0.0526
21175W        W38022   9.733  14.449   9.390 -0.2116  0.1795 -0.1330
21176W        W38023  18.928   2.169  13.989 -0.0684  0.0353 -0.1226
21177W        W38024   3.252   6.896   0.273  0.2404  0.2454 -0.1783
21178W        W38025  14.674  17.933   2.739 -0.1275  0.0496 -0.0304
21179W        W38026  10.608  17.522   1.696  0.0315  0.2121 -0.0839
21180W        W38027   2.932  15.050   1.767  0.1361 -0.1787 -0.2169
21181W        W38028  12.580   0.462   3.165 -0.0010 -0.1086 -0.0887
21182W        W38029   5.504  18.434  10.893  0.0977 -0.1788  0.0625
21183W        W38030  11.467  16.888   3.347 -0.0983 -0.1143  0.1465
21184W        W38031  13.579  14.220   1.608 -0.2221 -0.0422 -0.1315
21185W        W38032   0.520   5.431  14.274 -0.0000  0.0126 -0.0772
21186W        W38033  18.110   7.934   0.677  0.0258 -0.0248 -0.1906
21187W        W38034   8.252  15.168  13.249  0.2000 -0.1132 -0.0205
21188W        W38035  13.880  15.237  12.937 -0.1556 -0.0487  0.2729
21189W        W38036  16.858   8.173   0.692  0.2901 -0.1549 -0.0458
21190W        W38037   3.124  16.232   5.022 -0.0932 -0.3921 -0.0290
21191W        W38038   7.165   1.816   1.329  0.3654  0.0647 -0.1360
21192W        W38039  14.814   4.026  11.017 -0.0959  0.1064  0.4261
21193W        W38040  16.676   6.418  13.252 -0.0703 -0.0002 -0.1030
21194W        W38041   6.002  16.177  10.664  0.1445  0.1876  0.1517
21195W        W38042   7.241   9.884  12.175  0.3196 -0.1717 -0.4547
21196W        W38043  17.380  14.509   0.616  0.0760 -0.3391  0.1341
21197W        W38044   3.302  16.409  14.328 -0.3571  0.0114  0.0642
21198W        W38045   5.493   3.971   4.347 -0.0611  0.1425 -0.2191
21199W        W38046   6.945  18.801  14.092  0.1289 -0.1716 -0.0116
21200W        W38047  16.561   7.164  12.399 -0.5876 -0.1706  0.1190
21201W        W38048  16.697   6.857   1.593  0.1719  0.0129  0.1552
21202W        W38049   4.174  13.470   1.356  0.3147 -0.1508 -0.4709
21203W        W38050   8.470   4.682   2.182 -0.0148  0.1731 -0.0809
21204W        W38051  17.605   7.032   1.119 -0.1634  0.2518  0.1264
21205W        W38052   7.012   4.163  12.342  0.0103 -0.1724 -0.0742
21206W        W38053  11.104   3.906   5.731 -0.1062  0.0019  0.1885
21207W        W38054  16.430  16.061  14.528 -0.4180 -0.1487 -0.2454
21208W        W38055   2.262  10.922   0.927  0.2044  0.2334 -0.3013
21209W        W38056   3.263   0.333   1.915  0.3027 -0.0504  0.3210
21210W        W38057   7.265  17.648   3.777  0.0460  0.3483 -0.0084
21211W        W38058  18.037  18.813   4.396  0.1058 -0.0537  0.2346
21212W        W38059  10.102   4.635  12.777 -0.0524  0.1672 -0.1193
21213W        W38060  18.471   5.000  11.597  0.3609 -0.1694  0.0421
21214W        W38061  15.199  14.983  11.506 -0.4576  0.1412  0.1422
21215W        W38062  11.900  13.372   3.642  0.1423 -0.4042 -0.0074
21216W        W38063  18.020  16.031   2.267  0.2804 -0.2149  0.1110
21217W        W38064  16.950   7.243  13.266  0.0403 -0.0112 -0.0122
21218W        W38065  10.590  16.127   4.260  0.0132 -0.2903 -0.0617
21219W        W38066   9.397  16.586  12.237 -0.3143  0.2070 -0.1773
21220W        W38067   0.571  17.666  14.554  0.4993 -0.1958  0.0137
21221W        W38068   4.027   6.819   0.889  0.4648  0.0284 -0.0369
21222W        W38069  18.287  15.208  12.483  0.0144  0.0444  0.1241
21223W        W38070   9.712  14.979  13.863  0.2419  0.3916 -0.5728
21224W        W38071   0.255  18.417   1.978 -0.3001 -0.1049  0.0418
21225W        W38072   6.079   5.694   0.856  0.1468  0.0803 -0.2485
21226W        W38073  13.932   7.671  11.015  0.2078 -0.1345  0.3411
21227W        W38074  13.099   1.488   0.839 -0.3007  0.0070 -0.2409
21228W        W38075   9.497   1.797   1.461 -0.0719 -0.3070  0.3693
21229W        W38076   3.414   2.266  11.909  0.0613 -0.0085  0.2191
21230W        W38077   1.012   5.859   2.097 -0.0266  0.0342 -0.1095
21231W        W38078  13.683  16.848  10.953 -0.0073 -0.2372 -0.1080
21232W        W38079  14.687   1.899   0.944 -0.0451  0.0216  0.0510
21233W        W38080  19.043   4.918   1.508  0.1359  0.3201 -0.2670
21234W        W38081   7.744  12.533   3.617  0.0743  0.0023  0.0060
21235W        W38082   7.799  15.740   0.807  0.3339 -0.1724 -0.1851
21236W        W38083   4.900   6.354   3.933  0.0738 -0.0510  0.0834
21237W        W38084   3.083   6.506  13.507 -0.0326 -0.0838  0.0377
21238W        W38085   4.707  11.084   5.062 -0.1112 -0.1557  0.1988
21239W        W38086   9.713   8.996   2.882  0.1045  0.1450  0.0676
21240W        W38087   8.599  12.591   3.898  0.0974  0.1403  0.0794
21241W        W38088   1.690  15.154  10.452 -0.0803 -0.0262 -0.1836
21242W        W38089   5.229   5.199   2.464 -0.1394 -0.1708 -0.2760
21243W        W38090  16.064  13.780   3.634  0.4387 -0.0275 -0.1462
21244W        W38091  17.463  14.646  14.780 -0.1358  0.1100  0.1664
21245W        W38092   2.675   5.662   0.569 -0.0483  0.0848 -0.0022
21246W        W38093   4.246   1.563  10.667  0.1970  0.2436 -0.0008
21247W        W38094  16.267   9.103   4.791 -0.2191 -0.2456  0.0614
21248W        W38095   6.934   9.233   1.756 -0.1421  0.4621 -0.1638
21249W        W38096  16.459  14.440   0.712  0.0483  0.1152  0.4276
21250W        W38097  14.268  11.612  14.143  0.0464  0.1108 -0.0426
21251W        W38098  15.387  15.806   1.566 -0.1882  0.1626  0.2110
21252W        W38099   5.873   9.608   4.727  0.0864  0.0141 -0.4128
21253W        W38100   7.016   3.211   1.546  0.0116 -0.0735 -0.2423
21254W        W38101  18.491  18.776  12.346 -0.2854  0.0136 -0.2923
21255W        W38102  15.839   5.119   4.971  0.2708 -0.0743 -0.3298
21256W        W38103  17.591   5.989   4.420 -0.0300  0.2218 -0.1658
21257W        W38104   1.302  11.213   5.410 -0.1405 -0.0645  0.2930
21258W        W38105   8.182  17.682  12.798 -0.2267  0.1193  0.1560
21259W        W38106   8.476  18.590   3.774 -0.0149  0.0594 -0.3190
21260W        W38107   7.664  16.853   0.699 -0.2270 -0.0270 -0.1855
21261W        W38108  16.305  18.908  13.168  0.1700  0.1236 -0.0107
21262W        W38109   5.447  12.848  12.557  0.0917 -0.1164  0.0420
21263W        W38110  12.601   1.517   0.819 -0.3167  0.0146 -0.1913
21264W        W38111  15.352   9.828   5.174 -0.0326 -0.0631  0.0802
21265W        W38112   2.219  17.771   4.232 -0.0004  0.1567 -0.1440
21266W        W38113   3.315  11.629   1.586  0.1333 -0.2002 -0.2862
21267W        W38114   3.996  18.250   1.286 -0.2389 -0.1804  0.0420
21268W        W38115   4.749  12.223   1.320 -0.2121 -0.3142  0.0841
21269W        W38116  16.079   7.156  12.129  0.0773  0.1132 -0.1531
21270W        W38117  16.677   5.305   2.171 -0.3605  0.0660 -0.1787
21271W        W38118   7.892  14.695  15.014 -0.0288  0.0237  0.4422
21272W        W38119  12.138  15.488   1.877 -0.0488 -0.0737 -0.3564
21273W        W38120   5.980  18.644   1.344  0.0818  0.2308 -0.0886
21274W        W38121   6.593  18.058  10.157 -0.2076  0.3462 -0.2140
21275W        W38122  15.692  17.622   0.445 -0.0298 -0.1131 -0.0531
21276W        W38123  15.801  11.703   4.019  0.0041  0.2167 -0.3035
21277W        W38124   1.219  15.722  13.124 -0.2760  0.1594  0.3810
21278W        W38125   2.660  18.836   0.832  0.1201 -0.3245 -0.3005
21279W        W38126   5.253  17.306  10.805  0.0172  0.0996 -0.0116
21280W        W38127  12.808   7.552   0.065  0.1228 -0.2890 -0.1819
21281W        W38128   9.184  10.413   2.617  0.2047  0.2946  0.3179
21282W        W38129   1.117  18.434   2.504  0.0212  0.2998 -0.3034
21283W        W38130  11.327   3.105  11.146  0.0050  0.0642  0.2334
21284W        W38131  10.566  12.633  11.203  0.0570  0.4143  0.2736
21285W        W38132   7.602   6.424  14.447 -0.0664 -0.0794  0.0473
21286W        W38133  16.894  18.799  13.126  0.2718 -0.1226  0.1071
21287W        W38134   8.270  11.147   0.799 -0.0290  0.0834 -0.1331
21288W        W38135  18.544  13.435  10.880  0.2263 -0.1659 -0.0994
21289W        W38136   2.702  12.414  11.199 -0.2758 -0.0637 -0.0658
21290W        W38137   4.252   3.992   3.743  0.0794 -0.2593 -0.1422
21291W        W38138   5.195  11.874   3.204  0.1568 -0.0563 -0.2257
21292W        W38139  14.284  13.309   2.403 -0.0453 -0.2895  0.0713
21293W        W38140   2.337   9.403   2.553 -0.1951  0.0221  0.0040
21294W        W38141   5.985   0.727   0.958 -0.2031 -0.2379 -0.5935
21295W        W38142  11.841  16.487   4.050 -0.2253 -0.1913 -0.0272
21296W        W38143   0.572  14.697  12.382  0.0744  0.1281 -0.0344
21297W        W38144  16.510  14.010  13.692 -0.0614 -0.1662  0.1886
21298W        W38145  16.317  18.539   3.369 -0.1247  0.1146 -0.0900
21299W        W38146  10.498   3.999   0.783  0.2141 -0.1954 -0.0301
21300W        W38147  17.178  14.679  11.433 -0.0227 -0.2294  0.1995
21301W        W38148  12.390   4.126   3.089 -0.3312 -0.2335  0.1213
21302W        W38149   9.633  11.864  10.040  0.1679 -0.0689 -0.0609
21303W        W38150   9.139  14.836  11.631  0.4031  0.0760 -0.0037
21304W        W38151  14.083  15.686  15.013 -0.2084  0.3015 -0.3287
21305W        W38152  13.804   6.055  12.543  0.0535  0.1065  0.0458
21306W        W38153  10.843  13.475   0.725  0.1975  0.1665 -0.0352
21307W        W38154  12.895  16.318   1.180 -0.1512 -0.2081  0.5202
21308W        W38155   5.417  15.442  11.716  0.2334 -0.0602 -0.0060
21309W        W38156   3.668   9.416  11.925  0.0941 -0.1311 -0.4859
21310W        W38157   0.484  18.388   1.038  0.1473 -0.0912 -0.0261
21311W        W38158  15.941  17.105   5.344  0.1830  0.3247 -0.1414
21312W        W38159  11.405   2.618  10.485 -0.1969  0.0231  0.0311
21313W        W38160   3.130   7.536   1.638 -0.1512 -0.0366 -0.3225
21314W        W38161   9.478   5.268  11.919  0.2435 -0.1515  0.0676
21315W        W38162  16.282   2.371   2.434 -0.0483 -0.2085  0.0364
21316W        W38163  17.206   9.887  11.179 -0.2305 -0.1931 -0.0575
21317W        W38164  15.461   6.693  10.732 -0.4089  0.0200  0.0884
21318W        W38165  18.453  11.116  10.362 -0.0209  0.2724 -0.0669
21319W        W38166   0.836  18.300  11.921 -0.1252  0.0129  0.1644
21320W        W38167  11.967   6.141   5.482 -0.1372 -0.1378 -0.0071
21321W        W38168  18.280   7.328  11.974  0.0274 -0.0178 -0.1527
21322W        W38169  12.384   0.988   5.463  0.1702 -0.1248  0.0233
21323W        W38170  14.900   7.368   0.993 -0.1802 -0.2305 -0.0506
21324W        W38171   0.581   0.765  13.754 -0.0193 -0.0412 -0.2784
21325W        W38172   0.544  16.375  11.769 -0.2981 -0.1929 -0.3518
21326W        W38173  13.840  11.627  10.977 -0.2208 -0.3029 -0.0797
21327W        W38174  14.760  10.787   4.238  0.2402 -0.0147 -0.0024
21328W        W38175   4.992  12.997   4.525 -0.0198 -0.1000 -0.2255
21329W        W38176  19.266   9.125  14.807  0.0369 -0.1158 -0.1097
21330W        W38177  16.102   5.765   4.247  0.1769  0.3861 -0.2987
21331W        W38178  15.622   8.235  10.882 -0.2724 -0.3336 -0.0391
21332W        W38179   3.503   3.113   1.300  0.2876  0.0830  0.2780
21333W        W38180  18.353  17.392   0.852  0.3488  0.0583 -0.1958
21334W        W38181  17.779   6.166   1.545 -0.1953 -0.1365  0.0136
21335W        W38182   3.731  12.154  13.789 -0.1967 -0.4156 -0.2211
21336W        W38183  14.822   0.527   1.431 -0.1144  0.1949  0.2064
21337W        W38184   1.502   7.252   4.917  0.3609 -0.1659 -0.0083
21338W        W38185  14.907   4.095  12.037  0.0806  0.1410 -0.1792
21339W        W38186  10.579   0.234   3.674 -0.0897 -0.0444 -0.2876
21340W        W38187   9.165   4.271  14.813 -0.1396  0.1048  0.3028
21341W        W38188   1.531   9.668  13.671  0.0935 -0.0362 -0.2076
21342W        W38189   9.178  16.414   0.301 -0.0759 -0.3111 -0.2619
21343W        W38190  18.472  12.053   0.543 -0.1012  0.1908 -0.1438
21344W        W38191   9.677  18.762   3.023  0.0338  0.3024  0.1644
21345W        W38192   4.541   6.617   4.218 -0.2301  0.3981  0.1043
21346W        W38193  16.802  11.804   4.536 -0.0475  0.1777 -0.0751
21347W        W38194  10.849   9.277  14.210  0.0142  0.1747 -0.1173
21348W        W38195  13.706   6.051   4.405  0.2029  0.0273 -0.0930
21349W        W38196   0.861  18.025  10.846 -0.1799 -0.0675  0.1445
21350W        W38197  10.932   2.272   4.893 -0.1495 -0.1511 -0.0601
21351W        W38198   5.798  16.106  14.469  0.1187  0.1522  0.3952
21352W        W38199  10.739   4.120   2.844 -0.1261 -0.0265 -0.1347
21353W        W38200   0.598   4.222  14.409 -0.1677 -0.3385 -0.6042
21354W        W38201   7.524  12.700   0.614  0.1566  0.0115  0.3876
21355W        W38202   2.703  15.350   4.306  0.0533  0.2345  0.0792
21356W        W38203  10.901   3.360   4.521  0.2256 -0.2100 -0.0244
21357W        W38204  11.446  15.660  11.511 -0.1827  0.2008 -0.0201
21358W        W38205   5.408   5.808  10.736  0.0915  0.2419  0.3030
21359W        W38206  15.537  19.055   2.317 -0.0617 -0.1720  0.3300
21360W        W38207   7.854  15.449   9.551  0.3011  0.0041 -0.0662
21361W        W38208   4.345  16.998  11.807  0.0061  0.0508  0.2606
21362W        W38209  10.062   7.712  14.949  0.0795  0.2002 -0.0528
21363W        W38210   5.307  11.676   0.081 -0.0755 -0.0983  0.3272
21364W        W38211   4.073  13.689  14.494  0.0222  0.1524  0.2360
21365W        W38212   0.205  12.497  11.160  0.2867 -0.3254 -0.1558
21366W        W38213   8.372   8.159   2.487 -0.1384 -0.2066  0.3268
21367W        W38214  15.409  18.679  11.109  0.0797  0.0404 -0.2342
21368W        W38215   7.435   2.650   2.938 -0.1777 -0.0859 -0.2109
21369W        W38216  17.132  18.666  14.970  0.3081  0.4038 -0.0794
21370W        W38217   7.802  18.341  10.924  0.2655 -0.2596 -0.0696
21371W        W38218   8.487  12.335  12.712  0.3023 -0.1890  0.2453
21372W        W38219   9.144   4.592   0.744 -0.1524 -0.0001  0.2572
21373W        W38220  13.369   0.781  14.989  0.5023  0.1776  0.2280
21374W        W38221  14.435  11.271   2.025  0.0731 -0.2585 -0.1440
21375W        W38222   2.447   1.379   3.386  0.0466  0.1172  0.0355
21376W        W38223  15.713  18.951  11.352 -0.1118  0.1688  0.1677
21377W        W38224  17.180  17.646  11.587  0.0544 -0.2004 -0.1420
21378W        W38225  13.383   9.107  13.920 -0.0286  0.4204  0.1023
21379W        W38226  19.019  13.886   3.404 -0.0951 -0.2443  0.1231
21380W        W38227  13.373   6.387   2.087 -0.2798  0.2487  0.0366
21381W        W38228   3.995   0.226   3.813  0.0674 -0.2276  0.2927
21382W        W38229  15.535   9.950   0.433 -0.1243 -0.0475 -0.0993
21383W        W38230   5.681   3.076  11.303  0.0414  0.0687  0.0264
21384W        W38231  11.591  12.061  14.933 -0.0985  0.2225  0.3261
21385W        W38232  10.706   8.487  10.807 -0.0177 -0.1567 -0.1806
21386W        W38233  10.934  16.613   2.449  0.1738 -0.0365 -0.0424
21387W        W38234   1.723  10.141   2.654  0.1237  0.1119  0.0540
21388W        W38235   3.329   9.474  14.498 -0.1409 -0.1516  0.1549
21389W        W38236  16.268  18.867  14.877 -0.0596 -0.0383  0.0700
21390W        W38237  10.071  13.320   3.067  0.0860  0.2200 -0.0030
21391W        W38238  13.502   3.178   2.467  0.1497  0.2594  0.5466
21392W        W38239   9.803   0.768  13.811  0.0759 -0.0627  0.1259
21393W        W38240   4.367  13.266  13.248 -0.1504  0.0758 -0.1068
21394W        W38241   0.554  16.776   0.086  0.1184 -0.2162 -0.0194
21395W        W38242  10.298  11.092  14.644  0.0497 -0.2726  0.1076
21396W        W38243  13.370   8.593  13.308  0.0475  0.0074  0.1436
21397W        W38244   7.262   5.616  13.216 -0.3697 -0.0154 -0.2394
21398W        W38245   1.195   6.766  14.170  0.1016 -0.1613  0.0960
21399W        W38246  18.463   7.000  13.676  0.0645  0.0071  0.1558
21400W        W38247  14.365  13.909   2.193 -0.0922  0.0155 -0.1118
21401W        W38248   2.133   6.799   1.162 -0.3444  0.0567 -0.0740
21402W        W38249  13.801  18.606   5.089  0.0398 -0.1303  0.0032
21403W        W38250   2.608   9.961   4.682 -0.1072 -0.0674 -0.1894
21404W        W38251   7.396  17.899   0.451 -0.1991 -0.0431  0.0517
21405W        W38252  14.275   9.852   2.483 -0.0533  0.1524 -0.4142
21406W        W38253  17.882  10.217   1.492 -0.2287 -0.0778 -0.0199
21407W        W38254   3.217  15.039   4.624 -0.0455 -0.0480  0.1777
21408W        W38255  12.233   5.366   1.523 -0.1289  0.0637 -0.1211
21409W        W38256   7.348   1.781  13.114  0.2314  0.2156  0.0294
21410W        W38257  15.601  19.028  14.348 -0.0368  0.0856 -0.0828
21411W        W38258   8.889   7.932  11.625  0.1619  0.1403  0.2436
21412W        W38259  15.423   2.457   0.518 -0.1937  0.0722  0.0485
21413W        W38260   5.948  17.907   3.044 -0.2549 -0.0036  0.2256
21414W        W38261   9.501  14.324  11.210 -0.2595 -0.0908 -0.1502
21415W        W38262  12.549   2.760  11.013 -0.0445  0.0422  0.0566
21416W        W38263  13.171   5.208  10.626 -0.0689  0.2520 -0.0171
21417W        W38264  16.802  14.514   4.561 -0.0190  0.2048 -0.1515
21418W        W38265  18.740  11.144  11.204  0.1930  0.1342 -0.1674
21419W        W38266   5.948   6.176  11.935  0.0571 -0.3030  0.2030
21420W        W38267   9.010   4.305   9.508  0.1256  0.0884 -0.0008
21421W        W38268   8.152   6.795   4.568  0.0502 -0.1163  0.3143
21422W        W38269   1.439   2.324  12.541  0.0221  0.0425 -0.1317
21423W        W38270  18.947   3.933   1.815 -0.1198  0.0642  0.2771
21424W        W38271   2.775   2.262   1.261 -0.0694 -0.2573  0.1302
21425W        W38272  18.737   3.373   4.719  0.0443  0.1405  0.0565
21426W        W38273   9.539  13.415  13.850  0.1805  0.1629 -0.0788
21427W        W38274   7.052   9.513  11.225  0.1244 -0.0381 -0.0867
21428W        W38275  11.033  17.162   1.806 -0.0866  0.0114 -0.1722
21429W        W38276   7.595  17.413  13.286 -0.2903 -0.1703 -0.2110
21430W        W38277   4.100  13.169  14.628 -0.3881 -0.2481  0.2015
21431W        W38278  12.129  11.196  11.562  0.1938  0.0035  0.0021
21432W        W38279   9.885  17.760  14.306 -0.0107  0.0878  0.1062
21433W        W38280   1.213   0.044   3.397 -0.2791  0.1218 -0.3598
21434W        W38281  17.938   0.130  11.899 -0.4668 -0.1645  0.0773
21435W        W38282   8.051   9.500   0.840 -0.1616 -0.1278 -0.1327
21436W        W38283   4.783  10.810  12.609  0.0817 -0.1464 -0.1677
21437W        W38284   6.837  12.404  11.082 -0.0953 -0.0905 -0.0674
21438W        W38285   6.056  10.033   0.980 -0.2524  0.0890 -0.1017
21439W        W38286   5.653  12.979  14.458 -0.2718  0.0343 -0.1095
21440W        W38287  12.021   2.209   2.284  0.0256  0.1128 -0.1515
21441W        W38288   7.429   7.916   2.652  0.2197  0.1273  0.1391
21442W        W38289   3.388   2.502  10.907 -0.2095 -0.0654  0.1617
21443W        W38290  12.360  15.093   4.362 -0.0060  0.2724 -0.2493
21444W        W38291  10.203   7.372   4.301 -0.1353 -0.1905  0.2237
21445W        W38292   8.664  14.098  11.712 -0.1458 -0.0998 -0.0867
21446W        W38293  17.657   7.523   1.277  0.1875  0.1044 -0.0542
21447W        W38294   4.621  16.410   3.478  0.0956  0.0087 -0.0514
21448W        W38295   3.827  11.625  13.891  0.1641 -0.2213 -0.0207
21449W        W38296  19.139  16.735   1.819  0.0107  0.0846 -0.0865
21450W        W38297  11.425   6.045   4.420  0.0916  0.2735  0.0567
21451W        W38298  17.893  10.625  12.999 -0.1073  0.3676  0.0206
21452W        W38299  10.057  17.094   3.394 -0.1060  0.1010  0.1146
21453W        W38300  10.544  18.925   4.641  0.0345 -0.0493  0.0515
21454W        W38301  14.847   6.173   1.524  0.0581 -0.1206 -0.3006
21455W        W38302   1.373   4.397  14.129  0.1552  0.0730 -0.0355
21456W        W38303  10.382   5.524  14.294 -0.0512  0.0715  0.1477
21457W        W38304  12.668   7.369   4.718 -0.0459  0.2194  0.3908
21458W        W38305  13.142   8.580   3.310 -0.0630 -0.3488  0.0427
21459W        W38306   4.980   6.059  12.659 -0.2596 -0.1587 -0.0634
21460W        W38307   6.835  13.677  13.753  0.1366  0.0754 -0.3010
21461W        W38308   5.886   2.613  13.621 -0.1309  0.3162  0.2399
21462W        W38309  13.174   1.794   3.354 -0.2777 -0.0410  0.0454
21463W        W38310   7.527   3.092  12.119 -0.0051  0.3741 -0.1598
21464W        W38311  18.014   8.381  14.529  0.0367 -0.1976  0.2684
21465W        W38312   5.379  12.830  10.305  0.0283 -0.2093  0.0056
21466W        W38313   1.315  10.957   3.782  0.0138  0.2506  0.1176
21467W        W38314   5.058  11.866   0.924 -0.2431 -0.2724  0.0046
21468W        W38315   0.848   1.085   0.882  0.4366  0.1083  0.2484
21469W        W38316   8.588   1.103  11.446 -0.0220 -0.1088  0.1308
21470W        W38317  17.363   5.797  10.502  0.1164 -0.0037 -0.1648
21471W        W38318  18.142  11.732   2.140  0.1095  0.2902  0.0303
21472W        W38319   8.049  16.136   1.657  0.0272 -0.0317  0.0392
21473W        W38320   8.519   9.555  10.849  0.0714 -0.1063 -0.3288
21474W        W38321  10.155  15.966  11.682 -0.2420 -0.0768 -0.0432
21475W        W38322  13.717  16.404   4.152  0.1189  0.0071  0.3636
21476W        W38323  13.500   0.231  12.585 -0.4339  0.1370  0.2456
21477W        W38324   8.404   8.641   0.875 -0.0406  0.1490  0.0833
21478W        W38325  17.255   0.010   2.056 -0.1937  0.0396 -0.6089
21479W        W38326  16.246   7.250  11.290 -0.1390 -0.0610 -0.2933
21480W        W38327   9.564   0.248   2.148  0.1227  0.2171  0.1793
21481W        W38328  17.496   0.450   4.419  0.0379  0.0480 -0.2572
21482W        W38329   8.151   6.657   0.659 -0.2003  0.0667  0.2534
21483W        W38330  16.796   9.768   3.170 -0.2048  0.2982  0.2364
21484W        W38331  12.839   7.313   3.201 -0.1211 -0.0405  0.0730
21485W        W38332   8.568   5.320  13.053 -0.0455 -0.1680  0.0887
21486W        W38333   5.120  16.637   2.072 -0.0537 -0.0907 -0.2396
21487W        W38334  14.486   7.881   3.236  0.0668 -0.1639 -0.0116
21488W        W38335   9.831   3.321   2.956  0.2011  0.0461 -0.1489
21489W        W38336  10.962  15.087  13.083 -0.2178 -0.1602 -0.0423
21490W        W38337   3.199  17.478   4.165  0.2953 -0.2956 -0.2539
21491W        W38338  16.415  15.289   1.160  0.0853 -0.3436  0.0616
21492W        W38339  16.494  10.756  13.387  0.1947  0.0795  0.1967
21493W        W38340  14.276   3.825  11.534 -0.0500 -0.0550  0.3282
21494W        W38341   6.910  14.761   2.592  0.1323 -0.2631 -0.3441
21495W        W38342  10.956  14.069  12.653 -0.0231 -0.0527 -0.2331
21496W        W38343   8.193  18.345  13.141 -0.1482  0.0862 -0.1681
21497W        W38344   8.814  15.728  12.061 -0.0279 -0.0261 -0.0740
21498W        W38345   0.517   4.226   1.235  0.1219  0.3466 -0.2008
21499W        W38346  10.866  13.678  14.452 -0.0924  0.1939 -0.2884
21500W        W38347  17.100   6.261  11.834  0.2631 -0.1348  0.0277
21501W        W38348  11.406  15.373  12.378 -0.1169 -0.0412 -0.0847
21502W        W38349   0.569   5.989  10.754 -0.0581  0.1814  0.1208
21503W        W38350   6.760  16.970   1.801 -0.2727 -0.2369  0.3293
21504W        W38351   8.174   5.662  11.854 -0.2333  0.0075  0.1894
21505W        W38352  15.178  15.066  13.145  0.1316  0.0500 -0.0389
21506W        W38353  10.826  14.892  13.538 -0.3880  0.1550  0.1114
21507W        W38354   9.359  16.285   1.514  0.1993 -0.4025 -0.0258
21508W        W38355   8.231   9.765   5.594  0.1301 -0.1869  0.1712
21509W        W38356   6.439  17.915  11.414  0.0274  0.2285 -0.0600
21510W        W38357   6.352  16.670   0.017  0.0062  0.0677 -0.2043
21511W        W38358  17.275  10.715  14.815 -0.1398 -0.1454 -0.1724
21512W        W38359   8.102   9.526   4.064 -0.0272  0.3800  0.1126
21513W        W38360  18.596  19.268  14.884 -0.1580 -0.1036 -0.2577
21514W        W38361  18.915  10.724  12.608 -0.1032  0.1122 -0.1634
21515W        W38362  11.674   0.770   1.424 -0.1437  0.1382 -0.1488
21516W        W38363   1.435   3.864   0.884 -0.0111  0.0189 -0.1583
21517W        W38364  11.234  17.871  14.570  0.2010 -0.2141 -0.1870
21518W        W38365   0.770   0.529  12.788  0.3349 -0.0516 -0.0041
21519W        W38366  14.911   9.825  14.463  0.0208  0.0189 -0.2526
21520W        W38367   3.825  18.964   4.647  0.1206  0.2543 -0.3855
21521W        W38368   4.144  12.450   3.524 -0.0544 -0.1505 -0.0966
21522W        W38369   7.050   2.576  11.086  0.2783 -0.2038 -0.2055
21523W        W38370   2.216   7.204   2.657 -0.0462  0.1507 -0.1188
21524W        W38371  16.581   1.182   4.888  0.3093 -0.2294  0.0653
21525W        W38372   8.128  16.336  14.024 -0.0678 -0.0264  0.0052
21526W        W38373   8.869  15.943   4.593 -0.3792  0.2434  0.1257
21527W        W38374   9.482   9.066  10.148 -0.0756 -0.0197  0.0177
21528W        W38375   4.573   9.656   3.640  0.1178 -0.2552  0.0149
21529W        W38376  16.378   9.343  11.379 -0.1730 -0.1383 -0.3199
21530W        W38377   7.764  10.769  14.084  0.0937 -0.1488  0.0830
21531W        W38378  17.693  18.439  14.694  0.2596  0.0850 -0.1550
21532W        W38379  15.901  11.945  12.795  0.1572  0.2724 -0.1255
21533W        W38380  10.784  13.577   4.841 -0.0706  0.0400  0.3847
21534W        W38381   5.287  12.902   4.074 -0.3341  0.1542 -0.4049
21535W        W38382   9.197  15.788   4.941 -0.1120  0.1872 -0.0498
21536W        W38383  12.064   3.365   3.637 -0.2776 -0.1180  0.1111
21537W        W38384  18.328  16.431   1.992 -0.0816  0.2931 -0.3819
21538W        W38385  13.712   9.576   0.601  0.0275 -0.0703 -0.2541
21539W        W38386   1.102   2.698   4.927 -0.2203  0.0654 -0.1579
21540W        W38387  15.045   1.693  13.044  0.1498 -0.1050  0.1524
21541W        W38388   6.076  11.989   9.989  0.2297 -0.0973  0.0816
21542W        W38389   0.644  17.314   2.020 -0.0332 -0.2489  0.2038
21543W        W38390   9.296   4.191  12.351 -0.1002 -0.0673 -0.0647
21544W        W38391  14.304   3.344   5.457 -0.1024 -0.0675 -0.0621
21545W        W38392   5.091   8.468  14.126  0.1776 -0.1853  0.1084
21546W        W38393   7.933   9.384  12.751 -0.0008  0.1208  0.3287
21547W        W38394  10.717  11.609   1.074  0.0202 -0.0697  0.4365
21548W        W38395   2.002  10.465   3.307 -0.1438 -0.0032  0.0353
21549W        W38396   8.640  16.859  12.513 -0.0111  0.2879  0.1027
21550W        W38397   2.579   8.516  13.359 -0.0523  0.0311 -0.1048
21551W        W38398  15.603  17.821  14.688 -0.4271  0.4476  0.3709
21552W        W38399   8.678  12.942  10.521 -0.2753  0.2740 -0.0087
21553W        W38400  13.213  16.765   3.883 -0.1503  0.2437 -0.2491
21554W        W38401   7.596  12.099   0.553  0.1251 -0.5564 -0.0266
21555W        W38402   7.922   3.545   4.457  0.0955 -0.1776 -0.2981
21556W        W38403  16.829   8.962  12.803  0.1840  0.0788  0.0678
21557W        W38404  13.539   0.898   6.066  0.1953  0.0724  0.3117
21558W        W38405   8.993   7.334  12.408  0.1202 -0.0018  0.2294
21559W        W38406   1.754  18.536  12.190 -0.1639  0.2288 -0.2827
21560W        W38407   0.999  13.910   4.451 -0.2956  0.0222 -0.0276
21561W        W38408   2.735  14.796  13.341  0.0112  0.0108  0.1448
21562W        W38409   7.714  14.539   2.835 -0.0280  0.0376  0.0214
21563W        W38410  11.172   3.632   4.931  0.0425  0.0891 -0.0925
21564W        W38411   5.717   1.281  10.188  0.2555 -0.1830  0.0154
21565W        W38412   6.099  17.145   5.290  0.0665 -0.0778 -0.0695
21566W        W38413  15.925  19.120  13.953 -0.2192 -0.4446  0.1113
21567W        W38414   1.037  14.364   1.603  0.1666  0.0397 -0.1369
21568W        W38415   6.258   0.491   4.455 -0.0904 -0.1466  0.0170
21569W        W38416   9.686   1.607   0.863 -0.2584 -0.1410 -0.0824
21570W        W38417  14.470  16.007   4.048 -0.1056 -0.1766 -0.0035
21571W        W38418  15.588  10.990  11.257 -0.0015  0.0841  0.0903
21572W        W38419   9.137  16.766  12.661 -0.0353 -0.0069 -0.3683
21573W        W38420   2.300   8.559   1.739  0.1076  0.1992 -0.2868
21574W        W38421   3.689  15.426  10.379 -0.0265  0.1758 -0.2720
21575W        W38422  19.045   2.908   3.132 -0.1260  0.1278  0.1183
21576W        W38423   7.399   1.450   0.585  0.0673 -0.2917  0.2103
21577W        W38424  19.040  12.231  12.398  0.2025 -0.1423 -0.0166
21578W        W38425   7.457   9.269   1.855 -0.1136 -0.0926 -0.0896
21579W        W38426  14.327   9.772  14.153  0.0826  0.1299 -0.1407
21580W        W38427  12.219   7.880  11.824  0.0422 -0.1740  0.0825
21581W        W38428  18.556  16.218  13.199  0.1321  0.3892 -0.0182
21582W        W38429   6.257  11.986   1.780  0.0926 -0.0911  0.2486
21583W        W38430  11.712   0.746  14.066  0.0241  0.0417  0.3104
21584W        W38431  12.137   7.784   4.884 -0.1573  0.0106  0.0403
21585W        W38432   2.924   3.700   3.825 -0.0355 -0.2574  0.0209
21586W        W38433  14.879   2.168  12.895 -0.2366  0.1809 -0.1409
21587W        W38434   8.761  18.251  14.974 -0.5414 -0.0114 -0.0005
21588W        W38435   0.768  12.936   1.148  0.0729 -0.0567  0.0289
21589W        W38436  17.679  17.067  12.060  0.1564  0.1956  0.0135
21590W        W38437  17.447   0.946   4.615  0.1589 -0.1484  0.0859
21591W        W38438  13.939  16.181   5.463  0.1047 -0.2057 -0.0027
21592W        W38439   5.780   3.075   9.650 -0.1090 -0.0910  0.0546
21593W        W38440   1.328  19.034  11.014  0.0923 -0.0431 -0.3609
21594W        W38441  16.298   3.743   2.950 -0.0815 -0.0728 -0.1799
21595W        W38442  11.782  15.789  13.863 -0.3087 -0.2008  0.4617
21596W        W38443  14.176  14.955   1.747  0.1853 -0.2273 -0.0131
21597W        W38444  11.769   6.085   0.525  0.0449 -0.0180  0.0155
21598W        W38445   2.968   4.150  12.483 -0.1611  0.5511 -0.0590
21599W        W38446  18.800   7.344   5.684 -0.1238 -0.0554  0.2607
21600W        W38447  15.702  15.623  10.889  0.1972  0.1468 -0.0583
21601W        W38448   7.390  17.989   2.085  0.2875 -0.1586 -0.3970
21602W        W38449   3.676   3.590  13.765  0.0209 -0.0054 -0.3003
21603W        W38450  18.211   1.367   5.053 -0.1861  0.2562 -0.0220
21604W        W38451  17.548  11.615  14.191  0.0579  0.0858 -0.2774
21605W        W38452  17.677   9.736  13.419 -0.0393  0.0641 -0.0303
21606W        W38453   8.447   7.763   0.309 -0.0252 -0.0412 -0.1302
21607W        W38454   2.410  14.255  13.321  0.0405 -0.2087  0.1277
21608W        W38455  11.278   5.152   4.343 -0.0269 -0.0635 -0.0722
21609W        W38456   8.510   4.800   4.217  0.0423 -0.4653  0.0921
21610W        W38457   5.401   6.249   2.342 -0.0614  0.0973  0.0509
21611W        W38458   0.016   2.034   5.532  0.2802  0.2444  0.0056
21612W        W38459  11.282   8.023   4.107  0.3162 -0.0227 -0.1040
21613W        W38460   2.495  14.426   1.142  0.0125  0.4780 -0.0357
21614W        W38461  13.741  15.753   5.237  0.0859  0.0212  0.0501
21615W        W38462   0.520   2.035   0.294  0.2307 -0.1594  0.0843
21616W        W38463   1.192   1.765   0.065  0.0338 -0.0549  0.0137
21617W        W38464   9.111  18.415  12.925 -0.2694  0.1222 -0.1826
21618W        W38465  10.235  16.063   1.581  0.0823  0.1841  0.0226
21619W        W38466   9.605  18.692  12.840 -0.2176 -0.1235  0.0007
21620W        W38467   1.581  11.727   4.736 -0.0195  0.3549 -0.2870
21621W        W38468  14.832  17.172  11.205  0.0250 -0.1715 -0.2584
21622W        W38469   5.306   9.331  11.163 -0.0847 -0.3043 -0.0671
21623W        W38470   2.983  18.557   0.544 -0.0997  0.3209 -0.2161
21624W        W38471   0.321   7.742  14.775 -0.1586  0.0821  0.1188
21625W        W38472   6.486   0.431  12.255  0.0780  0.1125 -0.0662
21626W        W38473   8.728   3.166  10.233  0.3803  0.1913 -0.0242
21627W        W38474  17.160   9.525   3.897  0.0368  0.2373 -0.2384
21628W        W38475   3.530  16.194  13.120  0.1343 -0.2578 -0.2355
21629W        W38476   3.968  10.403   0.011  0.0642  0.1066  0.1767
21630W        W38477  11.216   9.413   3.157 -0.0168 -0.2613  0.0672
21631W        W38478  17.860  16.526   1.444  0.1312 -0.0734  0.0527
21632W        W38479   2.473   9.720  11.330  0.0941  0.2551  0.0636
21633W        W38480   7.736   8.362   4.118 -0.0543  0.0173  0.2713
21634W        W38481  12.304  16.390  14.926  0.1147  0.2721  0.1216
21635W        W38482  19.213   1.974  10.928 -0.1959  0.0576  0.0899
21636W        W38483   2.689  17.835   0.977  0.0736 -0.1100  0.1196
21637W        W38484  14.904   9.627  12.912 -0.0111 -0.3576 -0.2661
21638W        W38485  15.126  14.172   4.904  0.1424 -0.0973  0.2674
21639W        W38486   4.451   3.829   5.207 -0.0164  0.2733 -0.2485
21640W        W38487  13.212  13.448  13.520  0.1248 -0.0987  0.2896
21641W        W38488  14.952   6.219   9.969 -0.1733 -0.0644 -0.3310
21642W        W38489   1.554  16.458  14.924  0.0467 -0.1810 -0.1369
21643W        W38490  10.777  16.699  12.048 -0.0803  0.1123  0.1398
21644W        W38491   3.730  15.586  14.197 -0.2101  0.0570 -0.0759
21645W        W38492  16.350  11.843   0.408 -0.6009  0.0783 -0.1451
21646W        W38493  10.768   2.532  11.741 -0.0087  0.0106 -0.0115
21647W        W38494   2.683  10.085  13.246  0.0399  0.0441  0.1473
21648W        W38495  13.878   2.435   4.828 -0.3561  0.3583  0.0423
21649W        W38496  10.864   4.063  11.176  0.0209  0.0542  0.2755
21650W        W38497  14.667  10.877  10.850 -0.0503  0.2619 -0.0325
21651W        W38498  18.123   4.184   3.501  0.1825 -0.2446 -0.0650
21652W        W38499   1.256  14.717   2.839 -0.0965 -0.0815 -0.0882
21653W        W38500   9.233  12.097  13.779 -0.0146  0.0940  0.0903
21654W        W38501  16.162   4.419   1.257  0.1943  0.1062  0.1352
21655W        W38502   2.958  15.292  13.047  0.0132  0.1049  0.0038
21656W        W38503  10.763  12.348   2.145  0.1003  0.3444  0.0594
21657W        W38504  18.973  18.780   3.872 -0.1257  0.0830  0.2808
21658W        W38505  14.920  11.956  10.563  0.0290 -0.0507 -0.1560
21659W        W38506  15.194   3.911   2.715  0.0505  0.0803  0.1096
21660W        W38507  16.672   0.074   2.573 -0.0356  0.0295  0.1400
21661W        W38508  10.510  19.096  13.472 -0.2189 -0.1913  0.1324
21662W        W38509  15.721   1.582  13.787 -0.1148 -0.0080 -0.1149
21663W        W38510  16.754  11.257   4.496  0.4024 -0.1202  0.0555
21664W        W38511  12.241  16.534   3.697 -0.1337 -0.0072 -0.0372
21665W        W38512   4.894   9.222  10.657  0.2172  0.0631 -0.0656
21666W        W38513   7.616  14.828  13.866 -0.2105  0.0967  0.2189
21667W        W38514  18.860  12.364  13.154 -0.1036  0.1101  0.1106
21668W        W38515   2.047   8.079  10.950  0.2225 -0.0213 -0.0168
21669W        W38516   4.492   6.163   1.089 -0.0583 -0.0176 -0.0648
21670W        W38517   5.283  18.961   0.702 -0.2818 -0.3539  0.0308
21671W        W38518   3.772   5.736   0.659  0.1495  0.3132 -0.2685
21672W        W38519  10.195  16.809   0.159  0.0251  0.1950  0.2634
21673W        W38520  18.424   5.604   0.952 -0.0759 -0.1661  0.2271
21674W        W38521   8.387   1.710  12.516 -0.1155  0.0096 -0.2678
21675W        W38522  18.322  15.265  14.513 -0.4029 -0.2549  0.1321
21676W        W38523   7.424  12.564   3.192 -0.0726  0.1974 -0.1563
21677W        W38524   5.451   9.809   0.101  0.0458  0.0984  0.2327
21678W        W38525  13.985  15.164  14.618 -0.0151 -0.0037  0.1617
21679W        W38526  18.541  15.718  14.682 -0.2647 -0.1112  0.1135
21680W        W38527  11.133   2.627  14.556 -0.0556 -0.0057  0.0028
21681W        W38528   9.486   6.502   5.042  0.0641  0.3205  0.0135
21682W        W38529   0.519   7.546  12.659 -0.1088 -0.2341  0.2660
21683W        W38530  10.020   1.125  14.085 -0.1029  0.1576 -0.0436
21684W        W38531   9.259  12.164  10.230 -0.3083  0.0067 -0.2370
21685W        W38532   1.235  17.362  11.189  0.0980 -0.0501  0.1633
21686W        W38533  13.437  19.231   0.124 -0.2374  0.4133 -0.0995
21687W        W38534   9.291   4.920  10.327 -0.0481 -0.0025  0.2899
21688W        W38535   1.398   1.204   1.687 -0.1474  0.1526  0.2602
21689W        W38536   0.900  17.497   2.447  0.0119  0.2750 -0.1362
21690W        W38537  18.980   4.049  10.813 -0.0912  0.3239  0.0161
21691W        W38538   1.746  18.337   0.262  0.0578  0.2125 -0.0817
21692W        W38539  13.281   0.560   0.891  0.1294  0.1652 -0.1170
21693W        W38540  12.610  13.815   2.229 -0.0631  0.0714  0.0355
21694W        W38541   9.305  17.465   1.516  0.2064  0.1558 -0.2510
21695W        W38542  13.574   5.196  14.814 -0.2766  0.0127 -0.0996
21696W        W38543   3.412   9.049   5.094  0.3127 -0.1602  0.0229
21697W        W38544  16.594  18.908   4.067  0.0145  0.1428  0.1316
21698W        W38545  13.213   5.060  11.181  0.1907 -0.0112 -0.0310
21699W        W38546   1.972   1.585   3.197  0.0652  0.2644  0.0462
21700W        W38547   3.656  13.376  12.626  0.0155 -0.0776 -0.1259
21701W        W38548   9.064  18.169  12.147  0.1116  0.0326 -0.1631
21702W        W38549   8.034   6.476  12.002 -0.1442 -0.0560 -0.1205
21703W        W38550  17.283  10.754  13.803  0.3272  0.1908 -0.1272
21704W        W38551  16.087   9.130   0.281 -0.0265  0.4114 -0.1598
21705W        W38552   3.033   3.185  14.304 -0.1506 -0.2732  0.1132
21706W        W38553   9.516   0.954  14.274 -0.0588  0.4052  0.2166
21707W        W38554  18.179  18.503  11.418  0.2323  0.2438  0.3255
21708W        W38555  15.378   8.597  11.193 -0.1414  0.2290  0.1318
21709W        W38556   5.003   6.713   1.788 -0.0491 -0.0262 -0.1969
21710W        W38557   1.612  10.643   2.884  0.3514  0.1955 -0.0955
21711W        W38558  14.047  19.068   5.222 -0.1098 -0.2456 -0.4930
21712W        W38559   8.965  16.254  13.476 -0.0789  0.0627  0.3113
21713W        W38560   5.679  10.578  14.662  0.4142  0.1346  0.3448
21714W        W38561  12.978  14.222  11.708 -0.3926  0.0907 -0.3962
21715W        W38562   0.699  16.025  13.837 -0.0036 -0.0546 -0.2870
21716W        W38563   2.091  13.604   1.771 -0.0843 -0.0602  0.2955
21717W        W38564  11.363   4.146  10.852 -0.2445  0.3461 -0.0655
21718W        W38565   2.508   3.413   4.673 -0.0359  0.0157  0.0339
21719W        W38566   5.752   3.747   1.829 -0.1199 -0.2367  0.1365
21720W        W38567   7.715  13.681  13.534 -0.0663 -0.0387 -0.4543
21721W        W38568  18.902  15.557  10.632 -0.1189  0.0677 -0.2591
21722W        W38569   0.510  15.392  12.550 -0.0393  0.0409  0.1526
21723W        W38570   5.905   0.194   2.865  0.0125 -0.1453  0.1741
21724W        W38571  17.998   0.758   5.195 -0.0265  0.1964 -0.0102
21725W        W38572   4.419  16.451  11.950 -0.1655 -0.0347 -0.0593
21726W        W38573   4.681   8.710  14.030 -0.3799  0.2802 -0.1640
21727W        W38574  13.225   5.737  13.188  0.0645  0.1629  0.0376
21728W        W38575  15.573   2.962  11.988  0.0984 -0.1762 -0.0948
21729W        W38576  18.366   5.448  12.595  0.0784  0.1149 -0.2313
21730W        W38577  17.282  18.994  12.865  0.0056  0.2622  0.0279
21731W        W38578   1.234   9.273  14.662  0.3889 -0.0236 -0.3716
21732W        W38579   2.672  17.405  10.663 -0.0279  0.1056 -0.3579
21733W        W38580  17.095  17.853   3.639 -0.3480  0.2462  0.3473
21734W        W38581  15.635   1.107  13.773  0.3351 -0.1520 -0.3496
21735W        W38582  18.676   0.369  14.535  0.0176  0.2689 -0.2494
21736W        W38583  13.479   3.580  11.178 -0.1512  0.0569  0.0523
21737W        W38584  11.593   4.054  12.218  0.1572 -0.0003  0.1437
21738W        W38585  11.689  13.928  10.619  0.0110  0.0045 -0.0135
21739W        W38586   8.748  11.812  14.718  0.3059 -0.1413 -0.0250
21740W        W38587  12.170  11.256   4.636  0.0538  0.1196  0.1791
21741W        W38588   8.560  16.997   2.741 -0.0852  0.2919  0.2008
21742W        W38589  13.717   1.758  14.886  0.1301 -0.1715  0.0842
21743W        W38590  17.222   3.789  13.784 -0.0783  0.1951  0.0502
21744W        W38591   8.651   7.598   4.549  0.0126  0.1405 -0.0004
21745W        W38592   7.254   6.500  14.813 -0.0232  0.1412 -0.2550
21746W        W38593   3.575   5.140   1.410  0.0307 -0.1681 -0.0839
21747W        W38594  12.127   2.217  13.171  0.2422 -0.1495 -0.2346
21748W        W38595  15.399   3.489   2.532  0.0952  0.0170 -0.0219
21749W        W38596  18.650  18.587   3.498  0.1233 -0.0984 -0.1052
21750W        W38597  17.309  18.205   0.700  0.2271  0.0178 -0.0751
21751W        W38598  15.708   9.513   1.711  0.0118  0.0206  0.2424
21752W        W38599  13.938  17.868   2.406  0.2117 -0.3585  0.4073
21753W        W38600  12.564  17.431   3.743  0.1509  0.1762 -0.0679
21754W        W38601  10.846  11.296  14.657 -0.0525 -0.3724  0.4973
21755W        W38602   8.605   0.453   5.619  0.4073  0.5782 -0.3285
21756W        W38603  17.891  10.797   2.354 -0.1214  0.1529  0.1044
21757W        W38604  16.490   9.537   4.776  0.0354 -0.0979 -0.2551
21758W        W38605   5.884  18.927   5.199 -0.1067 -0.3714  0.1856
21759W        W38606   1.369   7.082   3.754  0.1277 -0.0907 -0.2876
21760W        W38607   0.556  19.244  12.933  0.2229 -0.1297  0.1782
21761W        W38608  14.031  16.201  13.814 -0.3701  0.2882 -0.3744
21762W        W38609   1.530   4.793  11.712 -0.1464 -0.0066 -0.1319
21763W        W38610  11.337   9.179  12.970  0.2586  0.1212 -0.1971
21764W        W38611  10.168  13.066   0.027  0.2170 -0.2837 -0.0550
21765W        W38612   8.329  10.727  13.332 -0.1317  0.0086 -0.1386
21766W        W38613  10.588   2.566  11.004 -0.0282 -0.3924 -0.2399
21767W        W38614   8.981   6.044  12.238  0.0397 -0.0931  0.0192
21768W        W38615   6.699   5.845  14.858  0.1704  0.4247  0.2108
21769W        W38616   8.504   8.548   3.353  0.0701  0.2703  0.1498
21770W        W38617  14.929  10.324  14.667 -0.0763  0.0278  0.4530
21771W        W38618  12.212   3.954  12.272  0.0502  0.1063  0.1172
21772W        W38619   0.966   2.047  12.499 -0.1043 -0.2189  0.0021
21773W        W38620   9.875   1.302  12.929 -0.0554 -0.2011  0.0466
21774W        W38621   5.096  15.871   3.108 -0.0055 -0.0978 -0.1217
21775W        W38622  11.081  18.047   0.638  0.0365  0.0093  0.3168
21776W        W38623  18.116  13.906  11.684 -0.1005  0.1418  0.3542
21777W        W38624   9.852   5.781   0.456 -0.1191  0.2113 -0.2437
21778W        W38625  10.265   0.838   4.331 -0.1445 -0.1257 -0.1131
21779W        W38626  17.027  18.508   4.922  0.1388 -0.1039 -0.1941
21780W        W38627   1.450  15.733  11.614  0.2607 -0.0184  0.0556
21781W        W38628  19.056  18.301   0.593  0.3491 -0.2008  0.1378
21782W        W38629   8.306  12.145   4.814  0.0688 -0.0815  0.1795
21783W        W38630  19.083   1.498  11.320  0.0158  0.0885 -0.2807
21784W        W38631  15.356  11.132   2.960 -0.2683 -0.2610  0.1555
21785W        W38632   3.906   7.854   2.885 -0.0042  0.2399  0.1523
21786W        W38633   7.698  13.452  11.722  0.2764 -0.3525 -0.3489
21787W        W38634  12.062  14.592   3.223 -0.1309 -0.0513 -0.1524
21788W        W38635  14.305  10.938  13.064 -0.2679 -0.2083 -0.1429
21789W        W38636   2.864   0.075   3.073 -0.0823 -0.2532 -0.1750
21790W        W38637   5.555  11.602   2.092 -0.0159 -0.0771  0.0693
21791W        W38638   8.658   1.132   4.902  0.3260 -0.2935  0.1925
21792W        W38639   7.534   5.487   2.473 -0.0596 -0.0278  0.1732
21793W        W38640   4.904   2.238   0.204  0.3251  0.0644  0.1709
21794W        W38641   0.016   7.499  12.758 -0.1099  0.1149 -0.1005
21795W        W38642   3.526  13.871  14.914  0.2527  0.0511  0.0205
21796W        W38643  11.474  13.480  11.709  0.1112  0.0895 -0.0142
21797W        W38644   8.461   4.555   2.793 -0.0105  0.1038 -0.1207
21798W        W38645  10.295   3.346  11.311  0.0903  0.0233  0.0797
21799W        W38646   2.303  13.999   1.958  0.0146 -0.2443 -0.1083
21800W        W38647  18.519   7.954   0.187 -0.0950  0.1654 -0.3819
21801W        W38648  10.187  13.382  13.962 -0.1205  0.2689 -0.0738
21802W        W38649   4.061   6.816  11.016  0.3461  0.5030 -0.1859
21803W        W38650  11.373  17.152   2.858  0.3673 -0.0785  0.3868
21804W        W38651   1.940   2.658  12.624  0.0022 -0.0238 -0.0421
21805W        W38652  10.681  14.344   2.174  0.0089  0.1037  0.1013
21806W        W38653  18.778   9.490   5.190 -0.1364 -0.1998 -0.0909
21807W        W38654  15.359  15.885   4.790  0.1026  0.2585 -0.2824
21808W        W38655  18.348  13.141  14.232 -0.4279 -0.0681  0.1320
21809W        W38656  13.379  13.891   1.909 -0.0245 -0.0477 -0.0111
21810W        W38657   9.667   6.629   4.520 -0.0121  0.1619 -0.1860
21811W        W38658  17.291  14.310   3.658  0.1380  0.2896  0.0417
21812W        W38659   5.410   8.543  13.756 -0.3952  0.1762  0.0270
21813W        W38660  18.994  17.471  11.789 -0.1973 -0.0533  0.1604
21814W        W38661  17.630  19.098  12.522  0.1611 -0.0302 -0.3211
21815W        W38662   1.875  13.891   2.798 -0.0363 -0.2139  0.0252
21816W        W38663  16.065  18.618  14.457 -0.0305  0.3409  0.1049
21817W        W38664  15.879   1.649  12.519 -0.0682  0.2176 -0.0495
21818W        W38665  17.415  18.848   2.945 -0.1287 -0.1801  0.1521
21819W        W38666   4.212   6.032   3.277 -0.1126 -0.0713 -0.1708
21820W        W38667   5.058  17.379   1.607  0.0125  0.1381 -0.0257
21821W        W38668  17.356   2.173  12.568 -0.2042 -0.2060 -0.0772
21822W        W38669  13.096  15.074   0.903  0.1146  0.0225  0.1641
21823W        W38670   7.921   0.000  12.147  0.0652  0.0796  0.4480
21824W        W38671   9.866   8.663   0.059  0.1935  0.0634 -0.0328
21825W        W38672  10.937   2.006   3.122 -0.0614 -0.3369 -0.2540
21826W        W38673  10.091  16.253   9.892  0.2337 -0.2911  0.0335
21827W        W38674   6.813   9.477  10.356  0.0599  0.0734 -0.2363
21828W        W38675   5.992   1.075  11.536 -0.2093 -0.0768 -0.4419
21829W        W38676  15.569   7.738  10.739 -0.2095 -0.1080  0.1644
21830W        W38677  10.758   8.731   3.456 -0.2159 -0.0235 -0.2319
21831W        W38678   8.302   2.857  11.180 -0.0540  0.2659 -0.0798
21832W        W38679  14.344  17.430   2.539 -0.0555  0.4047  0.0959
21833W        W38680   7.262  14.497  14.195 -0.2462 -0.0212  0.2188
21834W        W38681  14.532   4.152  12.475 -0.1914  0.1128 -0.1302
21835W        W38682  17.664  15.738   4.344 -0.0534  0.3670  0.1841
21836W        W38683  17.185   9.349   3.412 -0.2681 -0.2009  0.1423
21837W        W38684  14.244  14.059   5.334 -0.0901  0.0679  0.1406
21838W        W38685  18.599   7.383   2.251 -0.0459 -0.0971  0.0918
21839W        W38686  12.576   5.667   3.424  0.1521  0.2866  0.0690
21840W        W38687   2.478   6.243  12.077 -0.0260 -0.0940 -0.1943
21841W        W38688  15.968  18.193  14.782 -0.0125  0.2514 -0.2428
21842W        W38689   9.498   9.389  14.490 -0.1187  0.3630 -0.1585
21843W        W38690   9.977  18.817   3.385  0.1465 -0.1775  0.2599
21844W        W38691   0.992  19.142  13.901 -0.2651 -0.2567 -0.0297
21845W        W38692   5.092   1.652  14.537 -0.3587  0.2872  0.4182
21846W        W38693   0.691  12.934   3.142 -0.1029 -0.0092 -0.1776
21847W        W38694   6.249   6.303   1.005  0.2014  0.1758  0.2885
21848W        W38695  19.143   9.642   0.083  0.0892  0.2664 -0.0468
21849W        W38696  12.508   5.117   3.340 -0.1577 -0.3639 -0.2809
21850W        W38697  10.202  11.610  12.361 -0.0427  0.2283 -0.3747
21851W        W38698   2.264  17.060  13.914 -0.1404  0.1865 -0.0605
21852W        W38699   8.424   1.016   2.001 -0.2463 -0.2166 -0.0289
21853W        W38700   4.437   9.795  10.410  0.2339 -0.0448 -0.0403
21854W        W38701  16.682  16.106  11.700  0.2266  0.0922 -0.3813
21855W        W38702   7.332   1.741  14.335  0.1196  0.2222 -0.0782
21856W        W38703   0.585   3.914   9.853  0.2478  0.1858  0.2110
21857W        W38704  14.575   9.683   0.518 -0.1968 -0.2124 -0.2049
21858W        W38705  16.098   5.493   9.677 -0.0064  0.0959  0.2467
21859W        W38706   7.635   2.137  13.402 -0.0614  0.0986  0.0694
21860W        W38707  10.952   1.839   4.668  0.0367 -0.1233 -0.2027
21861W        W38708  11.488   3.296   3.762  0.1665 -0.3517 -0.0150
21862W        W38709  16.650  14.579  11.420  0.0516 -0.0324  0.2171
21863W        W38710  16.922  16.322  11.073 -0.0780  0.1051  0.1976
21864W        W38711  13.403   5.983   5.080  0.2257 -0.0131 -0.0521
21865W        W38712  17.484  17.363   3.540  0.2344 -0.1148 -0.0684
21866W        W38713   0.195  14.065   0.703  0.2120 -0.0415 -0.1730
21867W        W38714   4.579  17.433   5.320  0.1226 -0.0841 -0.1019
21868W        W38715  12.828   5.883  11.547  0.1104  0.0965 -0.4232
21869W        W38716  13.344  10.789  10.095 -0.0697 -0.2497 -0.1960
21870W        W38717  10.850   7.571  10.973 -0.1611  0.0928 -0.0629
21871W        W38718   2.040  15.189   3.331  0.3572 -0.0505  0.1408
21872W        W38719  17.360   1.787  14.780  0.0416  0.3516 -0.1531
21873W        W38720   3.268   3.285   3.897  0.0620  0.1484  0.2025
21874W        W38721   9.660  15.831   3.981 -0.0060  0.1189  0.3944
21875W        W38722   7.755   2.586   1.590  0.2081  0.1102 -0.1417
21876W        W38723  15.504   9.850   2.285 -0.1596 -0.0562  0.1960
21877W        W38724   2.017   5.198   3.732  0.0690 -0.1827  0.0970
21878W        W38725  10.106   0.098   2.720 -0.0878  0.0296  0.0010
21879W        W38726   8.305   7.757   2.842  0.0483 -0.4675  0.0844
21880W        W38727   2.399  12.090   1.901  0.0244  0.0409  0.2955
21881W        W38728  17.323  13.640   2.923 -0.0204 -0.5538  0.1370
21882W        W38729  14.627   3.845   2.123  0.2687  0.3200  0.3176
21883W        W38730  17.300  14.382  13.368  0.1544  0.3638  0.2672
21884W        W38731  16.144  15.653  14.576 -0.0870  0.1762 -0.2844
21885W        W38732   6.673   4.504   0.406 -0.1545  0.0794 -0.0213
21886W        W38733  14.571   9.392  11.898 -0.4251 -0.3247 -0.0870
21887W        W38734  11.326   1.884  11.142  0.1394  0.0614 -0.2244
21888W        W38735   5.583   8.224  10.787  0.3215 -0.1333 -0.2416
21889W        W38736   9.153   3.348  11.461  0.0207 -0.0852  0.3106
21890W        W38737  14.184  18.280   3.192  0.0425  0.1236 -0.1288
21891W        W38738   4.795  18.731   4.657 -0.2041  0.0451 -0.0225
21892W        W38739   8.338  12.181  12.252  0.1491  0.2555 -0.0505
21893W        W38740   6.115   7.721   0.137 -0.0415 -0.1303 -0.0208
21894W        W38741  15.797  15.969   5.029 -0.1234  0.0707 -0.1989
21895W        W38742   7.239  10.880  11.374 -0.2788  0.0863  0.1591
21896W        W38743   3.973  16.922   2.011  0.2749 -0.0711 -0.2335
21897W        W38744   3.169  12.259   3.274 -0.1289 -0.1340 -0.1494
21898W        W38745   3.875   1.116   1.171 -0.1567 -0.0372  0.1513
21899W        W38746  19.013   9.356  13.833  0.1961  0.1867  0.0383
21900W        W38747  17.506   2.877  10.315 -0.3147  0.2578 -0.1122
21901W        W38748  19.253  14.842   2.192 -0.1277  0.1927  0.2356
21902W        W38749   8.803  10.612   3.539 -0.0102  0.3206 -0.0807
21903W        W38750  12.241  14.180  14.630  0.0816  0.0212  0.1496
21904W        W38751  10.571  14.128  12.212 -0.2697  0.0491  0.0348
21905W        W38752  11.959   8.993   5.545 -0.2687 -0.3996  0.1544
21906W        W38753  15.728   3.908  13.241 -0.2980 -0.0788 -0.0139
21907W        W38754  18.644  15.231  12.039 -0.1194 -0.0892 -0.1117
21908W        W38755   5.842  11.006  13.261 -0.2659  0.1251  0.0007
21909W        W38756  19.260  13.799  13.792  0.2150  0.0935 -0.2055
21910W        W38757   6.702  11.973   2.106  0.1652 -0.1199  0.1758
21911W        W38758   6.882   4.583   9.617  0.3178 -0.1102 -0.4123
21912W        W38759  12.083  12.971  14.575 -0.0828 -0.1382  0.2490
21913W        W38760   5.854   8.525   1.493  0.0215 -0.3345  0.1126
21914W        W38761   6.922   6.070   5.017 -0.0810  0.2113  0.0255
21915W        W38762  15.027  18.654   1.816  0.0855 -0.1080 -0.0874
21916W        W38763  13.546   7.450  13.841  0.2160  0.1608  0.2592
21917W        W38764  10.038   4.400   1.516  0.1019 -0.0246  0.2710
21918W        W38765   7.318  13.500  11.422  0.0264 -0.3440 -0.0614
21919W        W38766  18.543   5.791   4.127 -0.2726 -0.0236  0.0888
21920W        W38767   8.592   9.957   1.571  0.2088  0.0751 -0.0923
21921W        W38768  10.748  12.503  13.931 -0.1108  0.0774  0.0195
21922W        W38769   1.004  19.239  13.418 -0.0406 -0.2983 -0.3411
21923W        W38770  14.148  14.324   2.446 -0.1244 -0.2863 -0.1546
21924W        W38771  11.341   6.870   4.436 -0.2831 -0.0067  0.0960
21925W        W38772   8.827  15.106   2.989 -0.3050  0.2299 -0.2542
21926W        W38773   3.149  14.851   2.896  0.3985  0.2435  0.2008
21927W        W38774   7.966   6.304   2.561 -0.1701  0.1696  0.0812
21928W        W38775   2.846  11.525   1.256  0.1884 -0.1122 -0.2601
21929W        W38776   6.676   7.334   0.659  0.2834  0.1107  0.2294
21930W        W38777  10.277  10.401  14.163  0.0024  0.0526  0.3793
21931W        W38778  10.245  17.278  13.509 -0.1360  0.1165  0.0288
21932W        W38779  17.012  11.107   1.668 -0.1742 -0.2167  0.4771
21933W        W38780   8.999   7.327  13.512 -0.0201 -0.0236  0.1881
21934W        W38781   6.403   1.887  10.377 -0.1036 -0.2979 -0.0910
21935W        W38782   4.668   0.684  14.614  0.1224  0.3509  0.0280
21936W        W38783   7.635  14.387   3.308  0.0668 -0.0606  0.0498
21937W        W38784  18.408  10.595  11.282  0.0452  0.0431  0.0359
21938W        W38785   4.638   6.741   5.291  0.0554  0.0880  0.2213
21939W        W38786  15.545   2.080   2.469  0.1728  0.1098  0.0168
21940W        W38787  11.551  16.863   1.463 -0.0987  0.0340 -0.2576
21941W        W38788  13.872  10.069   2.744 -0.1847 -0.0792 -0.0158
21942W        W38789  17.002   3.085   2.918  0.0493 -0.1742  0.2647
21943W        W38790   6.870   6.848  14.804 -0.3139  0.1479  0.0650
21944W        W38791   7.393  12.214   4.392 -0.0307  0.0695  0.0246
21945W        W38792   3.654   7.207   5.313 -0.0546 -0.3549  0.1340
21946W        W38793  12.445   4.871   0.139 -0.0890 -0.0252  0.0952
21947W        W38794   0.252   4.941  12.520  0.0635 -0.1704  0.0115
21948W        W38795  14.407  16.339  12.755 -0.2891 -0.1858  0.0284
21949W        W38796  11.120  10.917   2.422 -0.4807  0.3146 -0.0250
21950W        W38797   8.236   0.040   1.403 -0.1485  0.2577 -0.2718
21951W        W38798   3.562   8.858  12.364  0.1998  0.0907 -0.0281
21952W        W38799   4.532  18.543  11.474  0.0950 -0.1073  0.1133
21953W        W38800   8.963  11.830  10.412  0.1242 -0.0503  0.0943
21954W        W38801  16.135  10.703   2.305  0.2610  0.0005  0.0264
21955W        W38802  15.088   4.841  10.308 -0.2049  0.2183 -0.1174
21956W        W38803  11.558  13.594  11.141  0.2958  0.2469  0.1048
21957W        W38804   2.367  11.791  12.733 -0.1245 -0.0109 -0.1841
21958W        W38805   4.819  14.545   2.017 -0.1421 -0.1495  0.2301
21959W        W38806  18.102   9.463   5.074  0.4101  0.2414  0.2590
21960W        W38807   3.739  13.363   1.613 -0.1607 -0.1255 -0.0656
21961W        W38808  12.006   3.912   4.169  0.1722  0.3732  0.1490
21962W        W38809   9.326  11.221  13.974 -0.0997 -0.2739  0.0824
21963W        W38810   6.603  19.221   2.874 -0.1806  0.3169 -0.2249
21964W        W38811   2.461   2.604   2.584 -0.3796  0.2531 -0.1261
21965W        W38812  11.225   4.385   1.002  0.1223  0.0111 -0.3630
21966W        W38813  10.118   6.947   4.490 -0.0889 -0.0266  0.1880
21967W        W38814   9.851   0.275  14.649  0.0323 -0.0651  0.1015
21968W        W38815   5.141   8.566  14.631 -0.3214  0.1144 -0.0320
21969W        W38816   1.703   8.149   2.286 -0.1471  0.0641 -0.1450
21970W        W38817   0.296   3.684  11.597 -0.0329  0.1210  0.2554
21971W        W38818  11.774   2.277   1.073 -0.0700  0.1499 -0.1381
21972W        W38819   6.992  12.177  11.472  0.1285 -0.2273 -0.1594
21973W        W38820  13.798  18.770  13.540 -0.2743  0.0642 -0.0313
21974W        W38821   8.250  18.489  11.160  0.1685 -0.2019  0.2788
21975W        W38822  14.743  18.983   5.506  0.1181  0.3438  0.0551
21976W        W38823   3.686   1.711  10.097 -0.0704 -0.0767 -0.2110
21977W        W38824   8.830  15.594  14.712  0.1210  0.0087  0.1089
21978W        W38825   9.777  16.151  13.928  0.0267  0.2641  0.0379
21979W        W38826   3.281  13.876  12.704  0.2076  0.2500 -0.1404
21980W        W38827  10.987  15.160   3.582  0.4558 -0.1304  0.2512
21981W        W38828   2.111  12.814   2.957 -0.1121  0.0848  0.0522
21982W        W38829   8.048   2.366  11.888  0.1135  0.0486 -0.2289
21983W        W38830  10.245  12.994  10.780 -0.1243  0.1948  0.0851
21984W        W38831  16.464  16.147   5.808 -0.0272  0.0742 -0.0109
21985W        W38832   9.567   8.239   2.981  0.0196  0.2999  0.2605
21986W        W38833  19.090  12.580   0.999 -0.0721 -0.0947 -0.0561
21987W        W38834   1.421   3.921  13.451 -0.1387  0.3230  0.1599
21988W        W38835   6.520   1.076   1.614 -0.2654  0.1353  0.0949
21989W        W38836   0.008   7.233   1.480 -0.3540 -0.0809 -0.1234
21990W        W38837  15.526   7.733   2.670 -0.1621  0.2107 -0.0688
21991W        W38838   9.269  16.335   1.978  0.0906 -0.0093  0.0642
21992W        W38839   9.942   4.936   0.461 -0.0851  0.1145 -0.0204
21993W        W38840  18.096  14.674   1.935  0.0078 -0.1945 -0.1874
21994W        W38841  18.819  10.562   2.987  0.1747  0.3398 -0.1621
21995W        W38842  17.375   0.606   2.894  0.0401 -0.0209 -0.3543
21996W        W38843  19.250   9.958   5.239 -0.1338 -0.0281 -0.1914
21997W        W38844   3.478  14.706  10.696 -0.1444  0.3378 -0.0959
21998W        W38845   6.245   7.608  13.706  0.4698 -0.0811  0.3882
21999W        W38846   9.705   1.290   3.944  0.1136 -0.2274  0.1166
22000W        W38847  14.435  10.333   0.424 -0.0346  0.1230 -0.0239
22001W        W38848  13.290  15.869   3.092  0.0360  0.1311  0.1370
22002W        W38849  17.966  19.117   2.257  0.1085 -0.3401 -0.1501
22003W        W38850   8.845  13.904   0.039 -0.0761  0.0060 -0.1753
22004W        W38851  15.098  18.165   4.987  0.0528  0.1192 -0.0613
22005W        W38852   7.477  19.277   0.242 -0.1104  0.0898  0.1842
22006W        W38853  16.257   8.698  14.053  0.2230 -0.2361  0.1930
22007W        W38854   8.777  11.186   1.649  0.1027  0.3272 -0.0248
22008W        W38855   1.546   2.142  13.275  0.0037 -0.3648 -0.2050
22009W        W38856  19.050  16.971  10.627 -0.0852  0.2110 -0.0530
22010W        W38857  18.280   2.682   1.338  0.0830  0.0061  0.0797
22011W        W38858  17.026   9.879  14.216 -0.1726  0.1510  0.3202
22012W        W38859   8.046  14.398  11.737 -0.1105  0.2877 -0.1490
22013W        W38860  17.752   5.249   3.926 -0.0440  0.1152  0.1624
22014W        W38861  18.532  16.894   2.205  0.2831 -0.1525 -0.1396
22015W        W38862   6.877   4.350   5.191  0.1155 -0.2266  0.0336
22016W        W38863   3.706   6.335  13.421 -0.1019  0.0248 -0.0430
22017W        W38864  11.170   9.442   1.334  0.0808 -0.0927 -0.1438
22018W        W38865   8.728  16.923  14.305  0.1940 -0.1583  0.0290
22019W        W38866  18.872   9.257   1.805  0.2832  0.0563  0.0073
22020W        W38867   2.947  17.929  13.753  0.2938  0.0626  0.1698
22021W        W38868   6.771  10.797  12.517 -0.0472 -0.2721 -0.1726
22022W        W38869  18.280   5.063   3.027  0.0987 -0.0175  0.0865
22023W        W38870   9.586  17.222  12.488  0.0280 -0.2695  0.1517
22024W        W38871   9.612   6.164   1.264  0.1565  0.0286 -0.0953
22025W        W38872   1.074   3.671  13.792  0.0315 -0.2453  0.0243
22026W        W38873  13.468  18.608   3.790 -0.1802  0.1888  0.1627
22027W        W38874   4.967   6.930  14.131 -0.0128  0.1565  0.1371
22028W        W38875   9.974   1.153   2.020 -0.4136  0.1079  0.2373
22029W        W38876  18.048   5.652  13.513 -0.5140 -0.0312  0.1547
22030W        W38877  15.197  14.589  12.999  0.4748  0.0598 -0.3371
22031W        W38878   4.898  14.111  14.139  0.2113  0.1041 -0.0308
22032W        W38879  13.171   7.821  11.621  0.2267  0.1006 -0.1268
22033W        W38880  16.915  18.774   0.845 -0.0116  0.3035 -0.2956
22034W        W38881  18.194  14.155   2.829  0.1415 -0.1791  0.3219
22035W        W38882  11.041  11.257   2.807 -0.1104  0.3341  0.1087
22036W        W38883   4.634  15.348  14.699 -0.3107  0.2865 -0.1609
22037W        W38884  12.434   7.772   1.158 -0.1161 -0.1204  0.0664
22038W        W38885   1.664   1.480   0.800  0.1964 -0.4192 -0.0064
22039W        W38886  14.741  10.346   2.188 -0.3150 -0.0667 -0.0801
22040W        W38887  13.030   1.943   1.063 -0.1126  0.1020 -0.0393
22041W        W38888  10.047  11.806  13.584 -0.0899  0.1448 -0.2074
22042W        W38889  15.723  16.034   3.635  0.0901 -0.1579 -0.0135
22043W        W38890   0.601  10.632  10.575  0.2057 -0.0561  0.3571
22044W        W38891  14.528  18.243   4.621 -0.1716 -0.1314 -0.0300
22045W        W38892  13.540   6.338   0.031 -0.0467  0.0320 -0.2422
22046W        W38893   3.147   0.073  13.691  0.0824  0.1013 -0.2354
22047W        W38894  15.352   5.359  12.454 -0.2110  0.0153  0.4474
22048W        W38895   5.118   1.008  10.300  0.2081  0.1262 -0.1618
22049W        W38896   7.646  14.329  10.601  0.3172 -0.0305  0.0222
22050W        W38897  13.111  17.228   1.355  0.3061 -0.1686 -0.1629
22051W        W38898  13.702   0.062  14.270  0.3739 -0.1037 -0.0017
22052W        W38899  15.461   7.760  11.336  0.2993  0.0954  0.2658
22053W        W38900   8.750  13.424  10.624  0.1101 -0.1957  0.3714
22054W        W38901   6.102  10.780   3.459 -0.2374  0.2407  0.0848
22055W        W38902   1.598  14.608  14.219  0.0494 -0.0233 -0.0367
22056W        W38903   2.585   1.759  14.936 -0.0758 -0.0212  0.1512
22057W        W38904   1.910   9.937  12.782  0.0290  0.0610 -0.1728
22058W        W38905   5.189  13.058  11.485  0.0665 -0.1897  0.0328
22059W        W38906   2.080   8.547  12.372 -0.0952 -0.5013 -0.2109
22060W        W38907  16.343   7.960  14.475  0.0054  0.2145  0.0842
22061W        W38908   9.395   7.031   4.729  0.1612  0.2723 -0.2708
22062W        W38909  18.922  11.875   2.854  0.2832  0.1380  0.0073
22063W        W38910   2.972   4.252   3.301 -0.0244 -0.0849  0.0129
22064W        W38911   7.369  10.644   2.108 -0.3173  0.3324  0.2970
22065W        W38912  13.454  19.200   2.596 -0.1111 -0.2013  0.0573
22066W        W38913  16.567  14.238  12.285  0.2958  0.0802 -0.4266
22067W        W38914   2.064   3.595   0.803 -0.1475  0.0560 -0.3291
22068W        W38915  15.743  13.173   1.447  0.1266 -0.1238 -0.0053
22069W        W38916   3.413   4.916  13.684  0.0571  0.1309 -0.0430
22070W        W38917   4.335   7.422   4.568 -0.1006 -0.1889 -0.0334
22071W        W38918  17.291  17.140   2.577 -0.0545  0.0554  0.1988
22072W        W38919   9.369  12.511   2.452  0.0450 -0.0717 -0.0028
22073W        W38920   9.878  13.981  14.643 -0.0619 -0.1055 -0.0005
22074W        W38921   6.253  15.083   0.689 -0.1254 -0.0394 -0.0767
22075W        W38922   3.212   7.991   1.238 -0.1747 -0.1383 -0.0919
22076W        W38923   0.064  16.589  11.962 -0.3470  0.0562 -0.2097
22077W        W38924  10.350   1.025   2.875  0.0407 -0.1188  0.2938
22078W        W38925  12.838   5.564   4.877 -0.0736  0.3319  0.1973
22079W        W38926   7.289  18.352   3.043 -0.2278 -0.3170 -0.1057
22080W        W38927  13.445  11.410   0.161 -0.1358  0.0933 -0.0838
22081W        W38928   0.443   5.724  12.793 -0.2103  0.4551  0.1352
22082W        W38929  16.737   7.167  11.304 -0.2860 -0.0040 -0.3215
22083W        W38930   9.935  18.612  11.751 -0.0442  0.1008 -0.0808
22084W        W38931   8.763   6.831  11.342 -0.0823  0.0144 -0.1484
22085W        W38932  14.862   8.204   0.566 -0.0773  0.0148 -0.2075
22086W        W38933   4.196  10.065   3.756  0.1639 -0.1761 -0.0913
22087W        W38934  15.972  12.028  13.654  0.4068  0.0673 -0.1296
22088W        W38935   4.353  12.850  11.504  0.0634  0.2853  0.1887
22089W        W38936  11.923  15.966   1.772  0.0517 -0.0849  0.0811
22090W        W38937  13.099  10.174   0.709 -0.0782  0.0404  0.0927
22091W        W38938   7.106   6.714  13.185  0.1312 -0.2645  0.0958
22092W        W38939  13.629  11.063   1.199 -0.1393  0.1052  0.2133
22093W        W38940  18.544   4.774   4.448  0.3127 -0.0702  0.0826
22094W        W38941   5.412   1.682   2.650 -0.0861  0.3188  0.0525
22095W        W38942   8.162   3.389  11.796 -0.0649  0.0116 -0.0954
22096W        W38943   8.286   1.855  10.909  0.0253  0.0578 -0.1126
22097W        W38944  14.771  11.440   1.342  0.1103 -0.3576  0.1573
22098W        W38945  16.692   4.179   3.993  0.0845  0.2715 -0.1610
22099W        W38946   3.686   1.971   0.370 -0.1057  0.2547  0.0082
22100W        W38947   0.600  13.440  11.349 -0.1289 -0.2369 -0.0435
22101W        W38948  16.417   6.927  10.367 -0.1944 -0.5309 -0.1657
22102W        W38949  10.874   3.658   5.308 -0.2358  0.1955  0.2029
22103W        W38950  16.395  14.962   1.541 -0.0512 -0.1102 -0.0238
22104W        W38951  12.356   7.253   9.402 -0.0261  0.1830 -0.0920
22105W        W38952  15.045  12.244  11.558 -0.3451 -0.3875  0.2061
22106W        W38953   3.984   3.600   3.242  0.0773 -0.2535  0.0693
22107W        W38954   7.046   0.578  14.582  0.0459 -0.3787 -0.2109
22108W        W38955  15.151  12.464  14.003 -0.2923 -0.0587 -0.2014
22109W        W38956   6.049   8.259  11.837 -0.0799  0.1791 -0.0443
22110W        W38957  11.815  15.200  13.919  0.0507  0.1744 -0.0363
22111W        W38958   9.376  17.836   0.596  0.1133 -0.0445  0.0183
22112W        W38959   5.019  11.071   3.135 -0.1088 -0.2862 -0.1321
22113W        W38960   8.935  15.965   1.962  0.0981  0.0984  0.3805
22114W        W38961   1.639   2.499   1.168 -0.0126 -0.0485 -0.1566
22115W        W38962  16.451   7.678   5.472 -0.2139 -0.0061 -0.0528
22116W        W38963  12.817  14.463   2.151  0.0611  0.1678 -0.5341
22117W        W38964   7.351   0.609  11.017  0.3217 -0.0666  0.1479
22118W        W38965   6.744   4.782  13.606 -0.0709 -0.2140  0.2556
22119W        W38966  16.544   3.706  12.387 -0.0665  0.2589 -0.0636
22120W        W38967  17.627   8.325   0.030  0.1632  0.4751 -0.0614
22121W        W38968  11.551  11.742   0.685  0.0201  0.0531 -0.0293
22122W        W38969  14.261   7.765  12.570  0.2607  0.1608 -0.2656
22123W        W38970  12.910  16.807   2.205  0.0643  0.0630  0.0406
22124W        W38971  13.429   5.251   3.855 -0.0923 -0.3020  0.1289
22125W        W38972  14.855   3.079  14.552  0.1468  0.1593 -0.0440
22126W        W38973   6.550  10.400   3.580 -0.4051 -0.2108  0.0958
22127W        W38974  13.536   3.511  13.257 -0.0057  0.0545 -0.1995
22128W        W38975   5.562  10.273  12.686 -0.2814  0.1111 -0.2213
22129W        W38976   6.132  10.034   4.012 -0.1849  0.0829  0.1426
22130W        W38977   7.513  13.963   1.099 -0.0926  0.2331  0.1955
22131W        W38978  14.596  10.768  11.726 -0.0082 -0.0678  0.0047
22132W        W38979  11.726   9.840   0.837 -0.0836 -0.0186  0.2701
22133W        W38980  13.337  11.821   2.899 -0.2378  0.0089  0.0750
22134W        W38981  11.626  15.443   2.817  0.4084 -0.0119  0.1542
22135W        W38982  18.440   9.820   5.288  0.0578 -0.2678 -0.0851
22136W        W38983   1.706  12.163   9.321 -0.0351 -0.0179  0.2493
22137W        W38984  13.715  17.456  13.127  0.0019  0.1124  0.3028
22138W        W38985  14.610   1.203   0.847  0.1633 -0.1704 -0.2192
22139W        W38986   7.490  13.256   4.496 -0.3186 -0.0195 -0.2457
22140W        W38987   7.015  10.583   3.930 -0.2333 -0.0248  0.0640
22141W        W38988  16.158  16.351  14.178 -0.0284  0.2256  0.2499
22142W        W38989  14.194  13.778   4.860  0.4263 -0.1330  0.2163
22143W        W38990   3.989   8.697   3.492  0.2150 -0.1918  0.0539
22144W        W38991  17.652  11.485  11.699 -0.3007 -0.0815  0.4380
22145W        W38992   4.183   3.502  10.733 -0.0592 -0.1256  0.4082
22146W        W38993  12.984  12.162   0.620  0.0095 -0.2981  0.1424
22147W        W38994  17.730   2.074  13.013 -0.0561 -0.0611 -0.0138
22148W        W38995  12.387   3.574  14.933  0.0684 -0.0146 -0.1498
22149W        W38996   1.251  11.013  11.580  0.0817  0.1574 -0.1331
22150W        W38997   9.687   6.506   2.410  0.2010 -0.0531  0.0867
22151W        W38998   2.010   3.581  10.827  0.1124  0.4488  0.1255
22152W        W38999  12.239   9.856  12.142 -0.0255  0.1071  0.2447
22153W        W39000  13.310  14.820  13.464  0.0765 -0.0930  0.0896
22154W        W39001  12.693   7.525  14.095  0.1519 -0.2131  0.3289
22155W        W39002   8.417   0.701   1.060 -0.2254 -0.0353 -0.2359
22156W        W39003   7.032   1.307   2.187 -0.2637 -0.1654 -0.2482
22157W        W39004  13.659  12.967   3.631  0.1841 -0.0863 -0.1532
22158W        W39005  17.550  15.210   4.466  0.2600 -0.2033 -0.0288
22159W        W39006   6.645   6.597  12.561  0.2928 -0.0452 -0.1305
22160W        W39007  10.678   9.526  14.645  0.2011 -0.0350  0.2691
22161W        W39008  11.932   7.357   4.606 -0.1302 -0.1436  0.0477
22162W        W39009  16.412   5.707   2.089 -0.0196 -0.0212 -0.0020
22163W        W39010  11.744  18.064  13.227  0.0838 -0.5013 -0.1273
22164W        W39011   0.835  12.731  14.525  0.2091 -0.0904  0.0785
22165W        W39012  11.782   8.181   4.082 -0.1272 -0.0474  0.1485
22166W        W39013  12.980   0.001   1.512 -0.0476 -0.0263 -0.2391
22167W        W39014  17.716   2.349  11.862  0.1951 -0.1069  0.1102
22168W        W39015   8.500  14.236   3.830 -0.2762  0.0792 -0.1277
22169W        W39016   6.871  13.404  13.253  0.1745 -0.1144  0.0306
22170W        W39017   2.020  18.253   1.379  0.0121 -0.0096 -0.1353
22171W        W39018  16.486  17.058  12.583 -0.0394  0.1764 -0.1732
22172W        W39019  12.140   9.909  11.162 -0.1482 -0.1081  0.2674
22173W        W39020  15.861   3.200   9.922  0.0613 -0.2228 -0.0104
22174W        W39021   6.062   6.809  11.030 -0.0362  0.0247 -0.1363
22175W        W39022   8.184   7.493  11.896  0.1737 -0.0396  0.1644
22176W        W39023  13.521   5.905   5.564  0.0241 -0.1070  0.0959
22177W        W39024   7.891   4.534   4.386  0.2744  0.0577 -0.1158
22178W        W39025   2.048   4.826  10.985  0.0990 -0.2447  0.2074
22179W        W39026   7.356   8.032  11.623  0.0402  0.2201 -0.1142
22180W        W39027   6.558   4.543   3.542  0.1078 -0.1788 -0.2006
22181W        W39028  18.591   8.578  13.357 -0.0156  0.1577  0.1615
22182W        W39029   2.455  17.250   4.031 -0.1681  0.0683 -0.1694
22183W        W39030   7.721  14.768   2.343 -0.0251 -0.0975  0.2987
22184W        W39031  15.663   8.901  10.926  0.0122 -0.3623  0.2183
22185W        W39032   4.361  10.787   5.046  0.0202 -0.0723  0.1098
22186W        W39033  15.430   2.964   3.490  0.2377 -0.0393  0.1989
22187W        W39034  14.780   8.517  12.922  0.3395 -0.2429  0.1130
22188W        W39035   5.635  10.314   4.744 -0.3844 -0.1015  0.2066
22189W        W39036  14.951  17.177  13.659  0.1077  0.0056 -0.5017
22190W        W39037  13.822  10.626   2.571 -0.0747 -0.2288 -0.0029
22191W        W39038  11.260  15.273   0.594  0.0968 -0.0062  0.0722
22192W        W39039   5.506   3.825   1.124 -0.4717 -0.2747  0.0231
22193W        W39040  12.442  15.470  10.889  0.1902 -0.1141 -0.1697
22194W        W39041   7.888  15.825   2.770 -0.2383  0.0128  0.0816
22195W        W39042   2.065   1.914  13.963  0.0230 -0.0810  0.1706
22196W        W39043  10.227  15.675   5.583  0.0634  0.2430 -0.1469
22197W        W39044   8.600  13.241  13.735  0.1114 -0.1266  0.2141
22198W        W39045  18.963  13.318  13.746  0.1164  0.3188 -0.2826
22199W        W39046   2.667  14.550   0.588  0.0058 -0.1293  0.1457
22200W        W39047   1.680   4.998  12.320  0.1375 -0.0299 -0.1762
22201W        W39048   4.430   6.105  10.594 -0.0319 -0.1981  0.4445
22202W        W39049  17.657   2.426  14.024  0.0599 -0.0181 -0.2038
22203W        W39050   4.204  12.034   0.019  0.1352  0.1768 -0.3570
22204W        W39051   3.074  13.735  11.674 -0.2901 -0.0783 -0.1614
22205W        W39052   3.148   9.782  13.188  0.4249 -0.4280 -0.3014
22206W        W39053   7.991  11.295   5.019  0.1925 -0.0799 -0.0436
22207W        W39054  18.006   3.050   0.145 -0.1706 -0.2677 -0.2918
22208W        W39055   3.398   1.906  14.277  0.1159 -0.0093 -0.1036
22209W        W39056   1.921  13.130   0.928  0.1066 -0.1210 -0.1464
22210W        W39057  17.879   9.349  13.742  0.2001  0.2184 -0.1634
22211W        W39058  15.664   6.496   1.199 -0.0039 -0.0205 -0.3454
22212W        W39059   9.630  10.313   0.873 -0.2332 -0.2239  0.2664
22213W        W39060  18.865   0.551  11.409 -0.1870  0.0642  0.4394
22214W        W39061   7.877  13.566  11.223  0.0629  0.0122  0.2398
22215W        W39062  18.636  11.199  12.759  0.1985  0.1354  0.2183
22216W        W39063   7.119   2.730   0.962  0.0090 -0.1720 -0.0614
22217W        W39064  18.590  15.106   0.477 -0.1214  0.0945 -0.0338
22218W        W39065  15.742   9.714   3.220  0.0328  0.0319 -0.0959
22219W        W39066  15.374  11.835   2.207  0.0384  0.0031  0.1702
22220W        W39067   4.185  17.076   3.695 -0.1585  0.2092 -0.1134
22221W        W39068   5.660  12.548   3.966 -0.3287 -0.0175 -0.2885
22222W        W39069  15.459  16.423   2.294 -0.0345 -0.0285  0.3887
22223W        W39070  14.959   8.800  11.560  0.3391  0.1886 -0.1457
22224W        W39071   8.309  12.189  10.713  0.2128  0.1122  0.1407
22225W        W39072  15.040   9.125   0.118 -0.1655  0.0049  0.3526
22226W        W39073   2.093   6.340  13.023 -0.0315 -0.1379  0.5265
22227W        W39074   3.470   0.464   0.400  0.0082 -0.1733 -0.1272
22228W        W39075  12.394   8.576  10.316 -0.0831 -0.2061 -0.0708
22229W        W39076   1.060  18.285   0.282 -0.1396  0.0089 -0.0762
22230W        W39077   1.818   4.201  12.055 -0.0314 -0.2069  0.1419
22231W        W39078   0.236  12.516   1.344  0.0448  0.2071 -0.1027
22232W        W39079   2.882  13.657  12.377  0.1687  0.3098 -0.2164
22233W        W39080  18.680   1.861  14.360 -0.2159 -0.0318  0.0018
22234W        W39081  12.941   1.844   0.540  0.1259 -0.0468  0.2468
22235W        W39082   2.071   8.323   3.547  0.1087 -0.1625  0.0070
22236W        W39083  18.481  11.858  13.945 -0.1762 -0.3252  0.1562
22237W        W39084  17.957  14.686  12.576  0.2751 -0.3442  0.3869
22238W        W39085  10.050   0.141  13.354 -0.2029 -0.4778  0.2380
22239W        W39086  11.414  18.778   3.753 -0.0801  0.0826  0.2620
22240W        W39087   2.842  17.411  12.385  0.4551  0.1143 -0.1942
22241W        W39088   4.663   3.948   1.443  0.1757  0.0326 -0.4179
22242W        W39089  15.117   3.637   1.351 -0.2621 -0.0874 -0.1565
22243W        W39090  14.859   9.957   4.245  0.0510  0.0144  0.0873
22244W        W39091  18.906   4.432   1.250 -0.3291 -0.0699 -0.3642
22245W        W39092   8.857   7.070  10.256 -0.3599  0.1517  0.1151
22246W        W39093   0.352   7.583  11.178 -0.1706  0.2255  0.0740
22247W        W39094   1.455   4.506  12.600  0.0507  0.2763  0.0359
22248W        W39095   1.929   8.060   0.925  0.0919 -0.4431 -0.0612
22249W        W39096   7.302   5.597  12.641 -0.2033  0.3156 -0.3778
22250W        W39097   6.963   9.152  14.734 -0.1700 -0.1964 -0.2428
22251W        W39098   7.155   4.172   4.103  0.1056 -0.2836 -0.2364
22252W        W39099  11.319  16.117  11.489  0.2596  0.0517  0.1279
22253W        W39100  17.214  17.320  14.316 -0.1572  0.0277 -0.0810
22254W        W39101  14.072   6.331   3.471  0.0552 -0.1589  0.0915
22255W        W39102   8.021  13.106  12.616  0.1432 -0.0154  0.2715
22256W        W39103   1.170  12.982  12.945 -0.1566 -0.1935  0.3800
22257W        W39104   4.283   7.937  13.746 -0.1121 -0.2513  0.4163
22258W        W39105  11.182  19.173  10.778 -0.0259  0.2401 -0.2119
22259W        W39106   0.489  11.418   4.124 -0.1168  0.0900  0.5387
22260W        W39107   9.320   9.466   4.121 -0.4682 -0.2655 -0.0588
22261W        W39108  14.052   0.320   4.106  0.2229 -0.0937  0.0272
22262W        W39109   4.033   1.772   0.144  0.1841 -0.0108 -0.0951
22263W        W39110  13.887   0.348   1.682  0.3864  0.3325  0.0847
22264W        W39111   8.441   2.992   0.165  0.1509  0.0566 -0.0665
22265W        W39112   9.105  11.291   3.503 -0.0445  0.1720 -0.1901
22266W        W39113  14.645   5.369   4.938 -0.3587 -0.2659  0.3517
22267W        W39114   5.844   7.189  11.473 -0.1689 -0.2945  0.0202
22268W        W39115   0.120   9.356   1.541  0.0589  0.0110  0.0288
22269W        W39116  15.780   3.234  14.068  0.0842  0.0850 -0.0291
22270W        W39117  15.798   4.815  14.480 -0.1738 -0.2123  0.0097
22271W        W39118   9.048  10.542   3.064  0.2495  0.1682  0.0542
22272W        W39119  10.946   7.756   5.413  0.1494  0.0681  0.1208
22273W        W39120   3.282  17.463   0.176 -0.2626 -0.4499 -0.1992
22274W        W39121   4.723  10.213  13.726 -0.2405  0.1400 -0.0523
22275W        W39122   2.631  17.478  13.866 -0.0094  0.1942 -0.0388
22276W        W39123   3.314  11.063   2.044  0.1823  0.1094 -0.0884
22277W        W39124  18.707   7.744   1.885 -0.1445 -0.1723 -0.1706
22278W        W39125  12.832  17.857  11.567  0.1561 -0.2820 -0.1029
22279W        W39126   9.354  18.942  13.721  0.2488  0.1953 -0.1792
22280W        W39127   0.080   2.345  13.506  0.1696  0.0340 -0.0899
22281W        W39128   5.304  11.336  11.230 -0.2009 -0.1037  0.0216
22282W        W39129   3.856  16.212   3.453 -0.0811 -0.1668  0.1860
22283W        W39130   1.014   8.296  12.911  0.2102  0.3646  0.1782
22284W        W39131  14.508  10.052   5.250  0.0279 -0.3586 -0.1686
22285W        W39132  17.238   2.627   1.574 -0.0454  0.1297 -0.1643
22286W        W39133   5.653   1.475  12.346 -0.0751  0.2119 -0.3786
22287W        W39134  14.292  11.717   3.803  0.1340  0.0218  0.1796
22288W        W39135   3.690   2.528   0.508 -0.1793 -0.2181  0.0808
22289W        W39136  15.047   7.803   1.759  0.0457 -0.2554 -0.3068
22290W        W39137  11.700   9.835   4.395  0.2365  0.0146  0.1112
22291W        W39138  12.522   8.553  12.309  0.1091  0.2233 -0.0147
22292W        W39139   8.882   6.925   9.728 -0.5226  0.0304 -0.2036
22293W        W39140   4.466  17.156  13.651 -0.0816  0.0149  0.1175
22294W        W39141   9.106   4.389   1.184 -0.0856  0.2195  0.1534
22295W        W39142   4.318   0.526  12.784 -0.2283 -0.0025 -0.0748
22296W        W39143   3.913   0.381  13.579  0.2622 -0.2830 -0.3283
22297W        W39144   6.366  18.120  10.951 -0.0743  0.1593 -0.0286
22298W        W39145  18.375   3.366  11.221 -0.1326 -0.3374  0.0567
22299W        W39146   0.128   4.553   1.167  0.3189  0.0765  0.0361
22300W        W39147  11.812  15.198   2.078 -0.0866  0.3398  0.1931
22301W        W39148   3.161  15.483   4.337 -0.3350 -0.2006  0.0887
22302W        W39149   5.436   9.137   0.958 -0.1616  0.0630  0.0572
22303W        W39150  12.998   9.523   2.406  0.3036  0.1971  0.1066
22304W        W39151   7.890   7.826  13.111  0.1594 -0.0504 -0.3037
22305W        W39152   4.848  16.489   2.519 -0.0810 -0.2148 -0.2110
22306W        W39153   5.819   6.481  12.853  0.1403 -0.1388  0.0042
22307W        W39154  14.557  16.364   0.821  0.0562  0.0247  0.0110
22308W        W39155   0.636  16.252  12.902 -0.0355  0.0887 -0.1378
22309W        W39156  17.716   9.890  12.457  0.2321 -0.1372  0.1699
22310W        W39157  16.410  18.063  10.956  0.0744 -0.1529  0.2137
22311W        W39158   3.898  17.671  13.196 -0.1921  0.4060 -0.0208
22312W        W39159  12.991   5.107   0.096 -0.2760 -0.0848 -0.0681
22313W        W39160  10.740  16.524  13.752 -0.0172  0.2139  0.0726
22314W        W39161   3.872  11.550   2.400  0.3848 -0.2210  0.0007
22315W        W39162   5.765   0.047  14.267  0.1899  0.0430  0.1117
22316W        W39163   1.303  15.881   0.814 -0.0303  0.4349 -0.0609
22317W        W39164   3.167   2.294  14.586 -0.2922  0.0563 -0.2243
22318W        W39165  16.271   4.272   4.510 -0.1355  0.0735 -0.0777
22319W        W39166   7.722   4.314  11.959  0.2354 -0.0392 -0.1374
22320W        W39167  17.186  10.629  10.442 -0.1667 -0.0197 -0.3608
22321W        W39168  13.329  12.956  10.944  0.2049  0.2969 -0.4865
22322W        W39169   7.780  12.100   0.080 -0.1179  0.0251  0.1471
22323W        W39170  15.409   3.458   3.046 -0.0708  0.0474  0.1657
22324W        W39171  12.050   2.205   5.357  0.0165 -0.0200 -0.3379
22325W        W39172  15.589   2.097  14.864 -0.0286  0.3771  0.1381
22326W        W39173   8.101  12.307   1.742  0.0726 -0.0767  0.0090
22327W        W39174   8.507  13.934   1.723 -0.3792 -0.0469 -0.0113
22328W        W39175   8.245  19.001  11.273 -0.0131  0.0463  0.1280
22329W        W39176  16.992  14.783   1.912  0.3522  0.0983  0.0491
22330W        W39177   2.919   4.499   1.703 -0.0547  0.1686 -0.0024
22331W        W39178  18.215  18.619   0.502 -0.0211  0.0204  0.1318
22332W        W39179  15.560  14.803   1.539  0.0342 -0.0734  0.0998
22333W        W39180  18.437   4.214   2.554  0.0117  0.0896  0.0644
22334W        W39181  14.932   2.677  12.864  0.2503 -0.2524  0.0635
22335W        W39182  18.421  10.301   2.254  0.0928 -0.0839  0.1551
22336W        W39183  11.357  18.535   4.175  0.0459  0.3864 -0.5087
22337W        W39184  17.952   8.784   0.529  0.0743 -0.3805 -0.1402
22338W        W39185  15.939  14.700  10.855 -0.3529  0.4340  0.1666
22339W        W39186   6.597   3.168  13.871 -0.0173 -0.4273 -0.0078
22340W        W39187  11.807  17.187  12.870  0.1514  0.0083 -0.0107
22341W        W39188   5.768   1.283   1.715 -0.1859  0.2150 -0.1230
22342W        W39189   9.088  17.086  10.962 -0.1518  0.1455  0.3108
22343W        W39190  15.139  10.371   3.107 -0.2027  0.0492  0.0538
22344W        W39191   6.647  11.661  12.518  0.2405  0.3135  0.0051
22345W        W39192   5.117  14.403   0.425 -0.1940 -0.2759  0.1428
22346W        W39193  16.235   3.391   0.644 -0.1233  0.1130  0.0800
22347W        W39194  15.472  17.154  13.643 -0.0720  0.1894 -0.2981
22348W        W39195  17.843   7.440  11.638  0.0624 -0.2403  0.0368
22349W        W39196   4.421  12.156  12.119  0.2744 -0.1232 -0.0605
22350W        W39197   3.160  17.775  12.210 -0.1566  0.3028  0.3183
22351W        W39198   4.869   3.503   2.889 -0.0435 -0.0346 -0.1507
22352W        W39199   0.930   0.791  11.769 -0.1992 -0.0640  0.1975
22353W        W39200  10.786  13.245  13.850 -0.0417  0.2404 -0.2768
22354W        W39201   0.117   6.492   0.812 -0.2676 -0.0683  0.0040
22355W        W39202   9.448   5.203  14.053 -0.2177  0.2320  0.1392
22356W        W39203   4.676   2.519  11.638  0.4947 -0.0140  0.3289
22357W        W39204   3.573  12.507  15.010  0.0127 -0.0642  0.0849
22358W        W39205   4.896   6.822  12.632 -0.1198 -0.0113  0.0077
22359W        W39206   0.235   7.220  14.797 -0.0963 -0.1984  0.0887
22360W        W39207   2.774  18.119   0.606 -0.2296 -0.1134 -0.0583
22361W        W39208  15.583   8.197  13.107  0.0666  0.1160  0.0336
22362W        W39209  17.761   3.742   1.619  0.1205  0.0147 -0.0998
22363W        W39210  12.993   5.535   4.370  0.0747  0.1976  0.1019
22364W        W39211   9.675  19.127   1.920  0.0950  0.1151  0.0279
22365W        W39212  14.564  16.629  11.922  0.0953  0.2744  0.0707
22366W        W39213  12.523  11.318   1.878  0.2353  0.1618  0.4182
22367W        W39214   7.325   3.174   1.112  0.1227 -0.1867  0.2675
22368W        W39215   5.143   9.028   3.263 -0.0880 -0.2965 -0.1738
22369W        W39216  15.184  12.579  14.701  0.3032  0.0752  0.3537
22370W        W39217   8.221  15.313   1.439 -0.2300  0.0055 -0.1313
22371W        W39218  16.819  19.194  14.413 -0.0574 -0.1176 -0.1311
22372W        W39219  16.788   7.635   1.337  0.0030  0.1089 -0.0058
22373W        W39220   1.192   4.494   0.060 -0.0959  0.2919 -0.1335
22374W        W39221   8.321  17.208  12.683  0.0425 -0.1348  0.1151
22375W        W39222  18.119   1.967   1.818  0.1196  0.0372 -0.1069
22376W        W39223  13.652  12.285   1.153 -0.0011  0.0415 -0.0204
22377W        W39224   8.154  14.797   0.849  0.0244  0.0341 -0.0039
22378W        W39225   5.496   5.216  12.302 -0.0039 -0.0100 -0.1250
22379W        W39226   1.347   1.329  13.727  0.4146  0.0285 -0.0122
22380W        W39227   8.903  15.321  11.656  0.3238  0.0997  0.1161
22381W        W39228  12.927   1.140   3.725 -0.1320  0.0286  0.3476
22382W        W39229   3.113  13.883  13.234  0.1945 -0.1328  0.0390
22383W        W39230   5.638   7.600  14.954 -0.0095  0.0808 -0.0706
22384W        W39231  14.601   3.722   9.979 -0.2100 -0.2869 -0.0953
22385W        W39232  14.769   3.500  14.933  0.0578  0.4676 -0.1478
22386W        W39233   6.593  12.607   0.683  0.2451 -0.2274 -0.0709
22387W        W39234   8.886  16.986  13.458  0.0129  0.0985  0.0612
22388W        W39235  15.002  10.272   3.628  0.0397  0.2338  0.1147
22389W        W39236   7.542   7.000  14.619  0.0508  0.0673  0.1949
22390W        W39237  18.271  11.130   0.035  0.0773 -0.0613 -0.2066
22391W        W39238  13.734   0.865   0.674 -0.0201 -0.0704 -0.0345
22392W        W39239   9.893   9.511   1.111  0.0887 -0.0849 -0.1571
22393W        W39240  18.372   5.463   1.880 -0.0428 -0.1912  0.2695
22394W        W39241   2.573   7.458   4.179  0.0355 -0.1483 -0.1604
22395W        W39242  11.508   6.247  13.704 -0.2547 -0.2276  0.0444
22396W        W39243   8.041  10.232  14.582  0.0443  0.2604  0.3298
22397W        W39244  17.979   3.882   2.562 -0.3766 -0.0306  0.0445
22398W        W39245   5.885   1.396  13.632 -0.0290  0.1579 -0.1467
22399W        W39246  12.170  15.343  13.582  0.0047  0.2687 -0.0395
22400W        W39247   7.503  14.342  13.683  0.5010 -0.1816 -0.4357
22401W        W39248  10.642   8.141   3.417 -0.1774  0.0123  0.2457
22402W        W39249   5.362   6.175   0.379  0.1102 -0.2899 -0.3734
22403W        W39250   4.198  16.517   3.847  0.1588 -0.3495  0.1704
22404W        W39251  15.059   2.658   3.586  0.1454  0.1464  0.1917
22405W        W39252   9.727   3.899  10.992  0.2801  0.0701  0.1165
22406W        W39253  16.185   1.608   0.888 -0.0792  0.0064  0.0077
22407W        W39254  10.898   9.735   2.832 -0.0964 -0.2050  0.1855
22408W        W39255   5.305   5.449  14.759 -0.2088  0.2336  0.1923
22409W        W39256   6.429   4.394   1.369 -0.3117  0.0394  0.1868
22410W        W39257  10.508  13.963  12.665 -0.1173 -0.2387  0.1309
22411W        W39258  12.741   8.732   9.998  0.0000  0.0409  0.3476
22412W        W39259   9.206   0.314   4.258  0.0707  0.3077 -0.2079
22413W        W39260   7.583   2.286   4.647 -0.2937 -0.2368  0.0016
22414W        W39261   2.753   6.665  10.502  0.2137 -0.1228  0.0272
22415W        W39262  12.698   5.270  14.747  0.0953  0.1270 -0.0192
22416W        W39263   7.720  12.909  12.978  0.0097  0.2551 -0.2127
22417W        W39264   1.492   2.565   3.198 -0.0173  0.2157  0.0155
22418W        W39265   6.600   2.349   4.267 -0.2330 -0.0560  0.0016
22419W        W39266  10.263  18.157   2.215 -0.2021  0.4264 -0.0581
22420W        W39267   5.815  10.448   1.979  0.1967  0.1371  0.3060
22421W        W39268   7.978  18.355  13.645  0.1356  0.1549 -0.4860
22422W        W39269  10.406   1.085  12.993  0.0238  0.2365  0.1312
22423W        W39270  11.336   5.586   4.092  0.2292 -0.1100  0.2527
22424W        W39271   8.050  16.364  14.490 -0.0463  0.0807  0.2335
22425W        W39272   4.003   3.146   4.356 -0.3237 -0.1835  0.1490
22426W        W39273   5.650   0.238  13.795 -0.2704 -0.1982  0.0301
22427W        W39274   9.451  11.765  10.509 -0.0366  0.0772  0.1803
22428W        W39275  16.522  16.360  13.159 -0.0313  0.0038  0.4113
22429W        W39276   3.546  19.222   5.083  0.2861 -0.1679 -0.0153
22430W        W39277   4.278  16.083  11.651  0.1382  0.0745  0.3383
22431W        W39278   1.893   6.757  10.025  0.0302 -0.0695 -0.0773
22432W        W39279  12.053   2.330   4.873  0.1712  0.2259 -0.0122
22433W        W39280  12.489  18.262  11.623 -0.0639 -0.0475  0.0765
22434W        W39281   9.875   4.313   3.622  0.2033 -0.0364 -0.1114
22435W        W39282  13.322   1.327   4.703  0.0596 -0.2951  0.1015
22436W        W39283  13.577  17.016   4.193  0.2197 -0.3344  0.0496
22437W        W39284   5.693   8.623   4.164 -0.2032  0.0627 -0.0889
22438W        W39285   8.892  19.163   1.357 -0.0665  0.0285 -0.4374
22439W        W39286   0.567   7.906  14.351 -0.3070  0.2926  0.1394
22440W        W39287  13.143   6.371   3.038  0.0147  0.3725  0.1103
22441W        W39288  11.195  18.769   2.613 -0.2542  0.0219  0.2300
22442W        W39289  10.632  13.942  13.563  0.2118  0.1183 -0.1414
22443W        W39290   9.985  16.608  14.081  0.0591 -0.0453  0.1727
22444W        W39291   5.754   9.688  13.101  0.0326 -0.1399 -0.1328
22445W        W39292   0.997   8.893  11.579 -0.0801 -0.1451  0.1583
22446W        W39293   1.797  10.426   4.401 -0.1115 -0.2488 -0.1109
22447W        W39294   5.442   2.872   5.026 -0.3514  0.2302  0.0161
22448W        W39295   4.497   2.955   0.855  0.1273  0.3301 -0.0775
22449W        W39296  11.189   0.676  13.251  0.2295  0.0701 -0.1828
22450W        W39297  19.279  13.023  11.805 -0.1857  0.2552 -0.3240
22451W        W39298  11.465   1.884   3.176 -0.0615 -0.1029  0.0389
22452W        W39299  16.753  16.039   4.256  0.2747  0.1907  0.0528
22453W        W39300  17.079  15.209   0.436  0.0087  0.1398  0.3695
22454W        W39301   5.484   5.455  13.171  0.2559  0.3436  0.0838
22455W        W39302   3.494  17.033  12.928 -0.2022 -0.4707  0.2939
22456W        W39303   1.473   4.463  13.588  0.3279 -0.0883  0.0451
22457W        W39304  14.901   5.904  14.665 -0.0045  0.0139  0.3010
22458W        W39305   7.786   9.269   1.310  0.2214 -0.2138  0.3317
22459W        W39306   6.220  10.263   2.190 -0.1622  0.1169  0.2079
22460W        W39307  10.198   4.217  12.548  0.0233  0.1426  0.0580
22461W        W39308  12.194   3.139  14.614  0.0537  0.0459 -0.2207
22462W        W39309   8.938   6.551  10.959  0.0857  0.0595  0.2654
22463W        W39310  17.650   4.806  13.673  0.0228  0.0617  0.1637
22464W        W39311  17.485  11.971   2.442  0.1239  0.4966 -0.2019
22465W        W39312   5.964   1.979   0.200 -0.3239  0.2632 -0.2160
22466W        W39313   4.877   4.893   3.785  0.0796  0.0964  0.1989
22467W        W39314  15.852   9.300   4.610 -0.1365 -0.2155  0.3082
22468W        W39315  15.865  17.559   4.702  0.0581 -0.3397  0.1580
22469W        W39316   1.704  11.250  14.117  0.3426 -0.0864  0.4160
22470W        W39317  16.934  12.929   3.081  0.0457  0.2216  0.1087
22471W        W39318  16.827   3.952  14.560  0.0883 -0.3107  0.1839
22472W        W39319   9.179  10.973  12.302  0.1704  0.0398  0.0166
22473W        W39320  10.110   5.824  10.626  0.1524 -0.1459  0.2916
22474W        W39321  11.239   7.490  13.737  0.0528 -0.1230  0.0732
22475W        W39322  10.182   2.518   0.607 -0.1895  0.2493 -0.0384
22476W        W39323   9.040   7.003   0.950  0.0391  0.0890 -0.2768
22477W        W39324  15.203   8.751  13.246 -0.5750 -0.0111 -0.0664
22478W        W39325   9.960   8.664   2.186  0.0057  0.0420  0.0813
22479W        W39326   3.638   2.599   5.049  0.1581 -0.0259 -0.2162
22480W        W39327  15.426   0.581  13.646  0.0032 -0.0077 -0.1680
22481W        W39328   7.951   7.477  11.376 -0.0888  0.0139 -0.1307
22482W        W39329  15.418   9.032  11.517 -0.1233 -0.3021 -0.2853
22483W        W39330  15.365   7.342   0.359  0.0477  0.0294  0.0490
22484W        W39331  15.023  16.583   3.918 -0.3711 -0.2758  0.2509
22485W        W39332  16.523   6.749  11.533 -0.1494  0.1793 -0.1481
22486W        W39333  17.019  11.593  14.339 -0.0348 -0.0340  0.3143
22487W        W39334   0.125   7.499  13.691  0.0431 -0.1813  0.4915
22488W        W39335  13.120   3.567   0.925 -0.1491  0.3903  0.0520
22489W        W39336  17.365   8.362   3.779  0.2285 -0.0562  0.1641
22490W        W39337   7.446  17.707  12.868  0.3927  0.0136  0.2341
22491W        W39338  10.230   4.742  13.831  0.1123  0.0211  0.0473
22492W        W39339   4.513  13.540  12.277  0.0397  0.2379  0.0571
22493W        W39340   1.166  13.500   1.252 -0.0077 -0.1227  0.0147
22494W        W39341   2.158   9.914   4.896  0.0414 -0.1729 -0.3333
22495W        W39342  11.473  15.255  14.984  0.0875  0.0672 -0.2313
22496W        W39343  13.282  18.048   0.117  0.1338  0.4454 -0.1868
22497W        W39344   3.981  18.809   1.364 -0.2181 -0.1181 -0.1241
22498W        W39345   9.830  18.653   0.343  0.0994  0.1109 -0.1247
22499W        W39346   5.668  13.678  10.845 -0.0120 -0.1269 -0.0494
22500W        W39347   7.990  13.167   0.865  0.3301 -0.2832  0.0445
22501W        W39348   0.414   0.738  11.454  0.0429 -0.1710  0.0706
22502W        W39349  14.240  18.126   1.434  0.3261  0.3106 -0.0831
22503W        W39350  19.240  10.107   5.723 -0.0867 -0.3677  0.0901
22504W        W39351   9.052   9.842   0.122  0.0920  0.0797  0.0220
22505W        W39352  15.579   1.226  12.456  0.0310  0.1718  0.1156
22506W        W39353   0.791   5.436   2.214  0.0613  0.2471  0.2402
22507W        W39354   6.313  17.957   4.316  0.1439 -0.0898 -0.2306
22508W        W39355   2.663  16.520   1.606 -0.1636  0.0416 -0.1333
22509W        W39356   6.475  15.108   1.782  0.2272  0.0814  0.2907
22510W        W39357  11.789   1.411   1.400 -0.2925 -0.1875  0.0687
22511W        W39358  14.894  12.125   4.856 -0.1827  0.1413 -0.2910
22512W        W39359   1.326   1.542   1.199 -0.0259  0.0965  0.1900
22513W        W39360   6.069   7.968  11.032 -0.0505  0.0035 -0.2128
22514W        W39361   7.234  18.279   0.056  0.3862 -0.0916 -0.0365
22515W        W39362   8.364  15.377  10.625 -0.2659  0.0434 -0.0949
22516W        W39363   4.906   1.811  14.961  0.1689  0.1696 -0.0612
22517W        W39364  11.294   3.393  11.965  0.1218  0.0376  0.1611
22518W        W39365  12.277  19.047   3.451  0.0691  0.1731  0.5395
22519W        W39366   1.971  13.130   4.963  0.2147  0.2453  0.3477
22520W        W39367   1.948   0.785  14.079 -0.1445 -0.4418  0.0311
22521W        W39368   7.545   3.424   4.161  0.0412 -0.1795 -0.0482
22522W        W39369   6.507   8.165  11.891  0.5303 -0.2076 -0.0455
22523W        W39370  13.892   0.031   1.070 -0.3469 -0.0719  0.0700
22524W        W39371  16.513  11.532  10.641  0.0301  0.0199  0.0439
22525W        W39372  10.556  18.092   3.298 -0.0628 -0.1074 -0.3528
22526W        W39373   3.905   0.240  14.136 -0.1011  0.1665  0.0842
22527W        W39374  15.196  17.566   5.446  0.1528 -0.0220 -0.1618
22528W        W39375  13.539   1.476   2.067 -0.2254 -0.0143  0.0223
22529W        W39376   9.210   4.826  14.211  0.1357  0.0362 -0.0754
22530W        W39377   8.005  17.640   2.118 -0.3020 -0.0380  0.1480
22531W        W39378  16.568  12.010  14.537 -0.0029 -0.1477 -0.0073
22532W        W39379  11.497   2.690  13.642 -0.0304  0.0310  0.1421
22533W        W39380  14.983  13.540   4.189  0.0884 -0.3046  0.0403
22534W        W39381   4.927   8.011  13.267  0.3340 -0.2881 -0.2056
22535W        W39382  13.577  12.705   9.358  0.0525  0.2084  0.0213
22536W        W39383   7.536   4.675  13.655  0.3459  0.2281  0.0428
22537W        W39384   4.525  16.648   4.757 -0.2107  0.3218 -0.0385
22538W        W39385   5.637  11.763  10.703 -0.0194 -0.0566  0.1786
22539W        W39386  11.891  11.745   1.253 -0.2152  0.0288  0.0233
22540W        W39387   0.219  12.047  13.867 -0.2142 -0.0145 -0.2195
22541W        W39388  15.802   3.644  13.724  0.0436  0.0203 -0.1196
22542W        W39389   3.347  19.267   1.120  0.2022 -0.0071  0.0453
22543W        W39390   9.448  17.121  12.949 -0.3034  0.0982  0.0778
22544W        W39391  10.948   3.592  12.362  0.4579 -0.1918  0.0028
22545W        W39392  14.023   1.564  12.018  0.1710  0.1603 -0.0030
22546W        W39393  14.717  15.843  11.067 -0.0263  0.0101 -0.1925
22547W        W39394  12.361  11.578  11.286 -0.1876 -0.0082  0.0772
22548W        W39395  14.272   1.084  10.538 -0.2099 -0.0657  0.2083
22549W        W39396  12.357  15.546   5.268 -0.0079  0.0631  0.2050
22550W        W39397   3.862   7.403   0.837 -0.0140  0.1117 -0.0808
22551W        W39398   2.387   8.541   4.580  0.3489  0.0523  0.1819
22552W        W39399   0.394   8.643  10.370  0.0211  0.0959 -0.1771
22553W        W39400  10.925   4.088  13.008  0.0607 -0.1251  0.0064
22554W        W39401  18.840  18.381   1.606  0.0980  0.0171 -0.0507
22555W        W39402  19.059  10.122  11.697 -0.1222 -0.0648  0.0277
22556W        W39403   6.864   6.741   4.307 -0.4971  0.2395 -0.0530
22557W        W39404   2.398  13.213   3.727  0.2402  0.2004  0.2497
22558W        W39405   7.233   9.549   1.379  0.0359  0.0242  0.3180
22559W        W39406   5.064   6.158  12.156 -0.0189 -0.2246 -0.2177
22560W        W39407   8.444  16.413   0.829  0.4060 -0.1223  0.0919
22561W        W39408   5.020  11.727  14.271 -0.1126  0.0198  0.0691
22562W        W39409  13.635   8.475   3.548  0.0142 -0.1560 -0.2210
22563W        W39410  17.056   6.835  12.338  0.0745  0.2627  0.0365
22564W        W39411   0.936   0.247   0.590 -0.2082  0.1078  0.0992
22565W        W39412  12.873  13.672   0.982  0.0246  0.0161 -0.1550
22566W        W39413  10.490   4.357  12.983 -0.1748  0.2586 -0.0180
22567W        W39414   6.597   9.461  11.321 -0.0096 -0.1798  0.0174
22568W        W39415  13.639  16.329   5.029  0.2555 -0.0537  0.3675
22569W        W39416  10.841  11.491  10.538  0.3814  0.0133 -0.0305
22570W        W39417  18.217   1.628  14.264 -0.1272 -0.0542 -0.0798
22571W        W39418  11.727   2.050  11.895 -0.1771 -0.2748 -0.3148
22572W        W39419   6.239  14.198  13.516  0.2906  0.2735 -0.0473
22573W        W39420  10.777   6.558  13.053 -0.2195 -0.0405 -0.1097
22574W        W39421  10.442  11.928   3.802 -0.0408 -0.3026 -0.2399
22575W        W39422  14.918  18.727  14.918  0.0740 -0.0087 -0.1371
22576W        W39423  15.537   5.636   1.276 -0.1039  0.2217 -0.0134
22577W        W39424  13.478   9.062   9.655  0.0315 -0.2434  0.1280
22578W        W39425   4.096   8.600  14.247 -0.0209  0.4127 -0.4097
22579W        W39426   9.072  17.998  11.225  0.2227  0.0513 -0.1627
22580W        W39427   4.497  11.870   4.304  0.2458  0.1164 -0.0413
22581W        W39428   5.932  10.319  10.279 -0.1846 -0.0159  0.2093
22582W        W39429   0.583   2.017   1.562 -0.1298 -0.0255  0.4144
22583W        W39430   8.944   7.942   2.271 -0.3051 -0.1894 -0.0747
22584W        W39431   8.928   6.035   3.391 -0.0643 -0.1293 -0.1128
22585W        W39432  10.700   0.105  11.505 -0.1805 -0.0714  0.0184
22586W        W39433   8.315   4.861   3.177 -0.0622 -0.1078  0.2675
22587W        W39434   0.285   7.892   1.705  0.0048  0.1078 -0.2253
22588W        W39435   2.572   3.252   1.394 -0.2389  0.1902  0.0690
22589W        W39436  16.424  15.109   5.847 -0.2346  0.1519  0.2253
22590W        W39437   0.299  17.697   3.355  0.1196  0.2383 -0.1716
22591W        W39438   7.547   5.079   2.798  0.1774 -0.1439 -0.1725
22592W        W39439  13.107   7.106  14.228  0.0496 -0.2463 -0.1537
22593W        W39440  13.509   2.660   5.112 -0.1893  0.0053  0.1602
22594W        W39441  11.955  11.873  11.423 -0.2715 -0.1330  0.1851
22595W        W39442  18.714   8.829  10.886 -0.0245  0.3407 -0.1304
22596W        W39443   8.877   7.141   4.641 -0.1805  0.1450 -0.1727
22597W        W39444   6.396  15.507  13.569 -0.0629 -0.0632 -0.0165
22598W        W39445   4.729   7.739   4.224  0.3189 -0.1445 -0.2471
22599W        W39446  14.370   8.106   1.257  0.0750 -0.1020 -0.4748
22600W        W39447   5.541  12.015   1.099  0.0729  0.0761  0.0514
22601W        W39448  18.489   6.735  14.196 -0.1930 -0.0131 -0.1313
22602W        W39449  15.339  17.092  13.146  0.0950 -0.0065  0.1628
22603W        W39450  14.157  15.815  14.091 -0.0247  0.3128  0.1827
22604W        W39451   7.348  14.670   1.632  0.1050 -0.1469  0.0810
22605W        W39452   9.912  14.776   1.362 -0.1005 -0.0365  0.4297
22606W        W39453  17.323   3.939   0.322  0.3024  0.3482 -0.1838
22607W        W39454  11.561  12.967   0.851 -0.2784 -0.1052 -0.0785
22608W        W39455  10.560   7.624  12.907  0.2281  0.3878  0.1224
22609W        W39456  11.669   0.958   2.315  0.0969 -0.1728 -0.3708
22610W        W39457  18.133   4.822   0.484 -0.2637 -0.2773  0.0293
22611W        W39458   1.152   2.402   4.148  0.0790 -0.0240 -0.0429
22612W        W39459  13.842  14.759  12.526  0.4499 -0.0224  0.1992
22613W        W39460  15.632  12.826   9.155  0.1410  0.2504 -0.1600
22614W        W39461  13.885   5.544  11.671  0.1156 -0.3393  0.0209
22615W        W39462   1.546   8.928  11.555  0.1292 -0.3178 -0.0620
22616W        W39463   0.506   3.972   4.416  0.0013 -0.1981 -0.0890
22617W        W39464   7.546   4.383  12.426 -0.4296 -0.1608 -0.2727
22618W        W39465   7.530   6.544  13.861 -0.1395  0.1601  0.2022
22619W        W39466  15.815   7.998  14.060  0.0344  0.1060 -0.0510
22620W        W39467   8.363  17.958  14.417 -0.1378  0.2499  0.0943
22621W        W39468   6.685   1.306   5.031  0.3295 -0.5655  0.4997
22622W        W39469   0.758   8.214  13.397 -0.0123  0.2079 -0.1297
22623W        W39470  18.352  12.489   0.112  0.0476 -0.2205  0.0849
22624W        W39471   3.692  16.179   4.463  0.3996  0.0478 -0.3537
22625W        W39472   4.278   1.077  14.720  0.0012 -0.0520  0.0314
22626W        W39473   7.186   0.953   2.784 -0.1221  0.3046 -0.0433
22627W        W39474  16.375  13.958  13.172  0.0682  0.1932  0.0203
22628W        W39475  12.244  13.084  10.704 -0.3604  0.1318  0.1040
22629W        W39476   9.270   4.999   2.099 -0.4505  0.0353 -0.3007
22630W        W39477   7.010   9.788  11.658 -0.2530 -0.0618 -0.1236
22631W        W39478  15.725  12.393  14.932 -0.0741 -0.1760 -0.0876
22632W        W39479   9.606  14.361  14.900  0.0229  0.1133  0.0286
22633W        W39480   3.607   9.908   1.667 -0.1259  0.1273  0.0912
22634W        W39481   5.776   5.589  12.000  0.0680  0.1694  0.1674
22635W        W39482   0.923   1.748  13.636 -0.0888 -0.2251 -0.2747
22636W        W39483   8.137  12.451  15.003  0.0764 -0.1227 -0.1200
22637W        W39484  14.147  15.151   2.775 -0.0464 -0.0013  0.0917
22638W        W39485   6.540   4.104   0.134 -0.0711 -0.0877  0.1140
22639W        W39486  17.555   7.534  14.669  0.2212  0.0001  0.0712
22640W        W39487   9.246  16.887   0.095  0.3457 -0.0142 -0.0871
22641W        W39488   0.009   8.434  11.154  0.4157  0.0795  0.1894
22642W        W39489  12.260  10.272  14.276  0.3361  0.3379  0.2116
22643W        W39490   4.407   7.077   4.951 -0.1644  0.0109  0.0354
22644W        W39491  10.819   8.237  11.675  0.3309  0.0325 -0.0648
22645W        W39492   8.523   9.305  14.812  0.1655  0.3285 -0.0870
22646W        W39493  15.860   0.162  11.192  0.0074 -0.0415  0.1235
22647W        W39494  15.238  17.425   2.453  0.0205  0.1693  0.1821
22648W        W39495   3.327  14.984  12.295  0.1288 -0.0348  0.1450
22649W        W39496   5.935   4.119  13.812  0.2999 -0.1567 -0.3535
22650W        W39497  15.566   0.993  12.935  0.1744  0.1548 -0.2400
22651W        W39498  18.350  14.414  11.688 -0.1256  0.2277 -0.1928
22652W        W39499  14.675   0.912  10.895  0.1408 -0.1192 -0.1862
22653W        W39500  15.177   4.978   3.085 -0.1134  0.1096 -0.2729
22654W        W39501   5.803   8.474   9.962  0.1484  0.0200 -0.2134
22655W        W39502   9.801   5.044  12.820 -0.0084 -0.0745  0.0494
22656W        W39503   4.538  10.885   1.962  0.0417 -0.0962 -0.0916
22657W        W39504   8.206   8.918  12.333 -0.2418  0.0636 -0.0268
22658W        W39505  17.981   9.267   1.341 -0.0534 -0.2053 -0.0918
22659W        W39506   1.278  14.677  10.867 -0.1957  0.3864  0.1311
22660W        W39507   1.544   4.228  14.582  0.2752  0.2312 -0.2145
22661W        W39508   4.520  13.232   0.491  0.1114 -0.0825 -0.0904
22662W        W39509   2.563  13.752  14.184 -0.0580  0.4627 -0.0119
22663W        W39510  12.618  13.320  10.953  0.0792 -0.1289 -0.2499
22664W        W39511  16.996  13.871  14.843 -0.1296  0.0603  0.0727
22665W        W39512   0.634  10.603  10.107  0.3133  0.0336 -0.2238
22666W        W39513  13.102  13.607   3.685 -0.3504 -0.0520  0.0961
22667W        W39514  17.284  13.071   2.708 -0.0109 -0.1573  0.0287
22668W        W39515   9.307  13.025  11.534  0.0797  0.0411 -0.1439
22669W        W39516  14.902  17.230   2.840 -0.0876 -0.1680  0.0596
22670W        W39517   2.123  18.370  13.128  0.0582  0.0224 -0.0494
22671W        W39518  12.741  12.197   1.811  0.2190  0.1035 -0.0607
22672W        W39519   0.122   2.331  14.048  0.2664  0.0958 -0.2250
22673W        W39520  15.019  10.760   4.753  0.0584  0.1141  0.0031
22674W        W39521  12.641  13.811  13.356  0.2192 -0.1984 -0.2741
22675W        W39522  16.383   8.328  12.491  0.1704  0.0862  0.2843
22676W        W39523  13.961   4.472  10.831 -0.0228 -0.2967 -0.0545
22677W        W39524  11.301   7.968   3.063 -0.1174 -0.0198  0.3155
22678W        W39525   5.842   2.476   0.143 -0.3173  0.0012  0.2857
22679W        W39526  18.949   3.444   0.201 -0.4325 -0.0065  0.2667
22680W        W39527  10.485  10.545   2.206  0.0781 -0.0822  0.0561
22681W        W39528  14.247  16.399   1.670  0.2074 -0.3153 -0.0798
22682W        W39529   6.321  13.036   4.615 -0.0214  0.0973  0.0974
22683W        W39530  12.616   2.886  11.518 -0.0459  0.1275 -0.3365
22684W        W39531  12.094   0.378   2.952  0.2902 -0.3476 -0.1002
22685W        W39532   9.975   6.328   2.086 -0.0177  0.0459 -0.1093
22686W        W39533  15.833   5.745  14.797  0.1452  0.3048  0.3821
22687W        W39534   9.024   1.757   1.565 -0.2000 -0.0390  0.1787
22688W        W39535   6.228   7.100   0.542  0.0795  0.1561 -0.5407
22689W        W39536  18.622   8.508   2.871 -0.2419  0.1419  0.3355
22690W        W39537   2.941  16.928   3.356  0.3592  0.3770 -0.0140
22691W        W39538  13.263   8.646  14.283  0.1248 -0.2639  0.3129
22692W        W39539  14.775  13.968  14.723 -0.2110 -0.0436  0.0361
22693W        W39540  17.600   5.100   1.367  0.3064 -0.0452 -0.3177
22694W        W39541  18.637   8.636   2.401 -0.2631  0.1520 -0.0019
22695W        W39542  13.410  10.693  14.540 -0.3432 -0.2513 -0.1118
22696W        W39543   5.425  17.646  14.568 -0.1225  0.2356 -0.0221
22697W        W39544  14.365   6.480  10.742  0.3396 -0.2856 -0.0629
22698W        W39545  18.258   7.298   1.329  0.0707  0.1135 -0.0389
22699W        W39546  19.217   3.616  12.847 -0.0721 -0.1284  0.0144
22700W        W39547   9.990   9.746  13.182  0.1007  0.3484  0.5274
22701W        W39548  16.693   1.289  14.643  0.0700  0.0987  0.1814
22702W        W39549   3.861  18.864   0.407 -0.0002 -0.0268  0.0137
22703W        W39550  10.006   1.462  14.934 -0.1312 -0.1104  0.0986
22704W        W39551  12.656  10.587   1.397  0.3590 -0.0679  0.2242
22705W        W39552  16.385  15.750  12.453 -0.5112  0.2707  0.1283
22706W        W39553   2.798  13.893   3.296 -0.0410  0.3235  0.0959
22707W        W39554   8.516  10.608   4.869  0.0181 -0.2259 -0.2141
22708W        W39555   1.677   1.059  11.534 -0.2509 -0.1390 -0.0609
22709W        W39556  19.123  14.145  13.153  0.1507 -0.0364 -0.1586
22710W        W39557  10.067  18.775   4.285  0.2799  0.2753 -0.5349
22711W        W39558  15.136  17.060   3.244 -0.0523 -0.1490  0.2036
22712W        W39559  12.463   3.842   0.352 -0.0448 -0.1684  0.2182
22713W        W39560   2.937  16.719  14.023  0.2952 -0.0239  0.0485
22714W        W39561  15.916  10.503   0.325 -0.0652  0.0247 -0.0050
22715W        W39562  15.504   0.410   4.668  0.0489  0.0222 -0.0874
22716W        W39563   8.143  14.367   3.206 -0.2038  0.3036  0.0402
22717W        W39564   7.684   8.676  10.389 -0.0630  0.2185  0.1757
22718W        W39565   9.871  11.453  12.725 -0.3261  0.2087  0.3540
22719W        W39566   9.300   3.592   3.876 -0.4614  0.0037  0.0987
22720W        W39567   8.417   0.781  11.067 -0.0309  0.2359  0.0479
22721W        W39568   5.400   0.121   2.154  0.0635  0.0551  0.0891
22722W        W39569  10.989  13.886   1.109 -0.3986  0.2684 -0.2073
22723W        W39570  13.475   1.588  13.105  0.1233  0.0621 -0.1627
22724W        W39571  17.539  13.510   0.464 -0.1109 -0.1514 -0.0722
22725W        W39572  11.459   8.798   4.681  0.0368 -0.0583 -0.1437
22726W        W39573   4.022  13.963   3.789 -0.0078 -0.0696 -0.2387
22727W        W39574   9.123   1.294   5.031 -0.5380 -0.0020 -0.1741
22728W        W39575   6.777  13.063  12.831 -0.0117  0.4356 -0.0475
22729W        W39576   1.458  10.856  12.689 -0.4788  0.0712 -0.1388
22730W        W39577  14.450   9.085   1.604  0.1269  0.0085 -0.2002
22731W        W39578   8.846  15.201   2.272 -0.4269  0.2002  0.0444
22732W        W39579  13.345  12.203  12.700 -0.1487 -0.0165  0.2580
22733W        W39580   2.335   6.508   3.245 -0.0816 -0.0389  0.1072
22734W        W39581   9.268  17.000  14.634 -0.0200 -0.2560 -0.0347
22735W        W39582   3.139   1.744   2.473  0.2838 -0.1798  0.0639
22736W        W39583  10.811   7.388   3.681  0.0471 -0.5215  0.0047
22737W        W39584   6.226   8.528   4.240  0.2334 -0.0675  0.0127
22738W        W39585  10.258  12.867   1.531 -0.0363 -0.0731  0.1780
22739W        W39586   4.129   4.791   9.508  0.0244 -0.0754  0.1333
22740W        W39587   1.012  17.871  14.948 -0.2163 -0.3784 -0.2614
22741W        W39588   9.558   1.389  13.920 -0.2173  0.3324  0.1314
22742W        W39589  11.602   3.742   0.587 -0.1509  0.0319  0.1770
22743W        W39590  16.493   9.895  11.839  0.1311 -0.0534 -0.0797
22744W        W39591  17.236   5.571  13.982  0.0695 -0.1123  0.1140
22745W        W39592  10.579   6.351   0.841  0.0946 -0.1277  0.1199
22746W        W39593   1.048  15.694  12.212  0.1547  0.1815  0.1997
22747W        W39594   7.290   2.281  13.004  0.0549 -0.0414 -0.1047
22748W        W39595   2.213   2.303   3.801 -0.1449  0.2731 -0.0489
22749W        W39596  10.425  15.632   0.846 -0.0551  0.0718  0.0211
22750W        W39597  17.356  18.061   4.053 -0.1593 -0.2297  0.1749
22751W        W39598   0.214   0.558   4.472  0.0740 -0.1738  0.0133
22752W        W39599  10.185   7.625  13.616 -0.0605 -0.1580 -0.1013
22753W        W39600  11.142  12.503  12.026  0.4603 -0.0913  0.0867
22754W        W39601   8.712  15.600   9.768 -0.0382  0.1597  0.2026
22755W        W39602   3.895  12.040   3.565  0.1636 -0.2508  0.1043
22756W        W39603  10.969  12.375  11.473  0.0181 -0.2515  0.3394
22757W        W39604   4.131   6.837  11.958 -0.1494 -0.0152 -0.1203
22758W        W39605  15.515   7.919  12.496  0.1404  0.0648  0.1312
22759W        W39606  17.498   3.695  11.182 -0.0788 -0.2857  0.2418
22760W        W39607  16.072  16.063   5.386  0.1312  0.0836  0.0231
22761W        W39608  13.306  14.610  11.788  0.0921  0.0591 -0.3768
22762W        W39609  10.634   5.405  13.830  0.0671 -0.0187 -0.2923
22763W        W39610  16.594   2.765   2.757 -0.3777 -0.0017 -0.2309
22764W        W39611  16.998  17.410   0.240 -0.1687 -0.3189  0.0096
22765W        W39612   2.690  15.681  13.249 -0.0176 -0.0420 -0.0461
22766W        W39613  15.891   7.444   3.802  0.0798  0.0008 -0.1278
22767W        W39614  11.887   7.073   0.160  0.0748 -0.1766  0.0546
22768W        W39615   3.149   5.220   2.873 -0.3575  0.0068  0.0818
22769W        W39616  15.878  17.194   3.095 -0.1204 -0.0100 -0.2281
22770W        W39617   6.411  15.011  10.918 -0.1328  0.0607 -0.2859
22771W        W39618   5.533   8.900   0.080 -0.5570  0.0200 -0.1685
22772W        W39619  10.156  14.134   1.054  0.1899 -0.3405 -0.2794
22773W        W39620   9.942  10.625  10.639  0.0694 -0.3929  0.0253
22774W        W39621  14.073  17.036   6.254 -0.0765 -0.2480  0.2102
22775W        W39622   5.337   7.497   3.755  0.4733  0.0552  0.0877
22776W        W39623   2.633  15.742   1.045  0.3292  0.0487 -0.2090
22777W        W39624  18.600  17.522   3.318 -0.1775  0.2243  0.2032
22778W        W39625  19.137  16.178  12.308  0.1015  0.3083  0.4387
22779W        W39626   9.384   1.767   2.028 -0.0980 -0.0256  0.2421
22780W        W39627   5.876   3.926  11.795 -0.3564  0.1557 -0.0609
22781W        W39628   4.413  17.318  14.452 -0.2240  0.1920  0.3488
22782W        W39629  14.573   4.597  13.995  0.2118  0.3191 -0.2736
22783W        W39630   6.234  16.451  12.952  0.2470 -0.0697 -0.4927
22784W        W39631   8.501   6.969   0.353 -0.2167  0.2805  0.1101
22785W        W39632  18.921  12.344   3.724  0.2988 -0.0926 -0.1539
22786W        W39633   7.646   8.005   0.740  0.1506 -0.0867 -0.1667
22787W        W39634  18.176   2.898  11.559 -0.1783  0.1054  0.1007
22788W        W39635   7.063   3.248  13.719  0.4389 -0.0788 -0.2721
22789W        W39636   0.810   9.022  14.910 -0.0488  0.1057  0.2872
22790W        W39637  16.362  14.133  11.391  0.1949 -0.3822 -0.3173
22791W        W39638   4.404  19.268   3.613  0.0683  0.0976  0.2696
22792W        W39639  10.137  16.600   3.379 -0.1417 -0.1129  0.1049
22793W        W39640   4.229  17.734  14.449 -0.2249 -0.2748  0.1655
22794W        W39641   9.133  17.938  13.109  0.0840  0.0652 -0.1248
22795W        W39642   5.485  19.038  12.752 -0.2487  0.0362  0.0046
22796W        W39643  19.047  10.919   3.999 -0.1283  0.1155 -0.0332
22797W        W39644   2.622  11.126   4.272 -0.1195 -0.0526 -0.0346
22798W        W39645   9.593  11.432   0.785 -0.2124 -0.0676 -0.0990
22799W        W39646  17.516  18.393   5.124  0.1128  0.2263 -0.0196
22800W        W39647   5.613   7.746   1.164  0.0695 -0.1536 -0.2159
22801W        W39648   1.197  10.773  12.075  0.1403  0.0430 -0.0842
22802W        W39649  16.575  14.240   2.869  0.1218 -0.3185 -0.3666
22803W        W39650  12.331  17.049   5.611  0.4434 -0.0572 -0.0637
22804W        W39651  14.946   8.851   4.748  0.0629 -0.4870  0.0305
22805W        W39652  14.418   0.150   9.983 -0.0688 -0.1563 -0.2899
22806W        W39653   6.805   1.848   1.016 -0.1373 -0.2259  0.2386
22807W        W39654   1.843   5.007  11.461  0.0675 -0.4185  0.2085
22808W        W39655   5.367  16.528  14.647  0.2004 -0.1307  0.2635
22809W        W39656   1.279   8.130   4.190  0.1637  0.1688 -0.0302
22810W        W39657   2.270   0.371   4.658 -0.1058 -0.1538 -0.0893
22811W        W39658   0.501   9.848   1.602 -0.0356  0.0410  0.3024
22812W        W39659  14.087   4.691  12.233 -0.1767  0.2158 -0.0575
22813W        W39660  13.468   7.673  14.621  0.3072 -0.0364  0.2755
22814W        W39661  16.263   6.767   2.915  0.0685  0.2678 -0.2176
22815W        W39662  11.576   7.115  14.782 -0.0367 -0.4756 -0.3046
22816W        W39663  10.141  12.603   4.662  0.2355 -0.2279 -0.0175
22817W        W39664  19.253   3.356  14.832 -0.1656 -0.3238  0.0149
22818W        W39665   7.729   1.138  14.966  0.0295  0.1890 -0.0758
22819W        W39666  10.025  17.568   1.005 -0.4201  0.0159  0.0170
22820W        W39667  15.207   8.042   5.421 -0.3454  0.0882  0.0869
22821W        W39668  11.944  10.543  11.513 -0.0787  0.1869 -0.0659
22822W        W39669   0.798  17.250   1.114  0.0628 -0.1551  0.0825
22823W        W39670   8.797   2.438   3.034  0.0308 -0.1985  0.1133
22824W        W39671  18.143  14.971   4.333 -0.2622  0.0953  0.1725
22825W        W39672   4.864   0.691   1.760  0.0100 -0.2138  0.1552
22826W        W39673   1.080  11.822  13.787  0.2250 -0.0109  0.1874
22827W        W39674   7.717  13.948  13.142 -0.1051  0.0586 -0.2178
22828W        W39675   5.610   6.424  13.357  0.0497  0.0793 -0.0435
22829W        W39676   0.196  12.933  12.839 -0.0202 -0.2371  0.1424
22830W        W39677   9.391   7.370  11.519  0.2404 -0.1138 -0.2587
22831W        W39678   9.974   2.298  11.516  0.0076 -0.1838  0.2231
22832W        W39679   6.529  12.664   4.289 -0.1470 -0.1202  0.3277
22833W        W39680   8.929   3.363   1.377 -0.0068 -0.0183 -0.4147
22834W        W39681   4.706  15.596   2.274 -0.2451  0.1071  0.3116
22835W        W39682  18.758   8.207  11.928 -0.0413 -0.0148  0.1201
22836W        W39683   9.836   1.460   3.376 -0.0337  0.1824 -0.2294
22837W        W39684  12.987  17.062  12.716  0.3065 -0.0896  0.2339
22838W        W39685   7.814   4.848  13.223  0.2617  0.1599  0.0078
22839W        W39686  17.825  18.049   4.402 -0.0596  0.1844 -0.2087
22840W        W39687   8.005  14.194   3.719 -0.2682 -0.2822  0.1071
22841W        W39688  17.951  12.570   4.350 -0.2878 -0.1496 -0.0597
22842W        W39689  11.472   8.852   1.760  0.0126 -0.2097 -0.1689
22843W        W39690  11.226  12.886   3.165 -0.1968 -0.1918  0.1872
22844W        W39691   2.220  12.472   2.139  0.0989 -0.3197 -0.0015
22845W        W39692  11.654   7.697   3.830 -0.0042 -0.1947 -0.1433
22846W        W39693  19.208   1.375   0.928  0.5132 -0.1181  0.1758
22847W        W39694  12.667   5.171  13.754 -0.1860 -0.0301  0.0040
22848W        W39695   3.575   3.922  11.673  0.2673 -0.3454 -0.2096
22849W        W39696  13.906  13.790   1.735 -0.5179 -0.1959 -0.0819
22850W        W39697   4.416   5.780   2.529 -0.2654  0.0374  0.4548
22851W        W39698  18.921   3.133  14.523 -0.1179 -0.2187 -0.1067
22852W        W39699  17.584  12.954   1.180 -0.0700 -0.2706  0.2279
22853W        W39700  17.795  14.078  10.562  0.2718  0.0781  0.2585
22854W        W39701  12.636   1.103  11.818 -0.1677  0.3307 -0.0340
22855W        W39702  15.678   0.118   0.245 -0.3527 -0.1884 -0.2324
22856W        W39703   0.727  17.624  13.197  0.2744  0.0651 -0.0942
22857W        W39704  16.849   0.320   1.366  0.1827 -0.1307 -0.0246
22858W        W39705   3.326  10.628  12.554 -0.3835  0.1624 -0.0516
22859W        W39706   6.147  15.460   0.182 -0.0107 -0.0317  0.0631
22860W        W39707  10.538   4.243   1.724 -0.2095 -0.0648 -0.1296
22861W        W39708  10.679  17.750   4.868  0.0874 -0.0229 -0.1270
22862W        W39709   7.961  18.587   5.489 -0.2174  0.1392 -0.1489
22863W        W39710  17.547  14.558  10.584 -0.2330  0.3037  0.0726
22864W        W39711   6.754  12.294   1.570  0.1281  0.0730  0.1149
22865W        W39712  12.241  13.415   0.382 -0.1193 -0.0622 -0.3022
22866W        W39713  12.721   4.831   5.480  0.0934 -0.2373 -0.0362
22867W        W39714   7.701  10.014  14.366  0.1171 -0.1876 -0.0981
22868W        W39715  17.626   7.652  12.562 -0.0379 -0.3415  0.3503
22869W        W39716   1.933  18.527   4.286 -0.0920 -0.4412  0.1902
22870W        W39717  12.560   0.001   3.058  0.0036  0.0522  0.0394
22871W        W39718   8.371   6.328   2.128 -0.2821 -0.1717  0.0950
22872W        W39719  17.029  13.670  12.495 -0.2025  0.0043 -0.2091
22873W        W39720  19.222   9.795   2.781  0.0334  0.1349  0.0841
22874W        W39721   5.745   5.945  10.382  0.0681 -0.1470 -0.3014
22875W        W39722   3.080  17.872   4.721  0.0092  0.1596  0.4082
22876W        W39723  14.727   8.930  12.036 -0.0905 -0.2834  0.2199
22877W        W39724   0.904   4.604  14.051 -0.0027 -0.0472  0.1260
22878W        W39725   1.574  14.494   2.531  0.1579 -0.0779  0.0675
22879W        W39726  14.693   2.811   4.546 -0.0138  0.2072  0.1952
22880W        W39727  13.747  14.333  13.417 -0.3260 -0.1135  0.0171
22881W        W39728  15.630  18.010   1.558  0.3987 -0.1178 -0.0632
22882W        W39729   2.652   3.277   0.128  0.0951 -0.0470  0.0482
22883W        W39730   2.574  11.025  12.186 -0.0261 -0.0043  0.0083
22884W        W39731   8.195  19.141   4.153  0.1904 -0.3329  0.0957
22885W        W39732  12.600  14.794   1.852  0.0695 -0.0746 -0.2328
22886W        W39733  18.813  11.391   0.989  0.0265  0.4376 -0.0702
22887W        W39734   1.465  12.994   4.874 -0.2308 -0.0185 -0.0484
22888W        W39735  14.463   4.471  10.805  0.2780 -0.1565  0.2919
22889W        W39736  11.815  14.955  13.501  0.1590  0.2041  0.1951
22890W        W39737  11.358   4.309   1.915  0.2989 -0.2267  0.1934
22891W        W39738  15.698   4.060  11.770 -0.1278 -0.2021  0.2531
22892W        W39739   4.751  14.058   2.975  0.2633  0.1525  0.0474
22893W        W39740   7.545   7.177   4.239 -0.0700  0.0618  0.0679
22894W        W39741   9.286   0.431   0.289 -0.0087  0.1109  0.0206
22895W        W39742  12.979   0.938   2.123  0.1533  0.0911 -0.3339
22896W        W39743   7.331   2.853   4.732  0.0903 -0.0251 -0.1987
22897W        W39744  18.969  14.391   3.398  0.2092  0.0780  0.0082
22898W        W39745  14.915  15.678   4.698 -0.2481 -0.2506 -0.1469
22899W        W39746   1.510  10.431   0.641 -0.0258 -0.3011  0.0762
22900W        W39747   4.937   3.881  13.331 -0.3524 -0.0870  0.1990
22901W        W39748   4.907   1.256  12.484  0.1645 -0.1723 -0.1130
22902W        W39749   6.833  18.877   3.874 -0.0804 -0.1521 -0.0395
22903W        W39750   8.053   7.155  13.714 -0.0761  0.0294  0.0601
22904W        W39751  11.017   4.828   4.581  0.0358  0.1488 -0.0877
22905W        W39752   6.098  14.794   1.843  0.2216 -0.0038  0.2064
22906W        W39753  17.986   3.248   4.895 -0.0056 -0.4302  0.1372
22907W        W39754  13.342   7.804   4.031 -0.0537 -0.0083  0.2531
22908W        W39755   1.654   7.685   2.825 -0.2612 -0.1622  0.2761
22909W        W39756  12.577   4.922  11.796 -0.0392 -0.1183 -0.0700
22910W        W39757   3.331   2.686  12.909 -0.0808  0.0861  0.0319
22911W        W39758   6.652   3.979   4.332 -0.0709  0.0155  0.0812
22912W        W39759   3.862  14.232   0.203  0.0777 -0.0350  0.2303
22913W        W39760  10.230  18.860   0.663  0.0268  0.1228 -0.0390
22914W        W39761  11.897  14.849   1.222 -0.2161  0.2865  0.0439
22915W        W39762  14.388   5.228   1.814  0.1008  0.1147  0.0045
22916W        W39763  11.400  16.875   5.058  0.1935  0.0922  0.0055
22917W        W39764   4.768   0.035  14.015  0.0115  0.4490 -0.2430
22918W        W39765   0.003   0.399   4.917  0.3954 -0.1233 -0.2582
22919W        W39766   9.405   5.603   2.511  0.2822  0.3537 -0.1783
22920W        W39767   7.521  14.542   1.125  0.4174  0.4859  0.0580
22921W        W39768  15.552  10.536  14.419  0.1697  0.0180 -0.4863
22922W        W39769  10.380  14.178  11.550  0.1916  0.1201 -0.1443
22923W        W39770  11.902   4.589   9.829  0.3173 -0.0903  0.3620
22924W        W39771   7.208   1.102   1.517 -0.0997  0.0693 -0.1056
22925W        W39772  10.305  18.661  12.687 -0.1123 -0.1981 -0.0379
22926W        W39773  17.585   5.587  14.309 -0.0954  0.0405  0.0318
22927W        W39774  14.781   3.930   4.876 -0.1812  0.3598 -0.1860
22928W        W39775  17.482  12.098  14.329  0.1662  0.1924 -0.1849
22929W        W39776  16.512   1.042  14.164 -0.0560  0.0042  0.0764
22930W        W39777   1.159   2.448   2.048  0.0344  0.1364  0.2130
22931W        W39778   7.652   3.074  14.690 -0.1064 -0.2996 -0.0794
22932W        W39779   0.608   4.812   3.859 -0.0310  0.0908  0.0396
22933W        W39780  13.161   4.561   2.266 -0.1387  0.3299 -0.0443
22934W        W39781   3.624  18.383  14.933 -0.0394 -0.2839  0.1872
22935W        W39782   2.241   3.706   3.398  0.0428 -0.1675 -0.0022
22936W        W39783   5.027  16.329   0.633  0.0988 -0.1356  0.3703
22937W        W39784  15.823  16.283  11.574 -0.2842 -0.3291 -0.1472
22938W        W39785  10.529  15.717   4.690 -0.0988 -0.1246  0.3125
22939W        W39786  19.090   6.261   0.182  0.0036  0.1865  0.1704
22940W        W39787  10.114  11.451   0.974  0.2507  0.1061  0.0752
22941W        W39788   3.161   8.269  11.776 -0.1629 -0.2766  0.0512
22942W        W39789   8.829  11.804   2.042 -0.3908 -0.0342  0.1423
22943W        W39790  12.225   1.451  12.542  0.6221  0.1570  0.0275
22944W        W39791  15.682   3.226  14.961 -0.0851  0.0635 -0.0746
22945W        W39792   2.679   6.694  12.093  0.0451  0.0648  0.0817
22946W        W39793   6.498   1.080   0.282 -0.0985 -0.2471 -0.2635
22947W        W39794  12.905  15.810  12.496 -0.1378 -0.0760  0.2103
22948W        W39795  11.181   2.974   4.745  0.1134  0.2035 -0.1122
22949W        W39796   0.969  13.099  11.483 -0.1848  0.2093  0.0458
22950W        W39797   9.346   5.036   2.606 -0.0215 -0.0478  0.5294
22951W        W39798  14.171   8.751   3.844  0.1875 -0.3671 -0.2156
22952W        W39799   9.534  11.639  13.899  0.1862 -0.1074  0.1046
22953W        W39800  11.174  11.994   5.994  0.0535  0.0308 -0.1851
22954W        W39801   5.226  10.799  12.041 -0.1018 -0.1939 -0.0896
22955W        W39802  15.899   2.154   3.415 -0.2662  0.2640 -0.2328
22956W        W39803  11.916  17.057   4.779  0.0046  0.0603  0.0660
22957W        W39804  18.107   7.206   2.002 -0.3583  0.1148  0.0288
22958W        W39805  18.793  16.481   2.077  0.1658  0.2872 -0.4081
22959W        W39806  17.962  11.830  13.939  0.1764  0.0609  0.1112
22960W        W39807   6.580   5.789   5.150  0.0796 -0.0479  0.0625
22961W        W39808   3.216  13.790   0.885  0.1084  0.0184  0.0682
22962W        W39809   8.585   4.120  12.204 -0.2977  0.0997  0.4832
22963W        W39810   0.454  13.207  13.288  0.2020 -0.1718  0.2158
22964W        W39811   7.298  11.404   2.728  0.2146  0.2909 -0.1631
22965W        W39812  18.467   5.646   2.685 -0.0434 -0.0544 -0.1016
22966W        W39813   6.764   2.457  14.205  0.0180 -0.0150  0.0671
22967W        W39814   0.982   5.515   1.691  0.0522 -0.0339  0.3247
22968W        W39815  18.790   6.201  13.263  0.0678  0.2049  0.0578
22969W        W39816  14.841  12.745  12.948 -0.0510  0.2986  0.2317
22970W        W39817  13.293   4.749   5.362  0.0427 -0.2751  0.1917
22971W        W39818   8.062  13.821   2.446 -0.0381 -0.0479 -0.3893
22972W        W39819   3.210  14.325   4.116 -0.0266  0.0070 -0.0534
22973W        W39820  13.058   6.537   1.648 -0.2225  0.0537  0.0171
22974W        W39821   0.191   6.613   2.830  0.0499  0.1034  0.3866
22975W        W39822   4.581  10.853   3.406 -0.1437 -0.1133 -0.1164
22976W        W39823  18.875   0.041  13.590  0.3118  0.0605  0.0748
22977W        W39824   7.619   4.884   9.297 -0.0942 -0.0404 -0.2728
22978W        W39825   6.146   2.134  12.054  0.0327 -0.1557 -0.1974
22979W        W39826  12.603   0.779  12.987 -0.1660  0.1825  0.0155
22980W        W39827  11.993   0.706  11.789  0.3447 -0.3528 -0.2624
22981W        W39828  10.287   8.495  12.707 -0.1428  0.1774 -0.0884
22982W        W39829   8.917  13.862  10.316 -0.2935 -0.0672 -0.1692
22983W        W39830   4.884  10.217   2.155  0.2710 -0.1054  0.1545
22984W        W39831  12.188   0.720   3.355  0.4433 -0.0150  0.2142
22985W        W39832  18.596   7.042   2.762  0.1546  0.0736 -0.0110
22986W        W39833   0.484  18.956   3.089 -0.2268 -0.0348  0.5371
22987W        W39834   7.524   8.749   3.899 -0.0536 -0.0585 -0.1538
22988W        W39835   0.778  15.077  11.422 -0.0122  0.0529 -0.1254
22989W        W39836  12.761  18.278   6.096  0.1410 -0.1909 -0.1202
22990W        W39837  12.931  11.667   1.351  0.1280 -0.0591 -0.2787
22991W        W39838   6.160   5.872   0.026 -0.3016 -0.0188 -0.1747
22992W        W39839   9.373  14.731  12.572  0.0721 -0.0760  0.1158
22993W        W39840   9.046  16.969   4.713 -0.2907  0.0288  0.1191
22994W        W39841  10.361   4.994   3.206 -0.0699  0.1114 -0.1289
22995W        W39842   5.988  17.339   0.669  0.0564  0.1124 -0.1362
22996W        W39843   0.083  15.622   0.524 -0.0779 -0.4560 -0.0419
22997W        W39844   2.613   7.465   2.459  0.3771  0.1795 -0.0080
22998W        W39845  16.005   0.724   2.580 -0.1452  0.1787  0.2157
22999W        W39846   8.166   7.536   4.306 -0.1798 -0.0319 -0.0575
23000W        W39847  13.644  18.036  13.112  0.1981  0.2178  0.1607
23001W        W39848   3.252   8.932  14.489 -0.1078  0.1566 -0.1426
23002W        W39849   5.684   8.174  14.016  0.2519  0.0993 -0.3164
23003W        W39850   8.545   6.642   3.568  0.1310  0.0227  0.1747
23004W        W39851   3.137  15.962   2.802  0.0384 -0.2765 -0.1417
23005W        W39852   9.836  19.228   3.099 -0.1799 -0.0539  0.1471
23006W        W39853  11.749  18.867  10.263 -0.1409 -0.0679 -0.1336
23007W        W39854  18.780   7.952  11.291  0.0452  0.0096 -0.2612
23008W        W39855  10.005   7.304  13.926  0.1267  0.1019  0.2498
23009W        W39856  10.245  10.203  12.732 -0.1073 -0.1288  0.0556
23010W        W39857   0.523   6.240   3.023  0.2102  0.1969  0.2037
23011W        W39858   2.298   6.310   2.268 -0.1235  0.1381 -0.0830
23012W        W39859   1.671  14.227   3.532  0.1453  0.3101  0.0323
23013W        W39860   4.769  19.128  12.014 -0.0169 -0.0642 -0.1205
23014W        W39861   3.932   2.609   4.270  0.0210  0.1664  0.3172
23015W        W39862   8.927  18.227  11.609  0.1440 -0.0124  0.1037
23016W        W39863  15.847   9.660  11.393 -0.0114  0.2412 -0.2323
23017W        W39864  11.414   2.685   0.413 -0.2066  0.3466 -0.2420
23018W        W39865   2.162   2.652  10.694 -0.0154 -0.0968  0.0291
23019W        W39866  17.914  16.598  10.011 -0.3120  0.0549  0.2032
23020W        W39867  15.845   7.135  14.127 -0.0465  0.2523  0.1151
23021W        W39868   6.745  17.113  10.764  0.3027 -0.1074 -0.1082
23022W        W39869   3.533  17.587   0.642  0.1271  0.3443  0.0348
23023W        W39870   8.982  14.253   4.025  0.0627  0.2775 -0.0984
23024W        W39871   8.814   7.901   2.801 -0.1344 -0.1826  0.2756
23025W        W39872   6.137   3.869  10.903 -0.0954 -0.0466 -0.0321
23026W        W39873   3.361   1.259   2.809 -0.0563 -0.0440  0.0256
23027W        W39874   9.708  17.250   4.714 -0.2146 -0.1973 -0.0602
23028W        W39875   0.833   5.479   2.791 -0.1775  0.0693  0.4589
23029W        W39876  14.625   7.891  10.400  0.0350 -0.0533 -0.0469
23030W        W39877  16.509   8.086   3.879 -0.0411  0.2333 -0.1235
23031W        W39878  18.339  18.021  13.353  0.2482  0.1206 -0.0439
23032W        W39879  18.252  15.814   0.486  0.1767 -0.0090 -0.0796
23033W        W39880   2.248  13.819   2.497  0.0929  0.0177  0.2543
23034W        W39881  13.193  12.208   2.536  0.0532  0.2623  0.1363
23035W        W39882  19.063   4.793  14.214 -0.0899 -0.2276  0.0423
23036W        W39883  14.336   8.591   3.093 -0.3041 -0.2463  0.1166
23037W        W39884   9.462   2.411  12.375  0.1572 -0.1078 -0.0408
23038W        W39885  15.258   5.269   1.116 -0.2243  0.0667 -0.0531
23039W        W39886  13.701  10.027   2.278 -0.4398  0.0911  0.1424
23040W        W39887  10.115   3.014  14.467  0.0822 -0.1639 -0.1714
23041W        W39888   0.812   6.257  11.170 -0.1235  0.3433 -0.2934
23042W        W39889   8.033   8.015  14.576  0.2134  0.2474  0.1192
23043W        W39890  17.096   0.001   5.272 -0.0993 -0.2391 -0.1291
23044W        W39891  12.477   3.023   4.111  0.3490  0.0019  0.0972
23045W        W39892  17.647   7.551  13.910  0.1055  0.0096 -0.1380
23046W        W39893  17.668   5.779   4.902  0.0613 -0.4471 -0.0575
23047W        W39894  10.876  12.306   3.648  0.2779  0.0043  0.1098
23048W        W39895   3.779   4.404  12.842 -0.0540  0.2627  0.0239
23049W        W39896   1.397   1.080   0.904 -0.3206 -0.2498  0.1189
23050W        W39897  11.878  10.005   1.403  0.4716 -0.2595 -0.1497
23051W        W39898   7.138   4.216   0.701  0.3672 -0.0859 -0.1897
23052W        W39899  10.934   5.756  11.517  0.3634  0.1773 -0.5136
23053W        W39900   7.274  13.919   5.200 -0.1371  0.0178 -0.1041
23054W        W39901  19.276  18.312   1.075 -0.2622 -0.0751 -0.0467
23055W        W39902   1.693   9.047  12.553  0.2742 -0.0275 -0.0181
23056W        W39903  16.642  18.040   1.241 -0.1706 -0.1287  0.0040
23057W        W39904   3.423   4.369   1.803  0.0487  0.1231 -0.1349
23058W        W39905  18.537  10.167   3.259 -0.0371 -0.1327  0.0442
23059W        W39906   8.984  19.110  14.032  0.2972  0.0678 -0.1659
23060W        W39907  10.461  14.021   1.866  0.0269 -0.0977  0.0146
23061W        W39908   3.860   5.296  13.715  0.1957 -0.2290 -0.1355
23062W        W39909  11.966   8.374   2.216  0.1779 -0.1328  0.3363
23063W        W39910   8.380  16.946  13.217 -0.1571 -0.1017 -0.0985
23064W        W39911   9.797   1.803  13.689  0.3589  0.0902 -0.1644
23065W        W39912  15.212   9.081  11.979  0.1983 -0.0250 -0.4568
23066W        W39913   9.963  16.942  11.044  0.1136 -0.1963 -0.0094
23067W        W39914  19.281  15.773   2.671  0.2695 -0.3120  0.3264
23068W        W39915  13.039   1.408  13.814 -0.2082  0.0264 -0.0221
23069W        W39916  11.632   7.676   4.880  0.2610 -0.0891 -0.2976
23070W        W39917  10.928  14.005   0.024 -0.2519  0.1816  0.3579
23071W        W39918   2.475   8.893   0.430  0.0479 -0.2256  0.1638
23072W        W39919   0.494   7.592  12.087  0.0610 -0.0154 -0.0760
23073W        W39920  17.376   1.223   4.996  0.4146 -0.1014  0.1729
23074W        W39921   7.548   8.982  11.131  0.0600  0.1711 -0.0856
23075W        W39922   7.892   7.711   2.429 -0.0349 -0.1947 -0.0444
23076W        W39923  13.533  16.075  13.785 -0.0942 -0.0285  0.2264
23077W        W39924  13.410   6.124   1.562 -0.0582 -0.1420  0.1113
23078W        W39925   4.139  13.235   0.795  0.1072 -0.3245  0.1849
23079W        W39926  10.961  16.180  12.029 -0.0542  0.2953 -0.0481
23080W        W39927  16.168  13.144  13.968  0.1382 -0.0747  0.3048
23081W        W39928  10.298   2.787   3.803  0.2316  0.0851 -0.2551
23082W        W39929   0.524  10.130   2.137  0.0522 -0.2565 -0.0026
23083W        W39930   1.160   1.372   3.961 -0.0713 -0.4128 -0.2318
23084W        W39931  15.069   8.147   2.123  0.2139  0.2880 -0.1128
23085W        W39932   0.866  10.858   1.192  0.0745 -0.3972 -0.1532
23086W        W39933   9.567  16.524  12.753 -0.3357 -0.1961  0.0002
23087W        W39934  12.802  13.532   2.672  0.3083 -0.2409 -0.0390
23088W        W39935  12.445   8.176   9.294  0.1744  0.0223  0.3180
23089W        W39936  12.461  15.030  13.235 -0.1247 -0.1086 -0.1229
23090W        W39937  12.690   3.313   2.526  0.0995  0.1603  0.1509
23091W        W39938  15.051  12.016  14.217 -0.3158  0.3701  0.1720
23092W        W39939  10.427  11.616  14.782 -0.0117  0.1539 -0.1724
23093W        W39940   1.282  18.525   3.031 -0.1056  0.0304  0.0965
23094W        W39941  18.017   4.237   2.932 -0.3355  0.3120  0.1016
23095W        W39942  18.077   3.427   0.631  0.0830 -0.3908  0.0117
23096W        W39943   7.689  16.405  13.029  0.0593  0.0226  0.1113
23097W        W39944   9.656  14.655  14.468 -0.1010 -0.1582  0.1829
23098W        W39945  16.138  17.849  14.021  0.1370  0.1019 -0.2671
23099W        W39946   6.587   8.056   2.428  0.2043 -0.3546  0.0832
23100W        W39947   5.522  19.069  11.335  0.0407  0.1394  0.1185
23101W        W39948   3.694  14.247  12.619  0.2784  0.3869  0.2294
23102W        W39949   6.872  18.018  12.957 -0.5196  0.0281 -0.0086
23103W        W39950   7.743   5.387  10.667  0.0407 -0.1105 -0.3782
23104W        W39951  17.981   3.863  10.321  0.0113  0.1162 -0.4154
23105W        W39952   6.189  18.255   3.942  0.1002 -0.0444 -0.2441
23106W        W39953   1.682  16.858   3.994  0.0231 -0.2080 -0.0428
23107W        W39954   3.121   7.246  13.441 -0.1189  0.1206  0.1305
23108W        W39955   8.155  17.503   4.829 -0.1598 -0.0560  0.0886
23109W        W39956  15.695   2.284   0.933 -0.2014  0.1189  0.0248
23110W        W39957  10.989  15.145  12.189  0.0237 -0.0945  0.3337
23111W        W39958  15.058   2.654   2.085  0.0098  0.0907 -0.1802
23112W        W39959   8.625  11.240  10.261 -0.1217  0.1997  0.0249
23113W        W39960   9.939   7.677   2.390 -0.0945 -0.1365 -0.0332
23114W        W39961  18.869   1.585   1.985 -0.0896 -0.2326 -0.2579
23115W        W39962   3.033  10.700  14.853  0.0179 -0.2518 -0.1126
23116W        W39963   9.643  13.300   2.180  0.1737 -0.2951 -0.3844
23117W        W39964   8.504  14.672  10.170  0.0493  0.2685  0.0588
23118W        W39965  12.046   3.783   3.081  0.1028 -0.0196  0.1000
23119W        W39966  13.985  14.265  12.469 -0.1328 -0.0471 -0.2165
23120W        W39967  15.410  18.495   3.879 -0.0198  0.3468  0.2365
23121W        W39968   5.586  11.351  12.182  0.0725  0.0736  0.5481
23122W        W39969  14.009   3.813   4.728 -0.1915 -0.1366 -0.1474
23123W        W39970   5.431  12.989  12.053 -0.0867 -0.0735  0.1452
23124W        W39971   0.072  11.066  13.947 -0.0112 -0.1201  0.3293
23125W        W39972   4.310  15.590  10.494 -0.0969 -0.0417  0.1579
23126W        W39973   7.633  13.749   0.507  0.0673  0.0553  0.1289
23127W        W39974   8.131   9.328   4.847  0.2270  0.1381 -0.0650
23128W        W39975  14.201  11.541  13.600  0.2122 -0.1807 -0.0931
23129W        W39976  15.691  12.091  11.623 -0.0699 -0.0011 -0.0058
23130W        W39977  17.450   4.681  11.686 -0.0716 -0.1048  0.0596
23131W        W39978  13.474   5.259  12.395  0.1538  0.2538 -0.0678
23132W        W39979  15.480   2.672  12.908  0.0600 -0.0621  0.0969
23133W        W39980   0.346  15.401   3.482 -0.0188  0.2569  0.1256
23134W        W39981   0.197  15.995  13.839 -0.1124 -0.0373  0.0766
23135W        W39982  11.603   9.407   3.628  0.2169 -0.2671  0.0772
23136W        W39983  15.653  14.958   4.754  0.0798 -0.1818  0.3301
23137W        W39984  12.362  17.865   2.633 -0.0175 -0.0278  0.0357
23138W        W39985   7.566   7.981  14.399 -0.3760 -0.1605 -0.0603
23139W        W39986  16.706   2.051   1.416  0.0489  0.0473 -0.1613
23140W        W39987   1.768   0.290   1.264  0.0928 -0.4623  0.2892
23141W        W39988   4.237  18.637  13.450 -0.0854  0.2094  0.0010
23142W        W39989   0.785  14.292  13.718  0.0286 -0.0637  0.0809
23143W        W39990   6.529   0.772  11.491  0.1015  0.0399  0.1607
23144W        W39991   2.039  17.305   1.551 -0.3624  0.0106 -0.3496
23145W        W39992  16.392   5.931   2.848 -0.1769  0.3680 -0.1183
23146W        W39993   5.875   8.873  14.714 -0.1858 -0.0857 -0.2643
23147W        W39994  14.128  15.699  11.193 -0.1379 -0.0266 -0.1488
23148W        W39995  10.576   5.139   1.509 -0.2725 -0.0398 -0.4039
23149W        W39996  17.772  17.021   3.374  0.0388 -0.0476 -0.0313
23150W        W39997  16.983   9.664   1.762 -0.2203  0.0251  0.0137
23151W        W39998   1.351   0.914   4.648  0.1239  0.2671  0.0064
23152W        W39999  11.576  12.345  14.449 -0.0132  0.3697  0.1448
23153W        W40000  16.622  16.988   4.787  0.0914 -0.2759 -0.1598
23154W        W40001   9.085   2.921   2.514 -0.1667 -0.4121  0.2359
23155W        W40002   4.869  18.686   2.412 -0.0692  0.0845  0.0147
23156W        W40003  17.385   6.170   5.652 -0.1624 -0.1904 -0.0803
23157W        W40004  18.109  13.049   4.384  0.3008  0.0864 -0.2351
23158W        W40005  13.295  14.789   2.270 -0.0771 -0.0956  0.1194
23159W        W40006  10.227  15.194  11.293  0.0588  0.0827 -0.0333
23160W        W40007  15.978  15.828  14.066  0.0015  0.0954 -0.0974
23161W        W40008   5.107  10.475   0.518 -0.3591 -0.1082 -0.1703
23162W        W40009   1.450  15.100  13.538 -0.2269  0.2893 -0.2479
23163W        W40010   7.632  16.716   3.625  0.1632 -0.0720 -0.2493
23164W        W40011  13.024   5.330   2.215 -0.1869 -0.0291 -0.0759
23165W        W40012   6.754   5.705   2.199 -0.0994  0.1868  0.0194
23166W        W40013  14.958  19.269  13.647 -0.0443  0.0978 -0.0484
23167W        W40014   9.770  16.729   3.899 -0.1461  0.0927 -0.2052
23168W        W40015  13.019   5.671   1.639 -0.2853 -0.1469 -0.0091
23169W        W40016  17.556  10.101   1.870  0.1719  0.0001  0.0841
23170W        W40017   1.378   4.920   4.580  0.0113 -0.1896  0.0632
23171W        W40018  11.247   2.134   1.183 -0.0510 -0.1833  0.2083
23172W        W40019  10.574  10.248  13.662  0.1636 -0.3042 -0.1394
23173W        W40020  11.493  18.690   5.078  0.0121 -0.0512  0.2311
23174W        W40021  17.871   0.653   3.204  0.3696  0.0803  0.0388
23175W        W40022  10.427   8.450   3.049 -0.0183  0.1846 -0.0403
23176W        W40023  11.953   5.781  13.279 -0.0745 -0.1403  0.1377
23177W        W40024   3.865  13.057  14.162  0.0278  0.6478 -0.0974
23178W        W40025  11.433  17.271  13.802  0.0594 -0.0906 -0.3123
23179W        W40026  15.561  17.349   0.906  0.4546 -0.1357  0.0353
23180W        W40027  16.688  11.387  13.944 -0.0871  0.1954 -0.1470
23181W        W40028   7.048  10.528   1.730  0.2178 -0.0981 -0.0388
23182W        W40029  13.791  11.596  10.040 -0.1965  0.3627 -0.0003
23183W        W40030   9.497   7.651  14.697  0.2233  0.0453  0.0144
23184W        W40031  11.316   0.527   1.152  0.1912  0.0400 -0.0270
23185W        W40032   1.200   1.202   2.827  0.1919 -0.1654  0.0663
23186W        W40033   6.948   1.083  14.469  0.2771 -0.1899 -0.0295
23187W        W40034   4.907  10.030   2.642 -0.0634 -0.3474  0.2015
23188W        W40035   8.251  10.397  13.663  0.2276 -0.1354 -0.0215
23189W        W40036   8.124   4.562  14.925  0.4361  0.1379 -0.0663
23190W        W40037   3.119   0.831  14.878 -0.0486  0.0404  0.1014
23191W        W40038  16.678   7.860  12.354  0.0835  0.0697 -0.0129
23192W        W40039   6.002   1.469  11.301  0.3688  0.2195 -0.0787
23193W        W40040   6.007   1.311   0.268  0.1120  0.0825  0.0446
23194W        W40041   5.466   8.249  12.711 -0.1308  0.0342 -0.3775
23195W        W40042  16.194  12.004   2.506 -0.2174 -0.0272 -0.2294
23196W        W40043  17.619  16.026   1.401  0.4651  0.1769  0.1206
23197W        W40044  17.826   3.448  12.094  0.0804  0.3339  0.3311
23198W        W40045   3.111  17.495   2.181 -0.0484 -0.0639  0.0339
23199W        W40046   9.066   5.761  13.509  0.0151 -0.1600  0.0258
23200W        W40047  11.634  10.824  14.001 -0.2804  0.1128 -0.1964
23201W        W40048  18.444   9.771  13.046 -0.1324 -0.2403  0.0448
23202W        W40049   4.365  16.135  13.625 -0.0118 -0.2089 -0.0921
23203W        W40050  16.906   5.401  11.007  0.0222  0.0940  0.1739
23204W        W40051   0.296  14.013   1.584  0.5328 -0.2209 -0.0454
23205W        W40052   4.566  15.685  13.808  0.1255  0.0136 -0.0597
23206W        W40053  13.632   3.026  14.221 -0.1089 -0.0883 -0.1203
23207W        W40054  15.554   8.916   3.479  0.2243 -0.0459 -0.1041
23208W        W40055  17.135  14.707   0.139 -0.1938 -0.1439  0.1807
23209W        W40056   9.408  14.093   1.831  0.0463  0.0434  0.1015
23210W        W40057   4.983  12.273  10.856  0.0030 -0.2711  0.1168
23211W        W40058   5.052   1.922   2.809 -0.0167  0.0974 -0.2413
23212W        W40059  12.526  12.373  11.017  0.1950  0.0837  0.3995
23213W        W40060  12.090  15.473  14.233  0.0019  0.1864 -0.0298
23214W        W40061   1.319   3.606   4.444  0.0412 -0.0044  0.0192
23215W        W40062   1.719   3.626   1.806  0.1446 -0.0601 -0.0392
23216W        W40063  18.981   7.616   1.375 -0.0667  0.1661  0.0575
23217W        W40064  10.003   2.005   0.754  0.0715 -0.0816 -0.1442
23218W        W40065   5.005   7.898  14.214 -0.1790 -0.4682  0.0072
23219W        W40066   0.944  11.772  14.285 -0.0312 -0.0215  0.3222
23220W        W40067   6.992   5.992   3.678  0.0989 -0.1040  0.2121
23221W        W40068   7.166   8.583  11.076 -0.1385  0.1863  0.2926
23222W        W40069  13.043  12.272  10.965 -0.1816 -0.0500 -0.0093
23223W        W40070  11.941  17.380   2.838  0.1402 -0.3038 -0.0650
23224W        W40071   3.749   4.305   0.997 -0.3380 -0.1295  0.2263
23225W        W40072   0.885  14.367   4.267 -0.1357  0.0677  0.1630
23226W        W40073   6.704  17.470   1.655  0.0859 -0.3838 -0.2651
23227W        W40074   5.649  11.476   9.298 -0.0620 -0.0172  0.0896
23228W        W40075   9.624   9.832   0.834  0.1741  0.0893 -0.2385
23229W        W40076   7.518   2.090  12.143 -0.1350  0.2387  0.1188
23230W        W40077  11.732  11.376  11.270  0.1383  0.0271  0.1805
23231W        W40078   7.074  11.598   3.574 -0.3692  0.1611 -0.1296
23232W        W40079   0.216  16.506   1.393  0.0881 -0.0652  0.0650
23233W        W40080  12.023   9.042   5.035  0.0639  0.3249  0.2890
23234W        W40081   9.967   1.913   1.812 -0.0599 -0.1309  0.2112
23235W        W40082  14.752  11.597  12.783 -0.1806 -0.1374 -0.0151
23236W        W40083  18.318   0.774   4.018 -0.1931  0.2523  0.1531
23237W        W40084  15.675  16.765  12.900 -0.0519 -0.1686 -0.3433
23238W        W40085   2.873  16.230  13.882 -0.0415  0.0142 -0.3114
23239W        W40086   7.166  18.890   4.436 -0.2904  0.0845  0.2454
23240W        W40087   9.210   0.987  13.301  0.1152 -0.1304  0.0409
23241W        W40088  17.032  15.526  12.933 -0.0608 -0.2102  0.1044
23242W        W40089   3.075   4.970  10.914  0.2386 -0.1113 -0.2920
23243W        W40090  16.013   2.691  11.546  0.2472 -0.0050 -0.0661
23244W        W40091  12.921   4.140   5.273 -0.1789 -0.1220 -0.0628
23245W        W40092   1.134  18.177   1.876 -0.0912 -0.2166 -0.1286
23246W        W40093  11.419  17.818  12.013  0.1354 -0.2877 -0.1438
23247W        W40094   7.892   1.092   3.854 -0.3026  0.0317  0.0804
23248W        W40095   3.320   7.970   2.951 -0.1870  0.0632 -0.2047
23249W        W40096   0.967   2.976   0.120  0.2222  0.2501  0.0714
23250W        W40097   1.143  15.905  13.563 -0.0786  0.1181 -0.0168
23251W        W40098   3.263   0.865  14.282  0.1233 -0.2728  0.1420
23252W        W40099  13.221  18.266  12.854 -0.2778 -0.0007 -0.1441
23253W        W40100   9.634   6.450  14.511  0.0822  0.0788 -0.1488
23254W        W40101   8.527   3.099  13.702  0.2797  0.0397  0.1411
23255W        W40102   1.808   1.029  13.588  0.1619 -0.0734 -0.0613
23256W        W40103   8.507  18.911   3.318 -0.1189  0.1576 -0.2403
23257W        W40104   2.902  10.681  14.310  0.0209  0.1582  0.0510
23258W        W40105   2.112   7.939   5.234 -0.0205 -0.0926  0.2113
23259W        W40106  11.699   5.159   2.262 -0.0688  0.0577 -0.3432
23260W        W40107  13.174  17.622  11.917 -0.0365 -0.1833  0.0338
23261W        W40108  18.619   0.612   0.554 -0.2228 -0.2440  0.1786
23262W        W40109  18.597   8.434   9.984  0.0674 -0.0059  0.1270
23263W        W40110   1.262  15.243   2.664 -0.1441 -0.4360 -0.1451
23264W        W40111  16.615  19.134  11.690 -0.1892 -0.0042 -0.0464
23265W        W40112  12.228  10.462   4.848 -0.4194  0.0632 -0.3503
23266W        W40113   2.108  17.532   0.801  0.3836  0.2665  0.1147
23267W        W40114  18.537   9.739  11.011 -0.3435 -0.0134  0.0674
23268W        W40115   2.214   3.538  14.421  0.0874  0.0110 -0.1325
23269W        W40116   3.737  14.026   2.695 -0.2170  0.3496  0.0584
23270W        W40117  13.903   6.101   5.032 -0.1744 -0.0122 -0.0102
23271W        W40118  10.375  12.756  12.584  0.1417  0.0505  0.1304
23272W        W40119   2.934   7.508  10.675  0.0456 -0.1547  0.2286
23273W        W40120   9.024   1.637  11.592  0.0939 -0.4127 -0.2463
23274W        W40121  15.651   5.931  13.608 -0.2291  0.0747 -0.0867
23275W        W40122   5.811   3.131   0.547 -0.0775 -0.2090  0.0957
23276W        W40123  17.860   8.002  11.581 -0.0848  0.1572  0.1792
23277W        W40124  12.395  18.396   5.099 -0.0434  0.1773  0.0600
23278W        W40125  14.377   6.962  10.938  0.0441  0.2679  0.0245
23279W        W40126  13.977  14.681   4.777 -0.1230 -0.1037  0.2162
23280W        W40127  12.606  10.398  14.744  0.1094  0.1412  0.0802
23281W        W40128  17.369  18.377   3.663  0.0254 -0.0549  0.0164
23282W        W40129   2.088   0.587  12.652  0.0977  0.0663 -0.2155
23283W        W40130   1.718   1.825  12.009  0.2069  0.0894 -0.0960
23284W        W40131   1.072   9.554  11.634  0.0866 -0.2166  0.0846
23285W        W40132   5.050   5.556  10.439  0.0788 -0.0875  0.3654
23286W        W40133   1.725   3.125  14.032 -0.2215 -0.1416 -0.1010
23287W        W40134   5.133  13.438   4.476  0.1121  0.0607 -0.0473
23288W        W40135  14.897  17.958  11.492  0.0499 -0.0171 -0.0979
23289W        W40136   9.439  11.567   4.268  0.3896 -0.0280 -0.3358
23290W        W40137   5.336   2.813   2.924 -0.1454  0.0629  0.0467
23291W        W40138  18.368   5.136   4.819  0.0068  0.2956 -0.3819
23292W        W40139  16.735  17.690   4.731  0.0255  0.0513  0.2205
23293W        W40140  18.273  19.060   0.194  0.1850 -0.1276  0.2659
23294W        W40141   8.824   2.981  14.089  0.1784  0.1992 -0.1852
23295W        W40142  11.542   4.107   1.401  0.1673  0.0471  0.1974
23296W        W40143   3.863   5.999  13.129  0.1794  0.0261 -0.0151
23297W        W40144  10.696  15.281   5.402 -0.1017 -0.0956  0.0597
23298W        W40145   3.741   4.234  11.972  0.1794 -0.1169 -0.0599
23299W        W40146  17.246   9.672   6.032  0.3533  0.0867 -0.1951
23300W        W40147  15.183   8.280   4.058  0.2121  0.0368 -0.1165
23301W        W40148  11.583   8.815  14.749  0.0479  0.0550 -0.1477
23302W        W40149   2.171   9.405   3.408 -0.1575  0.1066  0.1978
23303W        W40150  11.349  10.684  11.872 -0.0494 -0.0499  0.2747
23304W        W40151   3.528  15.301  11.942 -0.0853  0.0091  0.0838
23305W        W40152   9.869   6.366  12.179 -0.2474  0.0727  0.3300
23306W        W40153  18.456  13.571   0.886 -0.2619 -0.1424 -0.0898
23307W        W40154   9.945  10.586  14.461  0.1456 -0.1361 -0.0664
23308W        W40155   7.901   4.313  10.399 -0.0292  0.1787 -0.0343
23309W        W40156   9.468  10.376  13.386  0.1353 -0.1592 -0.1140
23310W        W40157  10.372   5.755  13.071  0.0614 -0.0024  0.1184
23311W        W40158  18.111  13.298  12.150 -0.0278 -0.1413  0.0044
23312W        W40159   3.580   5.077   3.465 -0.2192 -0.1952  0.2193
23313W        W40160  18.615  17.603   0.483 -0.0092 -0.0656 -0.2677
23314W        W40161   2.285   3.913   4.486 -0.0603 -0.3685  0.1576
23315W        W40162   5.356  14.743   2.241 -0.0664 -0.0813 -0.1701
23316W        W40163   1.995   2.306   1.953 -0.3525  0.0516 -0.0284
23317W        W40164   1.455  10.509   4.795  0.1546 -0.3208 -0.0236
23318W        W40165   9.396   3.258   2.025  0.5462  0.2690  0.1273
23319W        W40166  18.413   6.120   2.717  0.1691  0.0697  0.1526
23320W        W40167  15.412   4.503   3.990  0.2867  0.1823 -0.0562
23321W        W40168   7.044   6.239  10.522 -0.3353  0.1600 -0.1169
23322W        W40169   8.296  18.891   5.078 -0.2074  0.1408  0.2015
23323W        W40170   6.835  16.122  13.765 -0.0116 -0.2127  0.0725
23324W        W40171   2.862   1.937   4.528 -0.0791  0.2080  0.1552
23325W        W40172  13.327  10.300   3.473 -0.0654  0.1251  0.0939
23326W        W40173   8.116   2.342   3.129 -0.0925 -0.0458 -0.1126
23327W        W40174  15.584   3.207  11.460 -0.1333  0.1790 -0.1567
23328W        W40175   2.708  18.211  13.120  0.1609  0.3054  0.3554
23329W        W40176   1.331   8.823  13.840  0.2423  0.0905 -0.1006
23330W        W40177  16.952  18.365   5.445 -0.3305 -0.0410 -0.0629
23331W        W40178  10.567   6.479  14.304 -0.0521  0.0698  0.1224
23332W        W40179   0.949   4.528   2.553  0.0927  0.3512  0.0507
23333W        W40180   1.192  15.171   1.897 -0.0837  0.3616  0.0542
23334W        W40181  15.333  13.633   0.793  0.1357  0.1519  0.2423
23335W        W40182  11.797   1.498  12.326 -0.0261  0.0951  0.0051
23336W        W40183   7.614  17.330   2.016 -0.0880  0.0583  0.1322
23337W        W40184   6.681   5.951  13.775  0.2425  0.0988 -0.0341
23338W        W40185  15.563  16.387  14.820 -0.0739 -0.2658 -0.0507
23339W        W40186   8.231   2.331   2.327  0.2974  0.0351 -0.2692
23340W        W40187  18.186   5.780  11.077  0.3260  0.0536 -0.3522
23341W        W40188  13.026   1.395   5.295 -0.0184 -0.0246  0.1761
23342W        W40189  11.487   9.915   1.733 -0.0297 -0.2328 -0.1145
23343W        W40190   9.638   7.045   5.435 -0.1204 -0.1682 -0.4354
23344W        W40191  15.973  15.409   3.424 -0.2337 -0.1474 -0.2834
23345W        W40192  12.559   0.522   5.066 -0.1461  0.1543 -0.0220
23346W        W40193   4.906   2.382  10.733 -0.2042 -0.0273 -0.1892
23347W        W40194   5.452   9.610  12.064 -0.3593 -0.2666  0.0836
23348W        W40195   4.695  15.308  11.154 -0.1196  0.1531  0.1464
23349W        W40196  16.096   1.686   2.705 -0.0477 -0.1287 -0.4156
23350W        W40197   1.618  11.809  14.865 -0.1227  0.0054  0.0833
23351W        W40198  16.778  13.850  10.705 -0.0047  0.0164 -0.1731
23352W        W40199   6.719  14.708   9.657  0.0044 -0.0840  0.0859
23353W        W40200   7.591  14.499  13.173 -0.2585  0.2601 -0.0251
23354W        W40201  14.902   9.517   3.395 -0.0788  0.0689  0.0668
23355W        W40202   0.639  13.983   3.434  0.0826 -0.4204  0.2044
23356W        W40203   2.705  10.628   0.621 -0.0996 -0.1096 -0.1014
23357W        W40204  16.507   9.155  13.240 -0.0039 -0.1619 -0.0879
23358W        W40205  15.088  14.259   5.881 -0.0174  0.1756 -0.0440
23359W        W40206  19.188   9.850   1.825 -0.1651  0.0381 -0.0218
23360W        W40207  11.709   2.532  11.846 -0.4011  0.2597  0.1377
23361W        W40208  12.438   6.772   0.886  0.2480 -0.2929  0.1048
23362W        W40209  18.810   9.828   4.802  0.2887 -0.2040  0.1575
23363W        W40210  15.286   7.423  10.990  0.2221 -0.1044  0.3728
23364W        W40211   6.487   4.291  11.357  0.2140  0.1427 -0.2455
23365W        W40212   3.337   3.519  12.449 -0.0743  0.1592  0.2200
23366W        W40213  15.053   2.301  14.651 -0.0971  0.1193 -0.1165
23367W        W40214   4.800   6.193  11.473  0.0591  0.1666 -0.1445
23368W        W40215   7.685  17.682   3.516  0.0247 -0.3393  0.0231
23369W        W40216   4.050  11.798  14.639 -0.2318  0.0523  0.0630
23370W        W40217   5.979   5.680   3.455  0.0010 -0.0076 -0.0529
23371W        W40218   8.497  15.011  10.966 -0.2885 -0.2436 -0.0192
23372W        W40219   9.571  19.170  13.237 -0.2206  0.3722  0.1419
23373W        W40220  12.605   5.546   1.891  0.1395 -0.0750 -0.0480
23374W        W40221  10.786   5.156   0.676 -0.0937  0.0005 -0.2333
23375W        W40222   4.981  16.385   3.840  0.1785  0.1048  0.0044
23376W        W40223  12.923   7.465  14.542 -0.0887 -0.3324 -0.0447
23377W        W40224   1.180   8.867   3.197 -0.1086  0.2562  0.1207
23378W        W40225  10.273   6.775  13.852  0.2116  0.5180 -0.0101
23379W        W40226   0.887   3.562   3.449 -0.2005 -0.1616 -0.1210
23380W        W40227   1.547   0.028   4.300  0.1116  0.0035 -0.3420
23381W        W40228   6.485  17.104   4.482  0.0798  0.7199 -0.0583
23382W        W40229   6.988   8.626  13.307  0.2198 -0.1265  0.1871
23383W        W40230   0.623   4.016  13.579 -0.0555  0.0345 -0.1063
23384W        W40231   9.692   6.653   1.026  0.2488 -0.0555  0.0421
23385W        W40232   8.134   9.057  10.467  0.1064 -0.0924 -0.1787
23386W        W40233  17.850   8.017  13.090  0.0082 -0.3858  0.0868
23387W        W40234   3.059   3.096  12.971  0.0120 -0.1193 -0.1756
23388W        W40235   6.396   1.369  12.718  0.1713  0.1279 -0.1423
23389W        W40236  11.587   4.783  14.444 -0.1490  0.3511  0.0840
23390W        W40237  16.845   2.685   4.360 -0.0050  0.0136  0.0796
23391W        W40238   3.094  17.923  13.262 -0.0736  0.1913 -0.3369
23392W        W40239   3.943   3.164  14.545 -0.1106  0.1393  0.0895
23393W        W40240  14.284   1.685  14.636  0.0262  0.1223  0.0927
23394W        W40241  14.722   7.082  14.743  0.2882  0.1374 -0.1061
23395W        W40242  11.430   1.906   9.901 -0.2914 -0.2177 -0.1230
23396W        W40243   0.550   0.138   2.422  0.2555  0.2012 -0.1022
23397W        W40244  14.416   9.634   3.348 -0.0392  0.2590  0.0752
23398W        W40245  13.855  11.660   0.317 -0.1309  0.1768 -0.2437
23399W        W40246   8.985   0.322   4.780 -0.1747  0.0227 -0.1818
23400W        W40247  11.274   9.212  10.859  0.0607 -0.2360 -0.0265
23401W        W40248   6.419  10.135   2.652  0.0997  0.0178 -0.1916
23402W        W40249   8.312  10.729   3.447 -0.1469  0.1502 -0.4246
23403W        W40250  12.374  18.865  14.032 -0.1951 -0.0846  0.0768
23404W        W40251  14.798   5.413  14.925 -0.0134 -0.1516  0.0520
23405W        W40252  11.219   8.889   3.169 -0.0339  0.0078 -0.0786
23406W        W40253   3.754   5.650   4.306  0.2245 -0.4164  0.1173
23407W        W40254   5.256   0.345   4.695 -0.2580 -0.2027  0.2790
23408W        W40255   9.089   2.481  13.220  0.0472  0.2231 -0.0746
23409W        W40256   2.812  11.807  13.809 -0.2037 -0.3349  0.2409
23410W        W40257  13.828   6.305   1.199  0.1391 -0.1215  0.0269
23411W        W40258  12.531   4.752   3.831  0.1162 -0.1298  0.1123
23412W        W40259  17.629   9.475  11.822 -0.0452 -0.2505  0.0589
23413W        W40260  13.980  11.142  13.378 -0.2004 -0.1637 -0.3227
23414W        W40261   8.232  11.327   4.194  0.1237 -0.1067  0.0588
23415W        W40262  11.885  11.765  13.558  0.1412  0.1214  0.1669
23416W        W40263   3.445   9.945  14.309 -0.3210 -0.2243  0.1890
23417W        W40264   1.423  14.664   3.582 -0.2381 -0.0814  0.0903
23418W        W40265  15.016   6.104   3.825 -0.0496 -0.0973  0.1914
23419W        W40266   2.057  14.344  12.100 -0.1319 -0.1319 -0.0290
23420W        W40267   1.304   8.175   2.697  0.2218 -0.2888  0.0310
23421W        W40268  10.683   4.807  13.359 -0.2455  0.0784 -0.0492
23422W        W40269  11.623  18.074  11.656  0.2741  0.1276  0.0409
23423W        W40270   9.196   3.988  10.240 -0.1333  0.1318 -0.1617
23424W        W40271   7.041  11.076  10.839 -0.0776 -0.0749  0.2363
23425W        W40272  17.549   5.037  13.191 -0.0464  0.0107 -0.4385
23426W        W40273   7.944  11.397   1.013  0.0102  0.2103 -0.0945
23427W        W40274   6.442   5.167  12.823 -0.0879  0.0473  0.1898
23428W        W40275   5.894  17.880   4.691 -0.1073 -0.1225 -0.2429
23429W        W40276  10.842   0.898   0.508 -0.2661  0.1906 -0.2325
23430W        W40277   4.060  17.528   3.510  0.0083 -0.1834 -0.2771
23431W        W40278  15.458  16.499   2.774 -0.0760  0.2169 -0.1207
23432W        W40279  14.751   9.249   2.957  0.2511 -0.2402  0.1531
23433W        W40280  17.994   3.836  12.855  0.0525 -0.0119 -0.2800
23434W        W40281  10.583  18.948  11.240 -0.2005  0.0955 -0.3825
23435W        W40282   4.169   4.570   1.778 -0.1669 -0.1327 -0.0113
23436W        W40283   3.338   2.525  12.391  0.1633 -0.1334  0.0016
23437W        W40284  14.419   7.107  13.912 -0.1609 -0.0902  0.0522
23438W        W40285   5.964  14.207   1.104 -0.1543 -0.2501  0.3441
23439W        W40286   3.029  13.199  10.779  0.1871 -0.1383  0.2712
23440W        W40287   7.775  11.018   1.270  0.0489 -0.0515 -0.2668
23441W        W40288   5.568   3.572   3.288  0.4034 -0.1729 -0.2040
23442W        W40289  17.670   1.749   3.273  0.1344 -0.2846  0.0862
23443W        W40290   1.177  10.933  13.438 -0.0107 -0.1999 -0.2647
23444W        W40291  18.671   6.563  13.638  0.0623  0.1502 -0.0051
23445W        W40292  10.329   5.377   2.469  0.0695 -0.3021 -0.0653
23446W        W40293  18.946  11.142   3.414  0.1557 -0.0920 -0.2666
23447W        W40294  13.273   0.415  14.185 -0.3390 -0.2308 -0.4375
23448W        W40295  18.688  16.066  12.346 -0.0201  0.2046 -0.2545
23449W        W40296   8.525  14.997   2.613 -0.0221  0.0990 -0.2520
23450W        W40297  10.749  15.161   1.856  0.2233 -0.0131  0.1491
23451W        W40298  13.049   7.049   0.065 -0.0089 -0.1110 -0.0636
23452W        W40299   8.220   4.040  13.733 -0.0676  0.2780 -0.3934
23453W        W40300   9.894   1.150   2.520  0.0474 -0.1915 -0.1493
23454W        W40301   0.475   4.052  14.949 -0.0130  0.0226  0.0084
23455W        W40302   5.356  16.797  11.975 -0.0788  0.1232 -0.0307
23456W        W40303  13.562   7.870  13.260 -0.1524 -0.1008 -0.0811
23457W        W40304  11.544   5.805  10.964  0.1093 -0.0221  0.2287
23458W        W40305   9.614   3.375   2.498  0.0384  0.3167 -0.0613
23459W        W40306   1.838  16.444  10.688 -0.3089 -0.0531  0.1843
23460W        W40307  10.895   6.871  10.252 -0.0329 -0.1707 -0.0290
23461W        W40308   0.626   1.392  14.513 -0.0288 -0.0714 -0.1561
23462W        W40309  13.446  13.108   2.773 -0.1324  0.2490 -0.3432
23463W        W40310  15.870   2.479  12.006  0.1892  0.1003  0.1885
23464W        W40311   3.073  16.571  13.535  0.1532  0.1058  0.1219
23465W        W40312  13.032   7.916  14.766 -0.2022 -0.0120 -0.1088
23466W        W40313  11.712   6.198   3.072  0.0192 -0.3120 -0.2105
23467W        W40314  12.228   7.153  10.689  0.2352 -0.2045 -0.2195
23468W        W40315   4.216   8.244   2.875  0.5364 -0.1709  0.2905
23469W        W40316  18.688   9.322  11.757 -0.3095 -0.2950 -0.1748
23470W        W40317  11.500   6.401   1.318  0.0336  0.0357 -0.2779
23471W        W40318  10.127   0.283   1.456 -0.1989 -0.2240 -0.0178
23472W        W40319   1.590   3.170   2.060  0.1591 -0.1269 -0.2799
23473W        W40320  15.301   8.437  14.877  0.1501  0.4902 -0.0147
23474W        W40321  12.330   0.982  12.623  0.3627  0.1509  0.0652
23475W        W40322   5.326   6.140  14.276 -0.2358  0.0204 -0.1971
23476W        W40323   6.229  13.610   0.492 -0.0411 -0.1207 -0.1830
23477W        W40324   2.272  11.564  11.384 -0.1236 -0.2225 -0.0593
23478W        W40325   4.186  15.052  14.719 -0.0680  0.1843 -0.2999
23479W        W40326   3.518   6.944   0.766  0.2977  0.2032 -0.2676
23480W        W40327   1.054   7.718  12.521 -0.1241  0.0254  0.0502
23481W        W40328   0.491  12.536  14.196  0.1537 -0.2713  0.1550
23482W        W40329  11.239  16.187  14.528 -0.1493  0.0369 -0.3283
23483W        W40330  19.282   0.497  11.176 -0.0948  0.2301 -0.2494
23484W        W40331  10.760   5.235  10.454  0.3537 -0.0191 -0.0618
23485W        W40332  10.318  19.054   3.691 -0.2241  0.0160 -0.0222
23486W        W40333  16.040  11.581  12.180  0.0741  0.0219 -0.2651
23487W        W40334   2.055   2.028  11.584 -0.0793 -0.1765 -0.1285
23488W        W40335  12.468  12.662   2.535 -0.0063  0.2491 -0.0498
23489W        W40336   0.512  18.584   3.807 -0.0898  0.1968  0.3920
23490W        W40337   1.237   7.002  13.139  0.0401 -0.0388 -0.1649
23491W        W40338  10.701   2.907  14.790  0.5184  0.0774 -0.0896
23492W        W40339   0.790  16.019   4.713  0.2397  0.0299  0.0450
23493W        W40340  17.248   8.031  14.011  0.0578 -0.3227  0.0289
23494W        W40341  14.286  10.541   1.764  0.0830  0.0189 -0.0095
23495W        W40342   4.871   5.063  11.016 -0.0274  0.4055 -0.0836
23496W        W40343   1.671  15.318   2.382 -0.2310  0.0364  0.0806
23497W        W40344   9.915   0.861   3.947  0.0931 -0.0360 -0.0309
23498W        W40345   8.657   9.823   2.595 -0.1758  0.2977  0.0924
23499W        W40346   0.944   5.960   0.850 -0.0286  0.0270  0.0937
23500W        W40347  17.903   0.809  14.850 -0.0761  0.0721  0.1262
23501W        W40348   4.299  12.990   1.267 -0.1279  0.0451  0.2943
23502W        W40349   8.469   4.795   3.722 -0.0188  0.2279 -0.0655
23503W        W40350  12.053   1.268  13.534 -0.0244  0.0292  0.2160
23504W        W40351  10.446  12.347  11.656 -0.0502 -0.1761  0.2734
23505W        W40352  13.307  14.343  11.372 -0.1225 -0.0033  0.0343
23506W        W40353   0.290  17.674   0.281  0.0328 -0.2737 -0.1360
23507W        W40354  16.725   9.427  11.858 -0.3461  0.1738  0.0325
23508W        W40355   4.709  14.696   3.631  0.0878  0.0733  0.0551
23509W        W40356   7.526  13.474   3.479 -0.2772  0.1776  0.1226
23510W        W40357  13.802   8.319  13.411 -0.0481  0.0286 -0.0357
23511W        W40358   8.722   3.347   4.970  0.1776 -0.3105  0.2374
23512W        W40359  13.474   1.136   1.104  0.0844  0.0034 -0.3573
23513W        W40360  13.067  14.030   2.252 -0.2947  0.4446  0.1533
23514W        W40361   3.964  18.106  14.661 -0.1520  0.0710  0.0207
23515W        W40362  12.453  11.079  13.622  0.2323 -0.0379 -0.2571
23516W        W40363   6.929   8.274  13.653  0.0498  0.2214  0.1470
23517W        W40364  18.512   3.966  11.067 -0.1656  0.0427 -0.2649
23518W        W40365  17.279   7.941  11.024 -0.1942 -0.0107 -0.0374
23519W        W40366   7.937  13.095  11.121 -0.2238 -0.0037 -0.1137
23520W        W40367   3.317  11.807  11.526 -0.1467  0.0367 -0.0414
23521W        W40368   1.243   3.728  10.866 -0.0273 -0.1152  0.2771
23522W        W40369  13.445   9.651  10.448 -0.1099  0.1487  0.2234
23523W        W40370  17.896  15.770   2.763 -0.2513  0.0877 -0.0637
23524W        W40371   0.684   3.652  11.252 -0.2047 -0.1910 -0.2890
23525W        W40372   0.686   5.800   0.426 -0.0009 -0.0198 -0.0985
23526W        W40373   0.948  16.976  13.777  0.0389 -0.0967 -0.1051
23527W        W40374  11.846  15.402  12.649 -0.1515  0.1900 -0.0520
23528W        W40375   0.307   4.418  13.348 -0.2337 -0.2177 -0.3724
23529W        W40376   2.428   4.385   0.992 -0.1811 -0.1264  0.1493
23530W        W40377  12.256  17.986  12.428  0.0506  0.0997  0.1070
23531W        W40378   3.915  15.175   2.108  0.2230 -0.1814 -0.0382
23532W        W40379  15.989  11.445  12.786  0.0430 -0.2492 -0.0410
23533W        W40380   2.309   4.292  11.061  0.0393 -0.2047 -0.1826
23534W        W40381   7.946  17.696  14.373 -0.0377  0.1287  0.1137
23535W        W40382  10.957  18.027  12.063 -0.0582 -0.0161  0.3861
23536W        W40383  13.714   8.603   4.523 -0.0037  0.2952 -0.0355
23537W        W40384  14.132  17.516  10.467 -0.0517  0.0289 -0.0250
23538W        W40385  17.429  11.214  12.093  0.1364 -0.0441 -0.0868
23539W        W40386  12.338   4.529   2.613 -0.0930 -0.1022  0.0693
23540W        W40387   7.646  12.838  10.760  0.1817  0.1060  0.0640
23541W        W40388  18.374   6.603  15.004  0.0788  0.2963  0.2142
23542W        W40389   8.849   8.774   5.238 -0.2673  0.1455  0.0277
23543W        W40390  15.730  16.928   5.827  0.1669  0.1733  0.1824
23544W        W40391  14.060   8.075  13.804 -0.0222  0.2401  0.1811
23545W        W40392  11.828   5.616  12.786  0.0424  0.5064  0.1210
23546W        W40393   8.672  17.642  11.543 -0.1384 -0.1456 -0.0034
23547W        W40394  17.262   4.897   4.084 -0.0216  0.2185  0.3273
23548W        W40395  10.714  10.027   2.420 -0.1136 -0.3743 -0.0810
23549W        W40396   3.717  13.747   0.382  0.0934  0.1057  0.1007
23550W        W40397  18.079  10.680   0.149  0.0974 -0.2727  0.1051
23551W        W40398  11.485  11.037   1.979 -0.1090 -0.3981 -0.0217
23552W        W40399   0.214   7.471  14.328  0.0909 -0.0516  0.1285
23553W        W40400   6.355   4.202   2.134 -0.0244  0.3844 -0.0696
23554W        W40401  14.531  13.524   4.496  0.0799  0.1598 -0.1360
23555W        W40402  12.993   5.379   3.369  0.0270  0.1239  0.4250
23556W        W40403   3.268   9.296  11.561 -0.1175  0.2460 -0.0376
23557W        W40404  13.784  19.049   3.798  0.0153  0.1085 -0.1065
23558W        W40405   1.525  17.851  13.459 -0.2517 -0.0533  0.0347
23559W        W40406  16.978   4.168   0.623  0.0611 -0.1802  0.0846
23560W        W40407   8.855   2.317   4.445 -0.2968  0.0060  0.0319
23561W        W40408   3.985  19.276   1.492 -0.2546  0.0082 -0.0511
23562W        W40409   6.325  15.044   3.311  0.2022 -0.0411 -0.1360
23563W        W40410   5.425   4.818  14.111 -0.0972 -0.1336 -0.0662
23564W        W40411  16.847  15.403   3.905  0.0200  0.0142 -0.1200
23565W        W40412  12.135   1.534  11.248  0.1223 -0.1893  0.1786
23566W        W40413  12.402   7.296   0.851 -0.1784 -0.1720  0.1416
23567W        W40414   5.923   2.104   3.835  0.3004 -0.1342  0.0122
23568W        W40415  14.646   6.019  13.674 -0.0309  0.1210  0.1938
23569W        W40416   5.217  12.047   3.693 -0.0642  0.2390  0.0372
23570W        W40417  14.484  12.842   5.152  0.1263 -0.4277 -0.1511
23571W        W40418  17.883  17.861   2.129 -0.1348  0.1909 -0.1845
23572W        W40419  14.643  10.384  12.410  0.2940 -0.1093 -0.1053
23573W        W40420   6.835   1.255  10.852  0.0723 -0.4346 -0.4087
23574W        W40421   8.746   4.920  13.266 -0.0035  0.2205  0.0280
23575W        W40422  15.210  12.641   2.247  0.4488 -0.1246 -0.0944
23576W        W40423  13.779  11.235  13.835  0.2270  0.0766 -0.1333
23577W        W40424   0.843  14.038   2.643 -0.2686  0.0399 -0.1746
23578W        W40425  10.317   5.894   3.972  0.2007  0.1052 -0.1623
23579W        W40426   5.593  14.518  13.002 -0.4039 -0.0106  0.2698
23580W        W40427   6.395   8.631   0.364  0.2744 -0.0074  0.1715
23581W        W40428   1.721   4.702   4.228  0.1409  0.0617 -0.0366
23582W        W40429  17.106   9.220   1.831 -0.2380  0.0923  0.0161
23583W        W40430  14.340   5.812   3.430  0.1142  0.0965  0.0712
23584W        W40431  11.514  10.451   1.838 -0.0362 -0.1365  0.0556
23585W        W40432  18.868  16.795   2.564  0.1271  0.0505  0.0847
23586W        W40433   9.027   9.770   4.538 -0.1356 -0.2345 -0.2527
23587W        W40434   7.983  13.707   0.965  0.0063 -0.3570  0.1200
23588W        W40435   6.369  17.040   3.251 -0.1146  0.2313  0.1560
23589W        W40436   1.024  17.600  12.754  0.0771 -0.0502 -0.3028
23590W        W40437   0.829   4.610  10.572 -0.1062 -0.1987  0.0028
23591W        W40438  11.382   3.346   0.367 -0.2552 -0.2009  0.2301
23592W        W40439  11.563   4.026  14.745 -0.2308  0.0293  0.1619
23593W        W40440  17.230   3.204  14.094  0.4815  0.0483 -0.1967
23594W        W40441   8.670   4.179  11.673 -0.1440  0.0616  0.0245
23595W        W40442  14.037  14.225   3.706 -0.1972 -0.1307  0.3815
23596W        W40443  16.824  11.494  14.812 -0.2555 -0.1334  0.2036
23597W        W40444  15.502  16.501  13.490 -0.0866  0.1232  0.1923
23598W        W40445   0.659   1.614  11.528 -0.1037  0.1005 -0.2208
23599W        W40446  16.513   1.347  10.715 -0.2794  0.2121  0.4459
23600W        W40447   3.407   3.064  12.559  0.2066 -0.1156 -0.3598
23601W        W40448   7.859  10.642  11.436 -0.1430 -0.3580  0.1324
23602W        W40449   1.938   1.820   1.903  0.1667  0.2286  0.0459
23603W        W40450   3.752  14.888   4.638 -0.0832  0.0183 -0.0210
23604W        W40451  10.996  14.369   3.267 -0.2472  0.2161 -0.0896
23605W        W40452   1.176  14.858   1.491 -0.2083 -0.3150  0.0261
23606W        W40453   2.709   6.379   2.435  0.1644  0.0217 -0.1454
23607W        W40454  18.436  10.933   4.643 -0.1669 -0.0939  0.0219
23608W        W40455   6.506   1.306   2.684 -0.4508  0.2701 -0.1772
23609W        W40456  14.941   8.411   1.125  0.1836 -0.4215 -0.0219
23610W        W40457   2.512   2.582   2.084 -0.0125 -0.1134 -0.1832
23611W        W40458  15.976   7.825  10.949  0.0122  0.0503  0.0479
23612W        W40459   4.608   2.331   1.818 -0.1749  0.1297  0.1566
23613W        W40460  11.162   4.591   3.639 -0.0082  0.1682  0.0033
23614W        W40461   5.532   1.726  11.472  0.0583 -0.3429 -0.3406
23615W        W40462   5.506  11.560  12.659 -0.0307 -0.0504 -0.1208
23616W        W40463   0.367   9.011  11.818 -0.0541  0.0581  0.0891
23617W        W40464  17.633   6.784   0.206 -0.2271  0.1872 -0.1127
23618W        W40465  12.231   9.671   1.400 -0.1553  0.3839  0.3162
23619W        W40466  10.630  15.862   3.746  0.1527 -0.1090  0.1684
23620W        W40467  13.135   3.783  13.231 -0.0767  0.0068 -0.1048
23621W        W40468  18.952  17.770   4.267 -0.0541  0.2460 -0.0055
23622W        W40469  13.886   8.452  11.251 -0.3814  0.0232 -0.2349
23623W        W40470   0.225   2.398   2.301  0.0818 -0.3081 -0.0252
23624W        W40471   0.483  12.191   9.308  0.0195  0.1282 -0.1359
23625W        W40472   0.353   8.754  14.907 -0.0455  0.2279  0.1548
23626W        W40473   3.225   4.742   2.072 -0.1524  0.1989  0.0891
23627W        W40474   7.632   8.165  12.825  0.4071 -0.0614 -0.2110
23628W        W40475   8.183  16.787  14.294  0.0977  0.1400  0.0134
23629W        W40476   0.265   2.418  13.018 -0.0145 -0.0571 -0.2651
23630W        W40477  10.321   7.118  12.554  0.2087  0.0180 -0.0812
23631W        W40478  15.674  15.037   0.662  0.0365 -0.0109  0.0631
23632W        W40479   6.985   8.138   1.167  0.0672 -0.1758  0.1602
23633W        W40480   2.828   5.909   2.629  0.1511 -0.2171  0.1409
23634W        W40481   4.973   9.386  12.714 -0.1456  0.0097 -0.1573
23635W        W40482  10.301  14.184   4.416  0.0652  0.0049 -0.2067
23636W        W40483   9.847  16.858   3.017  0.2429 -0.0414 -0.1909
23637W        W40484   3.362   5.164  13.221  0.1784 -0.1107  0.3794
23638W        W40485  18.382   8.679  14.193  0.0118  0.1579  0.1931
23639W        W40486   3.548  16.128  10.802 -0.0797  0.0288 -0.2008
23640W        W40487  12.949  10.446   2.218  0.1793 -0.0174 -0.2085
23641W        W40488  18.986   7.945  12.818 -0.2112 -0.1657 -0.1533
23642W        W40489  13.154   8.919   0.109 -0.2784 -0.1504  0.0035
23643W        W40490   3.944   1.979   4.366 -0.0896 -0.3967 -0.2062
23644W        W40491   7.988  18.920  14.087  0.1055  0.3792  0.0514
23645W        W40492  18.124  15.989   4.402 -0.1765  0.0785  0.1541
23646W        W40493   1.095  11.744  12.335  0.0114  0.1870  0.1136
23647W        W40494   3.318   2.734   3.093 -0.0470  0.2111  0.2182
23648W        W40495  13.721  11.814   0.897  0.0921  0.0370 -0.3072
23649W        W40496  15.282  16.407  10.777 -0.2145  0.1479  0.0573
23650W        W40497   1.644   6.658  10.912 -0.0351 -0.0205  0.0446
23651W        W40498  14.772   6.576  12.804 -0.1678 -0.4449  0.3037
23652W        W40499   8.023  11.944   0.899  0.3445 -0.0567 -0.3001
23653W        W40500   2.921  10.421   3.227 -0.0136 -0.1231 -0.3516
23654W        W40501   6.547   4.845   2.490  0.2621 -0.3196 -0.0261
23655W        W40502  17.870  11.082  14.582  0.1102  0.0398 -0.2482
23656W        W40503   8.132   1.346   4.813  0.0696 -0.1414 -0.0021
23657W        W40504   1.789  10.328   1.593  0.2423  0.0150 -0.3313
23658W        W40505   5.685  18.988  10.845 -0.0003  0.0413 -0.2007
23659W        W40506  10.667   4.944  11.494 -0.2441  0.0749 -0.1638
23660W        W40507  12.968  17.769   1.271 -0.1288 -0.1695  0.1764
23661W        W40508   3.371   4.473  12.424 -0.0686 -0.0318  0.3703
23662W        W40509  19.155   8.596   1.443  0.0935 -0.0423 -0.3214
23663W        W40510   3.536   0.121   2.316 -0.3115  0.0320  0.1664
23664W        W40511  17.154  14.195  12.676  0.0663  0.0428 -0.1421
23665W        W40512  13.244   9.519  10.923  0.1351  0.0258 -0.0964
23666W        W40513  11.787   2.333   4.363 -0.1959  0.1901  0.0676
23667W        W40514  17.432   8.524  13.750  0.2466 -0.2625 -0.0952
23668W        W40515  12.520  19.178   0.817  0.0824  0.2107  0.1205
23669W        W40516   6.824   1.163  11.634  0.1429 -0.0513  0.0405
23670W        W40517  13.588  18.609  12.993 -0.1895 -0.0494  0.2605
23671W        W40518  14.053   2.963  13.775  0.1059 -0.2182 -0.0979
23672W        W40519  16.894  11.828  12.417  0.0650  0.0317 -0.0288
23673W        W40520   5.309   3.930   2.007 -0.3246  0.3366  0.2151
23674W        W40521  15.602  16.738   3.201 -0.1463  0.1395 -0.1113
23675W        W40522   5.803   4.372  13.394 -0.0204 -0.1184  0.1144
23676W        W40523   5.084  10.012  14.028 -0.2592  0.3056 -0.2432
23677W        W40524   1.884  16.776   3.196 -0.0767  0.0086  0.0150
23678W        W40525  17.925  10.791  11.192 -0.2082 -0.1905 -0.0641
23679W        W40526  12.950  12.269   3.322  0.1183  0.0921  0.0758
23680W        W40527   0.485   6.065  13.155  0.2245 -0.0372 -0.3186
23681W        W40528  13.582  13.729   3.140 -0.0625  0.1901  0.1876
23682W        W40529   1.288   5.300   4.264 -0.2131 -0.0063  0.0443
23683W        W40530   6.642   6.213   4.499 -0.2463  0.1149 -0.0751
23684W        W40531   4.616  15.547  12.516 -0.0508 -0.1699  0.2568
23685W        W40532  14.753   5.234   1.057  0.0064  0.2186  0.2575
23686W        W40533   8.978  12.309  14.533  0.3978  0.1919  0.0287
23687W        W40534   3.719   7.594  10.352  0.0906  0.0913 -0.1332
23688W        W40535   3.170   6.635   1.112 -0.3114  0.0440  0.0783
23689W        W40536  11.035  12.875  12.653  0.0407 -0.3451  0.0326
23690W        W40537   8.082   8.282   1.583  0.3679  0.2837  0.2344
23691W        W40538   8.588   0.610   2.497  0.0494  0.0123 -0.0996
23692W        W40539   6.388   8.976   2.151  0.0463  0.3660 -0.1439
23693W        W40540   2.963   5.050  12.917 -0.0484 -0.0192  0.1414
23694W        W40541  11.792  16.316   1.385 -0.0069  0.0731 -0.1850
23695W        W40542  18.393   6.276   4.273 -0.0118  0.0802  0.1181
23696W        W40543   2.157   4.028  11.607  0.0258 -0.1153  0.3385
23697W        W40544   5.943  12.805  14.024  0.0236 -0.0682 -0.1919
23698W        W40545   3.539   9.340   0.811  0.1038 -0.1287 -0.1315
23699W        W40546   1.003   4.524   4.590  0.0270 -0.1635 -0.2110
23700W        W40547  18.913   3.229  11.073  0.2037  0.2431  0.1821
23701W        W40548   6.843   7.018   4.762 -0.1185 -0.0563 -0.1706
23702W        W40549  17.339  16.373   4.721  0.0891 -0.0403 -0.4400
23703W        W40550  12.783   9.276  10.979  0.1842  0.1259  0.1472
23704W        W40551  10.629   1.406   0.371  0.2968  0.1293  0.0632
23705W        W40552  15.897  14.622   0.760 -0.4165 -0.2105 -0.1832
23706W        W40553  13.156   3.010  14.013 -0.1235 -0.0192  0.2597
23707W        W40554   2.479   3.428  12.052  0.0679  0.1464 -0.0112
23708W        W40555   1.720   9.094   2.549  0.2106 -0.2362 -0.0541
23709W        W40556  16.897  12.807   4.370 -0.2566 -0.1438  0.2444
23710W        W40557   4.150  14.051   4.755  0.0240 -0.0489  0.2366
23711W        W40558   3.101  10.075  13.562  0.1635 -0.1655 -0.0770
23712W        W40559  12.032  12.787   3.587 -0.0173 -0.0487  0.1427
23713W        W40560   7.784   7.810   4.251 -0.1393 -0.1731  0.0170
23714W        W40561   6.582  17.944   1.478  0.0005 -0.0376  0.0584
23715W        W40562  18.776   7.448  12.688  0.1408  0.2075 -0.0558
23716W        W40563   7.710   0.401   3.560  0.0632  0.1955  0.4400
23717W        W40564  10.827   3.192  14.160  0.0662 -0.2121 -0.0228
23718W        W40565  14.175   1.644   0.183  0.1925 -0.0322 -0.2640
23719W        W40566  16.256   9.686   2.897  0.3400  0.1162  0.1968
23720W        W40567   2.746   9.227   2.793  0.1546  0.0002 -0.2982
23721W        W40568   1.784   3.045  14.943  0.0405 -0.0377  0.0936
23722W        W40569   7.547   2.498   3.835  0.1665  0.0281  0.2205
23723W        W40570  15.396  17.054   2.769 -0.3455  0.3052 -0.0717
23724W        W40571   6.099  18.639  11.135  0.0148 -0.0585  0.1610
23725W        W40572   7.789   2.060   2.404 -0.2541  0.1727  0.1171
23726W        W40573   4.010  11.628   0.240  0.2665 -0.1863 -0.2908
23727W        W40574   9.584  17.361   3.089 -0.1651  0.0917  0.0703
23728W        W40575  10.680   7.997   2.963 -0.0875 -0.1698  0.0029
23729W        W40576   4.355  18.054  14.042 -0.1376 -0.3329  0.0152
23730W        W40577  15.430   3.073   3.969 -0.0745 -0.1079 -0.0070
23731W        W40578  10.781  16.736   4.838 -0.0103 -0.0028  0.1031
23732W        W40579   3.306   5.841  14.902  0.4344  0.2402 -0.0289
23733W        W40580   2.846   2.256   2.372  0.2070 -0.0549 -0.0371
23734W        W40581   3.367   3.423   5.231  0.3950 -0.1516 -0.2549
23735W        W40582  18.171   0.068   1.900 -0.0380  0.3123  0.0495
23736W        W40583   2.142  18.522  14.974  0.1814 -0.0137  0.3137
23737W        W40584   4.450   9.117  12.983  0.0049 -0.0024  0.0335
23738W        W40585   7.503   7.777   3.761  0.2245 -0.0582  0.1584
23739W        W40586  11.168   2.105  14.419  0.2844 -0.1916 -0.0358
23740W        W40587   6.151  17.942  12.418 -0.1293  0.1659  0.0061
23741W        W40588  16.090   8.435  10.938 -0.0091  0.1637  0.0688
23742W        W40589  10.188   6.739   2.304 -0.3377  0.0896  0.1337
23743W        W40590  15.024   6.819  11.635 -0.0218 -0.1057 -0.1060
23744W        W40591   9.802  15.513  10.430 -0.0415 -0.2125  0.2257
23745W        W40592  18.909   2.339   2.497  0.0043  0.1652 -0.0929
23746W        W40593   2.796  14.343   1.998  0.1628  0.1171  0.2802
23747W        W40594  13.892   4.740   0.127  0.0167  0.1733 -0.1297
23748W        W40595  11.020   1.453  14.998 -0.1586 -0.0720 -0.2753
23749W        W40596  12.284   8.254   0.848  0.1430 -0.0296 -0.3670
23750W        W40597  14.435  11.743  11.700 -0.0255 -0.2582  0.2238
23751W        W40598   4.069   3.501   3.853 -0.0172 -0.1310  0.0222
23752W        W40599  14.346  17.494   2.009 -0.3173  0.0229  0.0662
23753W        W40600  11.020   4.812   1.532 -0.1259  0.1610 -0.0411
23754W        W40601  18.587   6.396  12.819 -0.3286 -0.1664  0.0789
23755W        W40602  15.786  18.342  13.333 -0.0536  0.1513  0.0074
23756W        W40603   1.715   6.204   2.194  0.2641 -0.2121 -0.0846
23757W        W40604   6.098   8.962   0.121  0.2536  0.0944  0.0011
23758W        W40605   2.754  15.261   3.095  0.0461 -0.0275 -0.1286
23759W        W40606  14.623   9.472  11.179  0.2326 -0.0716 -0.1160
23760W        W40607   4.355  18.401   4.210 -0.3306 -0.0548 -0.1745
23761W        W40608  16.672   0.283  12.456 -0.2873 -0.2270  0.0854
23762W        W40609  17.998  11.745  11.438  0.0309 -0.2042 -0.1666
23763W        W40610   7.963  11.787   2.668 -0.0839  0.2778 -0.0070
23764W        W40611  10.258   1.051  14.854  0.3971 -0.0861 -0.0501
23765W        W40612  16.403   9.173  14.199 -0.3140  0.2004  0.2149
23766W        W40613  12.632  16.898   3.380 -0.0646 -0.3074  0.4382
23767W        W40614  17.392   2.714   5.390  0.0985  0.1269 -0.5459
23768W        W40615  13.636  16.078   4.529 -0.2652  0.1508  0.0452
23769W        W40616  14.835  11.388  13.439  0.1845  0.1568  0.2798
23770W        W40617   5.486  17.891  15.000  0.2685  0.1195 -0.2139
23771W        W40618   7.570  16.901  13.480 -0.1393 -0.1335  0.1990
23772W        W40619   1.340  16.960  13.469 -0.0893  0.1941 -0.0844
23773W        W40620   6.191   2.878   0.880 -0.1656 -0.0471  0.1519
23774W        W40621  11.669   4.463  14.045  0.0731 -0.3601  0.0553
23775W        W40622  18.849   8.735  14.296 -0.1111 -0.1639 -0.0574
23776W        W40623  18.588   6.814   3.225  0.0873  0.1836  0.0765
23777W        W40624   0.948  11.312  14.589  0.2117 -0.3425 -0.1016
23778W        W40625  17.488   1.804   0.591  0.0378  0.3178  0.0605
23779W        W40626   7.184   2.609  13.565  0.0107 -0.0775  0.1012
23780W        W40627   0.955  14.508   5.145 -0.3559 -0.4033  0.1421
23781W        W40628   4.694  16.640  13.932 -0.1303  0.1428 -0.0067
23782W        W40629  15.320   6.471  13.037 -0.0606 -0.1691 -0.0778
23783W        W40630  14.644  17.103   4.905 -0.1440 -0.0498  0.0397
23784W        W40631   0.829   7.157  11.040  0.1004 -0.0226  0.2359
23785W        W40632   1.852   2.574  11.028  0.4980 -0.1802  0.1105
23786W        W40633   4.345  15.895   3.615  0.1675 -0.2820 -0.0483
23787W        W40634   1.362  19.179   2.868 -0.0024  0.3013 -0.1178
23788W        W40635   1.752  15.455  11.300  0.2693  0.0387  0.3395
23789W        W40636   5.700   0.228   3.333  0.0301  0.2446  0.0008
23790W        W40637   3.436  11.223  13.902 -0.2959 -0.0254  0.0917
23791W        W40638  18.684   3.581  10.821 -0.2353 -0.0732  0.0322
23792W        W40639  15.896   4.442  14.823 -0.2632 -0.0496  0.1885
23793W        W40640  14.899   1.090   5.700 -0.1092 -0.1138 -0.4589
23794W        W40641   2.767   2.111   5.141 -0.2907 -0.0634  0.0398
23795W        W40642   4.700   2.284   2.534  0.2580 -0.0081  0.1166
23796W        W40643   3.970   1.177   2.769 -0.1527  0.1738 -0.3340
23797W        W40644   8.690  12.705  15.001 -0.0086 -0.2045  0.0559
23798W        W40645  10.716  16.319  14.706 -0.1329 -0.0272  0.0085
23799W        W40646   3.743   4.317   2.774 -0.0372  0.0019  0.0233
23800W        W40647  11.259  11.221  10.475  0.1689  0.1054 -0.2273
23801W        W40648   0.065   5.902  15.008  0.2212 -0.2566 -0.0165
23802W        W40649  12.878   4.049   1.402 -0.1862 -0.2889 -0.3745
23803W        W40650  11.860  10.398  12.037 -0.0375  0.0087  0.2574
23804W        W40651   0.615  11.971  12.517  0.0288  0.0412  0.4187
23805W        W40652   8.310   7.300   4.726 -0.1943 -0.2249 -0.1450
23806W        W40653   6.464   3.074   2.968  0.2172  0.0440  0.1194
23807W        W40654   4.632  10.241  12.705  0.0139 -0.0580 -0.1032
23808W        W40655   2.954   6.038  14.211  0.1428  0.1525 -0.1229
23809W        W40656  14.069  13.409   4.555  0.2461 -0.0513 -0.1500
23810W        W40657  13.998  14.166   1.300  0.1385  0.2241  0.3076
23811W        W40658  10.963   1.649  12.279  0.0602 -0.1093 -0.1564
23812W        W40659  18.711   3.219  11.599 -0.3458 -0.6101 -0.0468
23813W        W40660   1.793  17.164   0.587 -0.0985  0.0196 -0.4757
23814W        W40661   6.916   1.083   0.029 -0.4998  0.0917  0.0517
23815W        W40662  16.380   5.597   4.629 -0.0003 -0.2980 -0.0928
23816W        W40663  11.853   6.336  10.957  0.0118  0.5047 -0.0063
23817W        W40664   4.287   5.642   4.568  0.0178  0.0037  0.1089
23818W        W40665  13.492   1.184   5.513  0.2667 -0.1298 -0.0249
23819W        W40666   9.384   2.041   0.191 -0.2798  0.1008 -0.1129
23820W        W40667   3.224  11.399   3.018 -0.1396  0.1597  0.0362
23821W        W40668  13.872   2.893  12.462 -0.1019 -0.0139 -0.1274
23822W        W40669   2.015   6.381  12.161  0.1951  0.2285  0.1531
23823W        W40670  13.098  18.526   2.849  0.0993 -0.1308 -0.1592
23824W        W40671   8.065   8.502   0.454 -0.2632 -0.4594  0.2299
23825W        W40672   7.756  10.294  14.984 -0.0782  0.0922 -0.1826
23826W        W40673   0.469   8.172  12.082  0.0096  0.2093  0.2920
23827W        W40674  10.451  12.431  13.008 -0.0370 -0.2925  0.1244
23828W        W40675  12.791   0.490  13.725  0.0058  0.0909  0.1528
23829W        W40676   6.733   9.046  14.302 -0.0809  0.1139 -0.2554
23830W        W40677  11.416  15.765   0.276  0.1070 -0.0211 -0.2858
23831W        W40678  12.578   8.046   2.700  0.2979 -0.2358 -0.0493
23832W        W40679   0.789   0.338  14.175  0.0829 -0.1519  0.2439
23833W        W40680  17.666   5.456  10.568  0.1287 -0.0820  0.1084
23834W        W40681  18.605  13.571  12.987 -0.2724  0.1617 -0.2887
23835W        W40682  12.366  11.999  13.471  0.0145 -0.0205 -0.0634
23836W        W40683   0.518  17.182   0.602  0.3727 -0.1587  0.3097
23837W        W40684  10.830  16.487  10.828  0.0071  0.0624  0.3316
23838W        W40685  11.687  15.926   2.684 -0.0161  0.2015 -0.2843
23839W        W40686   5.241  12.956  14.813  0.0723  0.1218  0.2319
23840W        W40687  12.225  11.749   3.525  0.1014 -0.0280 -0.0909
23841W        W40688  17.373  13.848  14.545 -0.2445 -0.2190  0.0536
23842W        W40689   4.812  17.960   3.426 -0.0178  0.0237 -0.1556
23843W        W40690   1.863  14.126   2.327 -0.1708  0.0329  0.0242
23844W        W40691   1.648   0.148   9.586  0.0754 -0.0672 -0.1137
23845W        W40692   3.681   1.564  14.522  0.0521 -0.1566  0.0342
23846W        W40693   6.666  12.646  13.065  0.0063  0.1221  0.2755
23847W        W40694   6.600   0.810  10.853  0.0639  0.2566 -0.1122
23848W        W40695  12.126   8.938  10.598  0.0241  0.3019  0.1425
23849W        W40696   1.981   4.650   3.104 -0.1145 -0.1719  0.0736
23850W        W40697  11.840  18.929  13.950  0.2108  0.1649 -0.0562
23851W        W40698  17.815  16.673  11.381 -0.2294  0.3329  0.0979
23852W        W40699  18.941  12.572   4.277 -0.3085 -0.3003 -0.0075
23853W        W40700  13.045  18.918   3.972 -0.2880  0.1450  0.3853
23854W        W40701   4.686   0.076   4.061  0.0875 -0.1555  0.0335
23855W        W40702   6.114   7.510   3.177  0.1663 -0.0558  0.0441
23856W        W40703  15.534  13.654  13.373 -0.0969 -0.3146 -0.0846
23857W        W40704  14.786  18.776   0.864 -0.1091 -0.1171 -0.1110
23858W        W40705  10.605   2.161  12.288 -0.1561  0.0229 -0.0850
23859W        W40706   2.401   0.518   2.323  0.0010 -0.2538 -0.2228
23860W        W40707   2.493   9.295  11.560 -0.0338 -0.0171 -0.2989
23861W        W40708  14.008   2.467  13.082 -0.3363  0.0626 -0.1536
23862W        W40709  13.974  11.839   2.522  0.5968  0.0970  0.0684
23863W        W40710  10.557  12.132  11.218 -0.0754 -0.1065  0.4574
23864W        W40711  11.595   9.033  10.517  0.2151  0.1892 -0.5323
23865W        W40712  17.848   7.928   4.463  0.2908  0.0249 -0.0134
23866W        W40713  13.509  17.974  11.906  0.2876  0.5645 -0.1628
23867W        W40714   4.336  17.555  10.528 -0.2365 -0.0123  0.3010
23868W        W40715   5.701  16.290   4.122  0.0127  0.2077 -0.3313
23869W        W40716  17.775   8.915   4.304  0.0134 -0.0026  0.0184
23870W        W40717   3.643   8.280   3.847  0.0353  0.0254  0.0790
23871W        W40718   4.300   0.135  13.897  0.1542  0.2529  0.1200
23872W        W40719   9.608   2.181   5.045  0.3000  0.0467 -0.3191
23873W        W40720   5.028   3.967  14.256  0.2483  0.1100 -0.1428
23874W        W40721   0.832   5.308  12.125  0.0266  0.0684  0.1343
23875W        W40722   2.138   2.861   9.864 -0.0948 -0.0539  0.1024
23876W        W40723   9.541   2.221   2.174 -0.1877 -0.5243 -0.0181
23877W        W40724   9.242   5.433  10.361  0.2689 -0.1282  0.0700
23878W        W40725   1.102  15.495   0.347 -0.3472  0.3944 -0.1126
23879W        W40726   0.618  19.163   0.744 -0.3414 -0.0958 -0.3567
23880W        W40727   6.795  16.305   5.301  0.0097  0.1493 -0.0233
23881W        W40728  10.133  15.411   2.252  0.0927  0.0087  0.0656
23882W        W40729  15.070   7.686   0.664  0.3317  0.1324 -0.1742
23883W        W40730   6.438   5.612   1.643 -0.0901 -0.1235  0.0095
23884W        W40731   7.895   8.572  13.549  0.0020 -0.0327 -0.1423
23885W        W40732   4.743  18.397   2.807 -0.0479  0.0658 -0.1139
23886W        W40733   4.663  15.245  11.627 -0.3368 -0.0360 -0.2120
23887W        W40734  16.541   9.681  14.093 -0.1898 -0.2237  0.0171
23888W        W40735   7.989  10.778   5.111 -0.0280  0.0798 -0.3047
23889W        W40736   6.193   5.568   3.874  0.1924  0.2779 -0.1136
23890W        W40737  13.605   5.463   0.737 -0.1370 -0.2102  0.0612
23891W        W40738   2.636   3.321  14.644 -0.2158 -0.0193 -0.3479
23892W        W40739  10.182   3.360  12.637  0.3040  0.0809  0.1706
23893W        W40740  14.750   1.579  11.322 -0.2615  0.1107 -0.2250
23894W        W40741   0.991   0.401  13.704  0.2038 -0.0500 -0.0505
23895W        W40742   9.481   8.693   3.353 -0.5835 -0.1985 -0.2050
23896W        W40743   3.518  14.739   0.263  0.2731  0.0362  0.1301
23897W        W40744  13.550  11.151  12.402  0.0040 -0.0813  0.1586
23898W        W40745  18.893   5.670   4.507  0.1271  0.2214 -0.2215
23899W        W40746   7.207   5.923  13.753  0.2354 -0.1219 -0.2402
23900W        W40747  17.023  16.390   3.154  0.0815 -0.3367  0.0875
23901W        W40748  17.730  17.078   0.273  0.1094  0.1986 -0.1037
23902W        W40749   8.875  12.255  11.731 -0.3952 -0.0332 -0.0034
23903W        W40750  13.409   7.950   0.840  0.2641  0.1395  0.0680
23904W        W40751   0.635   7.415  14.553  0.0506  0.0455  0.0663
23905W        W40752   1.659  15.092  11.688 -0.1771  0.0620  0.3021
23906W        W40753   5.028  11.666  11.488  0.1705  0.1994 -0.1787
23907W        W40754   2.154  12.512   0.858  0.3567 -0.0049  0.1361
23908W        W40755   2.274   1.879  14.402 -0.3111  0.0266 -0.2615
23909W        W40756  11.323   9.968  10.755 -0.2208 -0.0267  0.0757
23910W        W40757  10.199  17.624   2.108  0.0552 -0.0305 -0.0694
23911W        W40758   3.204  11.597   2.070  0.1571 -0.2077 -0.1506
23912W        W40759  14.532  14.386  10.719 -0.0093  0.1094  0.2442
23913W        W40760   7.179   6.682   1.115 -0.3483  0.1379 -0.2363
23914W        W40761   9.672  12.228  10.576 -0.2045  0.3288 -0.4361
23915W        W40762  14.039  12.429  13.520  0.1211  0.3037  0.0004
23916W        W40763  15.705   4.968   2.066  0.2510  0.1889 -0.0592
23917W        W40764  11.817  14.966   4.072  0.1130 -0.0483  0.0657
23918W        W40765  18.513  12.616  11.414  0.2030  0.0592  0.1884
23919W        W40766   0.806  10.322   2.595  0.0646  0.4166  0.2915
23920W        W40767   0.111  16.088  11.901  0.0651  0.1028 -0.0074
23921W        W40768  12.515  11.357   1.351 -0.1971 -0.2612  0.0608
23922W        W40769  15.168  18.430  13.664  0.0839 -0.2364 -0.1602
23923W        W40770   1.619   1.363  13.138  0.2460  0.2970  0.3049
23924W        W40771   5.005  12.957   1.632 -0.1959  0.0341 -0.2069
23925W        W40772  18.014  10.134   2.468 -0.2326 -0.0729 -0.2708
23926W        W40773   1.888  10.525  13.541 -0.0305  0.1834 -0.2844
23927W        W40774   7.146   6.537   3.635  0.2753  0.1104  0.2524
23928W        W40775  15.944   5.623   1.872  0.2814  0.1098 -0.0127
23929W        W40776  17.392  10.617   0.827 -0.0352 -0.4636 -0.3672
23930W        W40777   8.833  12.681   3.410 -0.3980 -0.4003 -0.3990
23931W        W40778   5.307   2.117   3.326  0.0646  0.1182  0.0228
23932W        W40779  10.692   8.903   3.005 -0.0371 -0.0602 -0.1208
23933W        W40780   7.392   2.095   0.955 -0.1273 -0.2848 -0.2708
23934W        W40781   4.685   4.359   0.200 -0.0741  0.3048 -0.1124
23935W        W40782   3.935  12.951  11.302  0.0441  0.0252 -0.0864
23936W        W40783   5.335   1.382  13.624  0.1363 -0.2776 -0.2177
23937W        W40784   8.845   8.639  13.376  0.1640 -0.1074  0.0897
23938W        W40785  16.404   0.240  13.877 -0.4899  0.3056 -0.1737
23939W        W40786   0.572  13.753  10.944 -0.1113 -0.3021  0.1417
23940W        W40787   9.175  19.201   5.048  0.0397 -0.1591  0.1145
23941W        W40788   1.520   3.584  12.053 -0.2080  0.2133 -0.0980
23942W        W40789   0.784   6.159   5.353 -0.1286  0.1368 -0.0900
23943W        W40790   9.600   5.275   0.357 -0.0308 -0.3259 -0.0453
23944W        W40791   6.127  18.209  10.245  0.1518 -0.2537  0.3277
23945W        W40792  16.739  13.995  12.784  0.3018  0.0158 -0.1458
23946W        W40793  17.080  10.741  13.336  0.0977 -0.0680  0.1305
23947W        W40794   4.153  10.284   4.180  0.1673 -0.4156 -0.0633
23948W        W40795   3.600   9.911   2.650 -0.1237 -0.2917  0.0215
23949W        W40796  16.573   8.560  14.922  0.1130  0.2822 -0.2383
23950W        W40797  13.000   6.897  10.544  0.0525  0.3051 -0.1788
23951W        W40798  18.285  13.057   2.607 -0.1286 -0.3319  0.1803
23952W        W40799  11.723   9.819   2.942 -0.2476 -0.0223  0.1685
23953W        W40800  11.681  11.072   3.961 -0.1661  0.0981 -0.1024
23954W        W40801  17.004   0.309   0.155 -0.2822  0.2568 -0.2517
23955W        W40802   2.558  13.846   1.083 -0.0569  0.0618 -0.0398
23956W        W40803   2.902   1.989   2.942 -0.1790  0.0393  0.3009
23957W        W40804   5.222  11.119   2.103 -0.2530  0.0829  0.1012
23958W        W40805  13.931   8.857  13.287  0.2191  0.4633  0.2542
23959W        W40806   8.009   4.364   1.322  0.1606  0.2288  0.2507
23960W        W40807   0.269  10.048  12.992  0.0066  0.1474  0.0088
23961W        W40808   8.485   3.674   3.366 -0.0676  0.0324  0.1224
23962W        W40809  15.936   7.553  10.455  0.1530  0.2375  0.1385
23963W        W40810  16.461  18.968  14.056 -0.0169 -0.1211 -0.1760
23964W        W40811  18.900   4.898  10.401 -0.0536  0.1098  0.4176
23965W        W40812  13.076  16.336   4.190 -0.1412 -0.0363  0.0973
23966W        W40813   5.990  10.863  10.969  0.2027 -0.3121  0.0291
23967W        W40814  15.150  10.913  11.026 -0.3058 -0.2580 -0.0303
23968W        W40815   9.878  10.669  13.866  0.0449 -0.1316 -0.1171
23969W        W40816  14.646  13.058   4.403  0.1773 -0.1701 -0.2844
23970W        W40817   3.413   0.366  14.016 -0.2109  0.0994 -0.0910
23971W        W40818   6.560   0.231  11.687  0.3875  0.0759  0.0532
23972W        W40819  11.344  19.077   4.667  0.1795 -0.0524 -0.1903
23973W        W40820   2.041  13.817  11.828  0.1708  0.0298  0.1328
23974W        W40821   8.088   1.512   1.239 -0.2165  0.1057  0.0454
23975W        W40822   1.774  10.946   3.354 -0.0494  0.1062  0.2019
23976W        W40823  17.315   2.161   3.090  0.0107 -0.0194 -0.0816
23977W        W40824  14.597  18.361   1.120  0.1104  0.0439 -0.3760
23978W        W40825  16.800   9.367   2.867 -0.3076 -0.0065 -0.1249
23979W        W40826  17.506  11.648   0.961  0.1518 -0.0409 -0.1466
23980W        W40827   2.434   9.435  12.075 -0.1148 -0.1117 -0.1031
23981W        W40828   3.249   9.219  13.207  0.3020  0.2048  0.1090
23982W        W40829  19.102   4.245  15.017 -0.4376 -0.1024  0.1266
23983W        W40830  18.759   9.721  12.543  0.0753 -0.2326  0.3861
23984W        W40831   9.207  14.041   0.382  0.0935  0.0309  0.3100
23985W        W40832   6.466  13.424   5.132 -0.0377  0.1341 -0.0502
23986W        W40833  16.218  17.666  11.082 -0.3083  0.2438 -0.1753
23987W        W40834   4.814   9.495   3.193  0.0669  0.2496 -0.0520
23988W        W40835  10.504  12.223  13.626  0.1660 -0.4227  0.0591
23989W        W40836  15.301   2.864  13.950 -0.0803  0.1625 -0.0112
23990W        W40837   2.471   9.400   4.941 -0.2428 -0.0783 -0.3908
23991W        W40838   2.956   7.068   0.771  0.0357  0.2061 -0.0667
23992W        W40839   3.095   7.914  13.834  0.4818 -0.1209  0.0915
23993W        W40840   9.178   2.540   1.032 -0.1537 -0.1373  0.3314
23994W        W40841   8.889   5.481  12.031 -0.1939 -0.1672 -0.0482
23995W        W40842  17.931  17.561   4.672  0.0688  0.1019 -0.0168
23996W        W40843   2.363   7.839   1.047 -0.3040  0.0346  0.2206
23997W        W40844   4.941  12.040   2.772 -0.0915  0.0826  0.1447
23998W        W40845  16.503   6.639   3.441 -0.0034 -0.2083  0.0167
23999W        W40846  14.008  12.850  13.716 -0.0227 -0.3150 -0.0657
24000W        W40847  16.372  12.260   2.042  0.1130 -0.1115  0.3683
24001W        W40848   0.521   4.607   4.696  0.0176  0.2532  0.1190
24002W        W40849   5.009  18.754  13.854 -0.2702 -0.0776 -0.4213
24003W        W40850   0.322  11.316  11.804  0.1097 -0.3287 -0.0648
24004W        W40851   1.597  10.601  11.745 -0.0311  0.1635 -0.0401
24005W        W40852  10.287   6.064  12.196 -0.0121  0.1659  0.1819
24006W        W40853   8.498  11.434   9.455  0.2385 -0.2762  0.0436
24007W        W40854   8.579  12.829  12.867 -0.1697  0.0084  0.0501
24008W        W40855  12.520   9.274  10.555 -0.1040 -0.0918 -0.0265
24009W        W40856   2.511  11.120   2.874 -0.1624  0.2994 -0.0509
24010W        W40857  16.332   9.042   3.847  0.3797 -0.1195  0.1223
24011W        W40858   0.274  12.636  13.256  0.0034 -0.1276 -0.2187
24012W        W40859   7.307   5.185   3.211  0.1726  0.0758  0.1763
24013W        W40860   1.306   5.936  12.030  0.0329  0.0540  0.0352
24014W        W40861  11.882  15.136  12.197  0.0379 -0.2893 -0.0920
24015W        W40862   2.493   9.586  14.883 -0.2149 -0.0465 -0.0080
24016W        W40863  15.484   3.798  12.244 -0.2517  0.1591  0.0999
24017W        W40864  12.746  14.777   2.521 -0.0800 -0.0676  0.0450
24018W        W40865   4.542   6.126  12.365  0.0524  0.1585 -0.3102
24019W        W40866  13.834   7.444  13.062 -0.0298  0.2723  0.0742
24020W        W40867  17.337   0.062  13.627 -0.2133  0.1289  0.1320
24021W        W40868  16.302  13.813   4.073  0.1630  0.0256  0.4206
24022W        W40869  15.790  18.469   5.316 -0.0982 -0.0236  0.0506
24023W        W40870   4.897  17.315  13.336 -0.1818  0.0904  0.1472
24024W        W40871   0.013   2.155   3.764 -0.1684 -0.1275  0.1508
24025W        W40872   8.826  17.304  12.490  0.3953 -0.1696 -0.0526
24026W        W40873   6.888  18.733  11.741  0.3678  0.2274 -0.3407
24027W        W40874  13.884  19.152  12.527  0.1606 -0.1665 -0.0616
24028W        W40875  18.638   2.371   1.115  0.0911  0.0260  0.2120
24029W        W40876   8.232   3.470   0.730  0.1287  0.0572  0.2596
24030W        W40877   7.990   8.967   5.384  0.1620 -0.0265  0.1437
24031W        W40878   5.317  17.264  14.115 -0.0951 -0.0303 -0.0851
24032W        W40879   3.647   2.489   5.622 -0.0522 -0.2500  0.1178
24033W        W40880  16.022  11.732  11.697 -0.2107  0.1496 -0.3721
24034W        W40881  16.507   5.120   3.547 -0.2608  0.1007  0.0057
24035W        W40882   3.609  10.881   1.082  0.1304  0.0135 -0.2867
24036W        W40883   6.587   1.012  10.427 -0.0362  0.0888 -0.1078
24037W        W40884  14.063   1.277   0.527  0.1388  0.0735  0.3265
24038W        W40885  16.434  13.954  11.897 -0.0819  0.1468 -0.0710
24039W        W40886  16.445  13.690   2.802 -0.0119 -0.0511 -0.1263
24040W        W40887   9.903  17.070  13.772  0.1456 -0.0585 -0.0982
24041W        W40888  12.946   6.341  12.426 -0.0547  0.0847 -0.0289
24042W        W40889  14.429   4.267   0.958  0.2639 -0.4562 -0.0358
24043W        W40890  14.690   6.627   1.609 -0.0408  0.1115  0.2093
24044W        W40891  10.216   7.738  11.107  0.2976 -0.0526  0.1181
24045W        W40892   8.488   3.876   0.648  0.1532 -0.1943 -0.1090
24046W        W40893   1.247  12.442  11.032 -0.1825 -0.0535  0.2152
24047W        W40894   6.402  16.655   5.365  0.1305  0.3431 -0.0811
24048W        W40895  17.806  14.771  13.072 -0.1368 -0.0434 -0.1801
24049W        W40896   9.965  11.560  11.095  0.0781 -0.0017  0.1387
24050W        W40897  12.485   2.888   2.943  0.0241  0.1365 -0.2635
24051W        W40898  12.859  13.867  12.764  0.0145 -0.2375 -0.0808
24052W        W40899   8.131  14.942   1.765 -0.1166  0.1347  0.0488
24053W        W40900  11.610   1.837   1.341  0.1396 -0.1527  0.0113
24054W        W40901  18.261   0.719   0.200  0.0070 -0.0283 -0.3180
24055W        W40902  13.681   4.924  10.930 -0.1367 -0.1965 -0.2650
24056W        W40903  15.757   6.073   9.642  0.0543  0.1094 -0.1860
24057W        W40904   1.217   1.125  12.347  0.0459  0.1094 -0.1642
24058W        W40905  12.438  12.106  11.616  0.0536 -0.1495  0.6136
24059W        W40906  13.688   1.766   1.673 -0.0825 -0.0927  0.2683
24060W        W40907   1.409  14.194   5.292  0.0725  0.0506  0.4126
24061W        W40908  14.184  11.163   1.217  0.0347  0.0737 -0.0657
24062W        W40909  19.052  14.179   2.942  0.1491  0.0380 -0.2355
24063W        W40910   5.118  10.008   0.923 -0.0085  0.0820 -0.1933
24064W        W40911   1.228  11.708   4.271  0.0487  0.0016 -0.0245
24065W        W40912  10.386   4.248  11.054  0.0991  0.0796 -0.3809
24066W        W40913   3.447  18.595  11.528 -0.5166 -0.2812  0.0901
24067W        W40914  17.520   6.319   3.966 -0.0980  0.0677 -0.1456
24068W        W40915  13.243  10.532   2.623  0.3423 -0.1251  0.2827
24069W        W40916   3.917   2.927   1.019  0.2238  0.2714 -0.3503
24070W        W40917  15.880  16.979  13.280 -0.1196 -0.0737 -0.0384
24071W        W40918  14.677  12.359   2.525  0.1015 -0.3058 -0.1217
24072W        W40919  10.785  14.498  11.429 -0.0612  0.2143  0.2577
24073W        W40920   0.071  10.536  14.636 -0.0655  0.0018  0.0109
24074W        W40921   0.454  16.048   1.267 -0.0200  0.0730 -0.0103
24075W        W40922  13.496  15.737   1.575  0.2350  0.1693 -0.1814
24076W        W40923   0.045  12.058   1.525  0.0702  0.1609  0.2330
24077W        W40924  13.834   7.798   3.269 -0.0899  0.0599  0.0207
24078W        W40925  14.909   0.069   4.022 -0.0960 -0.0852  0.2717
24079W        W40926  15.259   7.648   2.223  0.0602 -0.0732  0.0824
24080W        W40927  17.219  17.717  14.608 -0.1024  0.1004 -0.2501
24081W        W40928  18.981  11.861  13.914 -0.1287 -0.0101 -0.3047
24082W        W40929  15.028  12.493  12.117 -0.0820 -0.1226  0.5716
24083W        W40930   1.334   7.176  12.569  0.0813  0.3001  0.2088
24084W        W40931  17.015  18.945  11.936  0.3233  0.2832  0.0921
24085W        W40932  13.070   6.322   3.546  0.1309  0.1191  0.2435
24086W        W40933   9.480  14.125  11.712 -0.0397 -0.2161 -0.1814
24087W        W40934   8.742   3.629   2.866  0.1835 -0.1247  0.0094
24088W        W40935   8.469   6.696  12.704  0.2404 -0.2674  0.0437
24089W        W40936   8.899   0.809   4.617 -0.2947 -0.3192  0.1333
24090W        W40937  13.268  14.445  13.147  0.1027  0.4285  0.0284
24091W        W40938  18.063  14.634   2.795 -0.1194  0.0403  0.2066
24092W        W40939   3.773   1.052   4.118 -0.0835 -0.0065 -0.3084
24093W        W40940  15.973   0.990   3.970 -0.0382  0.0770 -0.1089
24094W        W40941  13.757  16.718  14.510 -0.1081  0.0452 -0.0421
24095W        W40942  14.897  10.082  12.672  0.2192 -0.2478  0.1036
24096W        W40943   1.580  13.907   1.969 -0.2598 -0.0285  0.1067
24097W        W40944  14.432   6.849   3.039 -0.1023 -0.1300  0.0247
24098W        W40945  13.271   2.884   3.143 -0.2159  0.2005 -0.2566
24099W        W40946   2.672  11.705   2.193 -0.1196  0.1868  0.0976
24100W        W40947   2.411  18.505  14.505 -0.1990 -0.1008  0.1127
24101W        W40948  13.662   1.864   3.054  0.1230 -0.1042  0.0781
24102W        W40949   4.558  13.794   0.860 -0.1301  0.1836 -0.0693
24103W        W40950  16.287  12.195  10.894  0.2769  0.0963 -0.1766
24104W        W40951   0.710   8.758   1.963 -0.0893 -0.1549  0.0087
24105W        W40952   5.425  14.340   1.225 -0.1510 -0.1426  0.0231
24106W        W40953  18.016   2.288   4.982 -0.0094 -0.1141  0.0450
24107W        W40954   0.377   6.965   0.206 -0.3467 -0.0765 -0.0925
24108W        W40955  11.379   7.699  10.562  0.0304 -0.2083  0.0411
24109W        W40956   4.010   7.052  11.513  0.0153 -0.0402  0.3080
24110W        W40957  18.143   0.977  11.223 -0.0158  0.1549 -0.1196
24111W        W40958  17.251   4.840   0.668 -0.0776  0.1920  0.2022
24112W        W40959   9.035   5.453   4.312  0.1662  0.2325 -0.1308
24113W        W40960  17.327  10.940   3.022  0.0201  0.2191 -0.2413
24114W        W40961  15.399   4.437  14.023 -0.1104 -0.2591  0.0950
24115W        W40962   0.903  15.790   1.364 -0.1289 -0.1191 -0.0305
24116W        W40963   2.372   5.905   0.979 -0.3030  0.1789  0.2447
24117W        W40964   6.457   0.639   1.820  0.0827  0.1490  0.3082
24118W        W40965  10.799  10.530   3.940 -0.0032 -0.0651  0.0751
24119W        W40966  13.538   4.871  14.408 -0.0993 -0.2401  0.0635
24120W        W40967  15.757   6.553   2.882  0.0501 -0.0525 -0.1986
24121W        W40968  14.629  12.042   0.863  0.0898 -0.2850  0.0279
24122W        W40969  18.018   1.303  12.490 -0.1192  0.3171 -0.0762
24123W        W40970  16.904  11.412  12.038  0.3247  0.1192  0.2370
24124W        W40971   3.354   9.053  12.767 -0.0840  0.2619 -0.0323
24125W        W40972  12.334  11.074  13.165  0.3084  0.1429  0.1042
24126W        W40973  17.118  17.425  13.760  0.2039 -0.0264 -0.1815
24127W        W40974   5.403   0.071   4.217 -0.0974  0.1727 -0.0266
24128W        W40975  16.648   9.952   2.600  0.0712 -0.1040 -0.0490
24129W        W40976   1.452  17.873  14.584 -0.0268  0.0108 -0.3180
24130W        W40977  11.085   4.593  13.180  0.0537 -0.2636 -0.0130
24131W        W40978   5.595  12.766   2.633 -0.1589  0.0654 -0.0002
24132W        W40979   5.191  10.378   5.008 -0.0095 -0.2846 -0.1478
24133W        W40980  11.615  18.458  14.032 -0.2418 -0.1175  0.3310
24134W        W40981   3.528  16.702  13.343  0.0445 -0.2707 -0.1468
24135W        W40982  12.400  18.711   4.675  0.0787 -0.0793 -0.2910
24136W        W40983  15.882   2.241   0.253  0.0831 -0.1651 -0.2122
24137W        W40984   4.385   9.866  13.032  0.1059 -0.0422 -0.2378
24138W        W40985  18.955   6.845   0.911 -0.1269  0.0917 -0.1017
24139W        W40986  15.500   6.921   4.546 -0.3292  0.3443  0.2110
24140W        W40987   4.868  11.688   2.176 -0.2379 -0.1083 -0.0729
24141W        W40988   7.682   2.980   3.462 -0.0401  0.1229 -0.0048
24142W        W40989   0.197  16.297   2.616  0.2497  0.1832 -0.0936
24143W        W40990   7.561   8.427   2.885 -0.3160  0.3670  0.1221
24144W        W40991  15.481  17.484   2.994 -0.1622 -0.2726  0.1144
24145W        W40992   3.308   1.147   3.828 -0.0011 -0.3072  0.2248
24146W        W40993  15.621  17.161   4.956  0.1220  0.4593  0.0042
24147W        W40994  10.849  11.738  11.237 -0.2374 -0.4200  0.3809
24148W        W40995  14.153   4.858  11.201  0.3733  0.0881  0.0346
24149W        W40996   6.983  13.997   2.590 -0.1248  0.0636  0.1775
24150W        W40997   8.203   0.592   2.225  0.1552 -0.3206  0.0795
24151W        W40998   1.721  17.053  14.187 -0.2192 -0.1133  0.1293
24152W        W40999   9.371  14.867   3.006 -0.1596 -0.0987 -0.1050
24153W        W41000   4.176   9.195   2.776 -0.0072 -0.2068 -0.1776
24154W        W41001   4.420  14.066   2.513  0.2188 -0.1098 -0.1400
24155W        W41002   2.615   7.337   1.564 -0.1302  0.1527  0.1561
24156W        W41003  12.656   0.201  14.793  0.0413 -0.3517 -0.1759
24157W        W41004   0.992  14.703   3.308 -0.0261  0.4126  0.0778
24158W        W41005   6.119  17.537   4.415  0.0680  0.2376 -0.0224
24159W        W41006  11.479   5.815  13.496 -0.0741  0.1486  0.3264
24160W        W41007  15.818   1.849  13.274  0.4699 -0.0380  0.2593
24161W        W41008   0.343  19.004   2.590  0.0926  0.0967 -0.1480
24162W        W41009   9.560  18.948   0.022  0.0524  0.3180 -0.1168
24163W        W41010   0.705  19.104  14.807  0.0468  0.2058 -0.1510
24164W        W41011  18.303   9.697   4.495  0.0407 -0.0405 -0.0866
24165W        W41012   7.305  16.227   3.782  0.1724 -0.0125  0.1293
24166W        W41013   4.793  13.637   3.461  0.1828 -0.0001 -0.3394
24167W        W41014   8.254  10.386   3.846 -0.1753 -0.1468  0.1314
24168W        W41015   8.671   4.482  14.847  0.0727  0.2177  0.2724
24169W        W41016  11.209  11.104   9.374 -0.0074 -0.0389 -0.0950
24170W        W41017   6.783   9.026   4.681 -0.0204  0.1120  0.1796
24171W        W41018  19.023   6.605   0.525  0.0853 -0.1225 -0.1305
24172W        W41019   8.654  10.689  14.855 -0.0992  0.3826 -0.2224
24173W        W41020  11.254   9.131  14.027 -0.2136  0.2359  0.0414
24174W        W41021   0.287   4.150  11.464  0.0882 -0.1649 -0.3351
24175W        W41022   1.252   2.046   2.337  0.0536 -0.0917 -0.1273
24176W        W41023   4.978   8.622   1.816  0.0275  0.0971 -0.1137
24177W        W41024   0.459   2.026   4.418  0.1385  0.3997  0.2452
24178W        W41025   9.752  12.670   1.345  0.1249  0.1001 -0.0634
24179W        W41026   0.673   3.865  14.094  0.1974  0.2554  0.2236
24180W        W41027  11.322  11.640  10.166 -0.3844 -0.0976 -0.0874
24181W        W41028   9.097  12.175   0.404  0.1138  0.0730 -0.0651
24182W        W41029   3.300   5.414  12.800  0.1149  0.1295 -0.0929
24183W        W41030  17.646   7.640   0.780  0.1175 -0.0882 -0.0800
24184W        W41031  17.757  13.018   1.701  0.3703  0.0104 -0.1184
24185W        W41032   4.048   8.577  11.649 -0.1910 -0.2573  0.0654
24186W        W41033   2.228  16.677   2.859  0.0334 -0.1962  0.0612
24187W        W41034  17.233  11.032  11.675  0.2847 -0.1384 -0.2349
24188W        W41035   3.706  15.221   9.864 -0.1480  0.0727  0.2952
24189W        W41036   3.304   2.634   2.557 -0.1209 -0.1140 -0.2191
24190W        W41037   0.784  17.601  11.093 -0.3520 -0.0198 -0.2767
24191W        W41038  12.553  12.027  13.029 -0.2145  0.3141  0.0799
24192W        W41039  17.287   8.937  11.147  0.1269 -0.0024 -0.1997
24193W        W41040   3.166  16.277   3.282 -0.1771 -0.1439 -0.0689
24194W        W41041  16.060  16.094  14.905 -0.0844  0.1914 -0.1336
24195W        W41042  16.240  10.891   0.187 -0.0793  0.0958 -0.3851
24196W        W41043   6.346   7.870   1.044 -0.1047  0.1130 -0.0052
24197W        W41044   2.247   9.154  14.759 -0.3013 -0.0144 -0.0754
24198W        W41045   9.602   3.807  13.040 -0.1763 -0.1619  0.1686
24199W        W41046   0.605   3.216  13.896  0.0405  0.0673  0.0325
24200W        W41047  18.121   2.697  13.434 -0.0731 -0.0078  0.0472
24201W        W41048  14.749  12.199  13.716  0.0217 -0.0767  0.0995
24202W        W41049  14.917   6.967   3.144 -0.1554  0.2639  0.0281
24203W        W41050   2.019   2.860   0.797  0.2907 -0.1574  0.5811
24204W        W41051  16.802   4.988   1.809  0.2393 -0.0447  0.2693
24205W        W41052  13.140  18.258   4.679  0.0483 -0.0533  0.0655
24206W        W41053   6.122   5.733  14.532 -0.0764  0.3076 -0.1719
24207W        W41054   3.304   9.048   2.784 -0.1153 -0.0314 -0.3720
24208W        W41055   9.680   3.203   9.686  0.1402 -0.0532  0.0503
24209W        W41056   2.918  10.254   5.011 -0.1332 -0.0437  0.2704
24210W        W41057   0.971   5.340   0.215  0.0680 -0.0878 -0.0206
24211W        W41058  19.176   3.822  11.211 -0.3945 -0.0173 -0.2342
24212W        W41059   3.218  17.587  13.983  0.2250 -0.1795  0.0815
24213W        W41060   2.342   6.983   5.522  0.3724  0.1262  0.1368
24214W        W41061  10.506  11.614   4.255  0.1510  0.1607  0.3163
24215W        W41062   8.917  12.185   3.904  0.0244  0.2313 -0.0812
24216W        W41063  15.569   5.094   0.492  0.1372  0.1342  0.1360
24217W        W41064   2.208  12.481  10.969 -0.2355  0.1028 -0.1565
24218W        W41065  10.680   8.551  14.174 -0.0920 -0.1078  0.3133
24219W        W41066  14.889  17.730   2.243 -0.1218  0.0774  0.0176
24220W        W41067  15.192   2.719   3.055  0.4693 -0.1221  0.0648
24221W        W41068   2.410  14.752  11.433 -0.1333  0.6468 -0.2841
24222W        W41069   0.008   5.847  13.059 -0.2486 -0.0371  0.1954
24223W        W41070  17.309  17.692   4.746 -0.3026  0.0495  0.1813
24224W        W41071   2.241   9.945   2.542  0.2364 -0.1723 -0.3536
24225W        W41072  12.875  11.049   1.534 -0.0232 -0.0373  0.0063
24226W        W41073  10.044   3.002   9.992 -0.4719 -0.1487  0.0956
24227W        W41074  11.995   3.503  12.347 -0.0812  0.4595 -0.0482
24228W        W41075   7.804  17.291  12.738  0.0650 -0.0387 -0.1463
24229W        W41076  18.145   8.501   4.443  0.0388 -0.2082 -0.0344
24230W        W41077  11.393   6.427  11.731  0.2030 -0.0770  0.0120
24231W        W41078   6.030  13.987  14.613  0.4061 -0.0831 -0.2680
24232W        W41079  17.591   2.292   1.368  0.1939 -0.0847 -0.0023
24233W        W41080   4.267   8.466  13.732  0.0596  0.2491 -0.0872
24234W        W41081  12.967   3.978   2.230  0.2775  0.0419  0.0612
24235W        W41082   3.935  16.668  11.715 -0.2332  0.0083 -0.2472
24236W        W41083  13.625  10.740   1.666  0.3008  0.1852 -0.0469
24237W        W41084  15.461  13.285   3.135  0.2090  0.3375 -0.1534
24238W        W41085  18.521   5.063  12.238 -0.0034  0.0667 -0.1939
24239W        W41086  12.893  16.163  14.971 -0.2115  0.2113 -0.0791
24240W        W41087  12.268   8.653  13.164 -0.2236 -0.0741  0.0228
24241W        W41088   6.567   5.196   2.134 -0.2445  0.0978  0.2788
24242W        W41089  12.259   0.264  11.560  0.2139 -0.1166 -0.2644
24243W        W41090  17.267   3.768  11.994  0.2016 -0.0427  0.0472
24244W        W41091   5.774  17.425   3.201 -0.0722 -0.3619 -0.1215
24245W        W41092   6.884  11.278   3.170  0.0084  0.1640 -0.2661
24246W        W41093  11.323  13.461  12.213  0.1331  0.1130  0.0578
24247W        W41094   4.654   1.033  12.916 -0.2054  0.4666  0.0181
24248W        W41095   9.262  14.862   3.759 -0.1809  0.1864  0.2111
24249W        W41096  12.711   4.634   1.486  0.1086 -0.2252 -0.3064
24250W        W41097  18.774   6.610  11.021 -0.3083  0.1744  0.2520
24251W        W41098   7.680  16.179   3.437  0.1767 -0.4084 -0.0136
24252W        W41099  16.140   5.607   2.488 -0.1917 -0.2345  0.1616
24253W        W41100  14.709  18.757   2.683  0.2928 -0.1782  0.0619
24254W        W41101  17.503   9.705   0.661  0.1477 -0.4025 -0.0719
24255W        W41102   6.622   1.868  12.006 -0.0565  0.6163 -0.0721
24256W        W41103   5.661   1.850   5.108  0.1968 -0.3467 -0.0280
24257W        W41104  17.150   4.586   4.611  0.2872 -0.2013 -0.1345
24258W        W41105  11.884   0.203  12.801  0.1710 -0.0326  0.0279
24259W        W41106   7.081   4.552   4.729  0.1731 -0.0579 -0.0321
24260W        W41107  14.425   4.285   1.995 -0.3382 -0.1779  0.1264
24261W        W41108  16.003   3.275   1.485  0.0862 -0.0826  0.2931
24262W        W41109   1.894  13.963  12.459  0.0122 -0.0576  0.0989
24263W        W41110   6.988  11.295  12.488 -0.1257 -0.1710  0.0572
24264W        W41111   4.168  18.505   0.752 -0.2945 -0.0799 -0.1020
24265W        W41112   2.975  10.885  11.694 -0.0782 -0.1955 -0.1069
24266W        W41113  15.868   9.963  14.511 -0.1411 -0.0231 -0.0025
24267W        W41114  19.185  12.577   2.259  0.1646  0.2534  0.2533
24268W        W41115   6.479   1.417   5.531 -0.0197 -0.0619 -0.4445
24269W        W41116  14.083  13.542  10.355 -0.0403  0.2557  0.0951
24270W        W41117  11.583   0.898   4.251 -0.2311  0.0142  0.0387
24271W        W41118  10.487  17.017   5.673  0.3989 -0.0052  0.1387
24272W        W41119   1.993  14.681   3.485 -0.1713 -0.0899  0.1899
24273W        W41120   2.494  17.265  14.392 -0.2936 -0.1583  0.1346
24274W        W41121  15.278   5.238   1.593 -0.0918 -0.0481 -0.0136
24275W        W41122  18.170   7.847  11.192 -0.1324 -0.2679  0.0575
24276W        W41123  13.905   0.436   0.194  0.3105 -0.2077  0.2718
24277W        W41124   4.967  11.646  12.861  0.0213 -0.2167  0.0832
24278W        W41125  11.129   1.927  12.765 -0.0211  0.0126 -0.2208
24279W        W41126   1.095  13.000   1.578  0.3435  0.4038 -0.0852
24280W        W41127   7.163   5.395   0.576 -0.2499  0.0583 -0.1379
24281W        W41128   7.621  14.995   9.816  0.1253  0.0937 -0.0012
24282W        W41129   7.390   0.152  12.261 -0.0950  0.1425 -0.1419
24283W        W41130   2.512  10.686  11.710 -0.1478 -0.0489  0.3841
24284W        W41131   0.904  11.477   4.526 -0.3086 -0.1234 -0.2629
24285W        W41132   4.979  15.539  11.933 -0.1180 -0.2466  0.1259
24286W        W41133   1.437  15.584   1.782  0.3507 -0.1197  0.2119
24287W        W41134   6.353   6.780  10.355  0.1496 -0.0204  0.0274
24288W        W41135  10.900   2.592  12.248 -0.0398 -0.2259 -0.1166
24289W        W41136  14.922  18.788  11.847  0.0926  0.2403  0.2136
24290W        W41137  10.653   9.794  12.169 -0.0770 -0.0760 -0.0444
24291W        W41138   7.857  10.103   8.927 -0.3154 -0.1755 -0.1923
24292W        W41139  14.206   7.264   0.029 -0.2289 -0.0577 -0.0934
24293W        W41140   3.919   5.159   0.917  0.0563  0.1975 -0.0486
24294W        W41141  15.296   3.364  11.094 -0.4046 -0.3125 -0.2311
24295W        W41142   2.481   3.839  14.721 -0.0334  0.1996  0.1045
24296W        W41143   2.785   4.188  11.020  0.0854 -0.1761  0.0535
24297W        W41144  17.497  18.529   4.208 -0.0525 -0.1341  0.0491
24298W        W41145   2.770   0.344   3.933 -0.0113  0.1338 -0.1984
24299W        W41146   2.378   1.720  13.532 -0.0251 -0.1725 -0.0766
24300W        W41147   8.997  11.611   0.886 -0.0983 -0.2242 -0.0447
24301W        W41148   6.940  10.449  11.522  0.1252  0.2588 -0.0824
24302W        W41149  14.490   7.561  14.278 -0.0446 -0.0429  0.0383
24303W        W41150   1.812   5.107   0.683 -0.1284 -0.0715  0.1360
24304W        W41151  15.786  10.555  10.847  0.0039 -0.0291 -0.1226
24305W        W41152   5.441  18.210  13.149  0.1086  0.0035  0.1325
24306W        W41153   3.573  18.210  12.306  0.1530  0.2598 -0.0679
24307W        W41154   1.462   3.747   2.278  0.1078  0.2304  0.1559
24308W        W41155  15.132  17.789   2.955  0.2927 -0.3451 -0.0613
24309W        W41156   1.212   7.837   1.964  0.0227  0.3822 -0.1901
24310W        W41157  18.428   4.345   5.317  0.0487 -0.1296 -0.2969
24311W        W41158  14.216  14.580  12.791 -0.3821  0.0539  0.1829
24312W        W41159  18.313  15.760  11.314 -0.2461  0.1573  0.2125
24313W        W41160  12.512   1.335  14.663  0.0533 -0.0691  0.1846
24314W        W41161   7.998  16.596  13.436  0.1687  0.0121  0.0860
24315W        W41162  11.896   8.997   3.510  0.0905 -0.3871 -0.0539
24316W        W41163   7.054  15.971  11.913 -0.3296  0.0817 -0.1619
24317W        W41164   4.059   7.556   2.464 -0.2161  0.1506  0.1727
24318W        W41165  11.399  17.917   2.419  0.1102 -0.2081  0.2516
24319W        W41166   5.309  18.420   2.409  0.1078 -0.1143 -0.0032
24320W        W41167   0.138   9.769   0.794  0.1233 -0.0737  0.0027
24321W        W41168   0.335   9.078   2.219  0.3026 -0.1320  0.0552
24322W        W41169   7.461  14.186   4.534 -0.0235 -0.0740  0.5713
24323W        W41170  15.341   2.931  13.512  0.0263  0.4385  0.2421
24324W        W41171  11.972  15.130  14.769 -0.0161  0.0317 -0.3206
24325W        W41172   6.776   0.889  13.434 -0.0955  0.1981  0.0608
24326W        W41173   0.005  17.881  14.916  0.0901  0.1701 -0.2379
24327W        W41174  13.335   3.801  11.972 -0.0787  0.2620  0.1287
24328W        W41175   8.810   0.579   0.428 -0.2904 -0.1275  0.0178
24329W        W41176   8.791  10.744   4.343  0.0162 -0.1019  0.1700
24330W        W41177  15.242   8.029  10.533 -0.1242 -0.0447 -0.1274
24331W        W41178   9.493   4.797   3.933  0.1812  0.0401 -0.0469
24332W        W41179   9.954   4.785  11.493 -0.0364  0.1329  0.1608
24333W        W41180  11.104   1.365  13.674  0.3494 -0.1421 -0.0149
24334W        W41181   8.674   5.243  13.669 -0.2189  0.2092  0.3734
24335W        W41182  14.132   8.304  14.997  0.3648 -0.0306 -0.4397
24336W        W41183  16.181  15.598  13.697  0.2123  0.3179 -0.0656
24337W        W41184   7.416  10.545   2.945 -0.1035 -0.2712  0.0591
24338W        W41185  19.067   4.893  12.358  0.1243 -0.0446 -0.1376
24339W        W41186  10.952   9.617   1.783  0.6319 -0.2225 -0.2706
24340W        W41187  18.921  12.686  14.914 -0.3042  0.1700 -0.1820
24341W        W41188  15.757  17.453  11.310  0.2368 -0.1227 -0.1250
24342W        W41189   2.004   1.089   2.986 -0.2183 -0.1947 -0.0505
24343W        W41190  11.686  17.712  10.082 -0.0716  0.2509  0.3097
24344W        W41191  14.433  17.773   5.486  0.2392 -0.2614 -0.2332
24345W        W41192   0.653  14.549  10.332 -0.0163 -0.0465 -0.3424
24346W        W41193   6.520   0.126   0.307 -0.2985 -0.0925  0.0874
24347W        W41194   4.965   8.429  10.619 -0.1905  0.1447  0.3335
24348W        W41195  10.168   4.346   2.066 -0.0530  0.1165 -0.2876
24349W        W41196   9.572   6.029   2.301 -0.1632  0.0512 -0.1582
24350W        W41197   4.203   0.622  14.913 -0.0268 -0.2364  0.0878
24351W        W41198   0.076  16.879  14.241  0.2878 -0.0907 -0.0496
24352W        W41199  13.707  10.040  10.600 -0.1068 -0.2214 -0.0927
24353W        W41200   5.281  16.523   4.293 -0.1579  0.0235  0.4043
24354W        W41201   3.706  11.895   1.954  0.3898  0.2538  0.0275
24355W        W41202   8.378   5.357  12.547  0.3401  0.1168  0.2286
24356W        W41203   1.540   6.693  11.499 -0.1194  0.0222  0.1907
24357W        W41204   6.528   9.498   2.591  0.0160  0.1829 -0.4018
24358W        W41205  13.084   8.979  13.501  0.0087  0.1070  0.2783
24359W        W41206   3.680   8.020  11.811 -0.3120 -0.0069  0.1298
24360W        W41207   3.624   2.077   3.024  0.0268  0.3836 -0.4211
24361W        W41208  14.871  18.778  13.354 -0.1786  0.0935  0.4227
24362W        W41209   9.916   0.671   0.010  0.0229  0.1453  0.0516
24363W        W41210   4.558  10.741  10.357 -0.0300  0.1497 -0.0157
24364W        W41211  10.300  19.176  13.904  0.1119  0.2736 -0.0242
24365W        W41212  13.569  18.846   1.747  0.0266  0.0287  0.4531
24366W        W41213   5.012   5.200   3.296  0.1634 -0.3604  0.4570
24367W        W41214   6.050   7.478   0.946  0.0712 -0.2621  0.0919
24368W        W41215   1.122   1.330   5.021 -0.2897 -0.0224  0.3619
24369W        W41216  12.426  14.794  11.526  0.0331 -0.1860 -0.0922
24370W        W41217   6.947  18.228  14.643  0.1990  0.1678  0.0700
24371W        W41218  10.357  12.218   0.201  0.3135  0.0983  0.2318
24372W        W41219  15.858  17.192   2.555 -0.2646  0.1984  0.1443
24373W        W41220  12.124  19.066   6.091  0.0524  0.1575  0.1940
24374W        W41221  11.289  10.569   3.315  0.1568  0.2393 -0.1539
24375W        W41222   8.457   0.254  12.053  0.3001  0.1097 -0.1844
24376W        W41223   0.925  13.829  14.025 -0.1116 -0.2089 -0.1288
24377W        W41224  15.352   7.276  11.534 -0.0271 -0.1612  0.2182
24378W        W41225   7.908  10.430  10.959  0.0887  0.0824  0.0615
24379W        W41226  12.870   4.957   4.642  0.0944  0.0133  0.2206
24380W        W41227  15.945  16.901  14.847 -0.0538  0.1781  0.2277
24381W        W41228   8.215  12.428  13.158 -0.0869 -0.1554  0.1148
24382W        W41229  15.604  15.698   2.466 -0.0253 -0.4133  0.1756
24383W        W41230  14.023  18.600   3.871  0.3236  0.1159 -0.2011
24384W        W41231  15.454   2.078  13.019  0.1158  0.2184  0.1678
24385W        W41232  13.090   3.045   1.046 -0.3385 -0.1086 -0.1071
24386W        W41233  18.232  17.910   3.756  0.2181  0.0589  0.1510
24387W        W41234   8.763   5.159   4.780 -0.2178 -0.0875  0.2658
24388W        W41235  15.592   7.543  14.007  0.0751 -0.1301 -0.2908
24389W        W41236   4.013   4.727   4.313  0.1571  0.0900  0.2712
24390W        W41237  15.136  18.847  14.395  0.0317  0.0446 -0.1279
24391W        W41238   7.068   5.553   4.926  0.4496 -0.1356 -0.3272
24392W        W41239  16.965   1.847   4.348  0.1724  0.0318 -0.1699
24393W        W41240   5.319  11.325  14.418  0.0668 -0.1832 -0.0935
24394W        W41241   3.832   1.776  14.120  0.4287 -0.1360  0.1464
24395W        W41242   6.165  15.494   1.626  0.1913 -0.2542  0.1367
24396W        W41243   0.416  10.143  11.172 -0.1982 -0.1777  0.2969
24397W        W41244   2.096   8.257   4.868 -0.0483  0.1047 -0.3260
24398W        W41245  10.015  15.809  12.093 -0.3605 -0.1301 -0.1930
24399W        W41246  17.710   1.183   1.487 -0.0207  0.1350 -0.0959
24400W        W41247  10.606   0.294  13.543  0.0440 -0.2288 -0.2642
24401W        W41248  15.613  13.680   5.306  0.2298  0.2400 -0.2864
24402W        W41249  12.152   6.589   3.253  0.1489 -0.1884  0.0632
24403W        W41250   4.566  17.366   0.923 -0.4651 -0.0599 -0.0485
24404W        W41251   1.941  15.203  13.432  0.1182 -0.2290  0.0022
24405W        W41252   6.993   8.792  11.539 -0.3159 -0.0281  0.0234
24406W        W41253   7.533   9.443  10.970  0.0622  0.0026  0.2842
24407W        W41254  11.643   3.169   2.457 -0.1747 -0.0377  0.0671
24408W        W41255   4.245  14.728   0.277  0.0097 -0.1089  0.1432
24409W        W41256   8.609  14.698   2.239  0.2232 -0.1117 -0.0963
24410W        W41257   4.454   3.115  10.843  0.0140 -0.0707 -0.2733
24411W        W41258  18.197  18.661   3.841 -0.0927 -0.0160  0.1194
24412W        W41259   2.971  10.179   9.602 -0.4129  0.1503 -0.1139
24413W        W41260   3.932  14.623  11.443 -0.2055  0.0295  0.2146
24414W        W41261   9.934   0.612  12.284 -0.1684 -0.1407 -0.0568
24415W        W41262   7.020  11.611  11.927 -0.2546 -0.2803 -0.0739
24416W        W41263   5.248  19.122   1.710  0.0828  0.1898  0.1007
24417W        W41264   5.478  17.682   0.894 -0.1208  0.0060  0.4469
24418W        W41265   4.119  14.365   5.757  0.1728  0.0353 -0.0439
24419W        W41266   8.683   8.478  11.632  0.0909 -0.1068  0.2792
24420W        W41267  18.322   6.921   2.401  0.0777 -0.3515 -0.2535
24421W        W41268  11.182   5.542  10.791  0.0349 -0.0073 -0.1554
24422W        W41269  17.146   0.452  12.218  0.2047  0.0757 -0.1694
24423W        W41270  14.416   8.675  10.883  0.0284 -0.1637 -0.0115
24424W        W41271  11.624  12.481   5.067  0.4753  0.0268 -0.0452
24425W        W41272   7.627   1.702   4.099 -0.1495 -0.1963 -0.1093
24426W        W41273   8.382  13.060   0.525 -0.1859  0.1146  0.2090
24427W        W41274   6.343  15.981  13.518  0.3468  0.2061 -0.2461
24428W        W41275  10.679  11.143  13.990  0.0467  0.0541 -0.2502
24429W        W41276   7.600  13.156  10.334  0.2153 -0.0054  0.0019
24430W        W41277   4.879  17.476  13.857  0.0384  0.0257  0.0563
24431W        W41278  12.601   1.960  11.956 -0.1824 -0.0958 -0.1299
24432W        W41279   7.387  11.627   3.194  0.1663 -0.1378  0.1773
24433W        W41280  15.051  18.379   2.654  0.2644 -0.2105  0.2187
24434W        W41281   6.861  11.183  14.927  0.1138  0.1867  0.2432
24435W        W41282  14.211  10.691  10.149 -0.3916 -0.2717 -0.0346
24436W        W41283  10.429   2.369   2.426 -0.0132  0.2003 -0.2103
24437W        W41284  11.800  13.676  13.915  0.2318 -0.3532 -0.0159
24438W        W41285  19.280   6.595  11.163 -0.0368  0.0963 -0.4431
24439W        W41286  11.014   4.456  12.658 -0.0967  0.1788  0.0193
24440W        W41287  11.868  14.661  12.146 -0.1987  0.3338  0.1167
24441W        W41288   1.996  13.495  12.297  0.0752 -0.0966 -0.3524
24442W        W41289   8.016   9.407  10.863  0.0668 -0.1312 -0.1411
24443W        W41290  16.270  17.906   4.697 -0.0036  0.3736  0.1225
24444W        W41291  15.756  16.279  13.000 -0.4701 -0.1759  0.0690
24445W        W41292  11.534  14.742   4.438 -0.0669 -0.3190 -0.0893
24446W        W41293   0.306  17.569  12.906 -0.1352 -0.0401  0.0721
24447W        W41294   5.641  14.548  10.727 -0.0761 -0.1077  0.0123
24448W        W41295  16.721   9.686  10.605 -0.1485  0.2410  0.3349
24449W        W41296  15.235  18.875  12.887  0.0865  0.1741  0.0427
24450W        W41297   5.456   9.304   1.885 -0.1397  0.3385  0.3135
24451W        W41298  10.149   1.798  12.897  0.0413 -0.1259 -0.0580
24452W        W41299  15.764  17.654   1.254 -0.1511  0.1090  0.0236
24453W        W41300   0.984  14.617   1.146 -0.0874  0.0489  0.0681
24454W        W41301  11.795  18.380  11.982 -0.0200  0.0078 -0.0726
24455W        W41302   0.715  18.296   2.163  0.1107  0.2063  0.1461
24456W        W41303  16.715   6.369   3.808  0.0139 -0.2754 -0.1644
24457W        W41304  13.725  18.929   4.725 -0.0168 -0.0046 -0.0217
24458W        W41305   7.748  17.212  14.346 -0.0154  0.0600 -0.2515
24459W        W41306  17.077   2.535  13.546 -0.0862  0.1592 -0.1824
24460W        W41307  17.069  12.874   2.126  0.4771  0.2416  0.0233
24461W        W41308  18.476  10.026  12.112 -0.0740  0.1614  0.0942
24462W        W41309  13.368   8.144   3.108 -0.0637  0.0417 -0.0149
24463W        W41310   7.711  14.565   0.404  0.1397  0.0400 -0.3811
24464W        W41311   1.826  12.724   2.188 -0.3993 -0.1081 -0.2124
24465W        W41312  16.047  15.421   2.536 -0.0660  0.1044 -0.1256
24466W        W41313  19.048   8.396   2.465 -0.0319 -0.1319 -0.3532
24467W        W41314  12.137  15.949   3.931 -0.0894 -0.0552 -0.2542
24468W        W41315   7.330   4.706  13.006 -0.0584  0.1473 -0.1172
24469W        W41316   6.524   7.737  13.227 -0.0124  0.1233 -0.4051
24470W        W41317  12.514  12.578  11.550 -0.3746  0.1740 -0.2545
24471W        W41318   8.041  14.136   1.262  0.0459  0.2004 -0.1309
24472W        W41319   8.754   0.465  10.834 -0.4342 -0.0249 -0.0131
24473W        W41320   1.672   9.651  11.559 -0.0144 -0.1212 -0.0021
24474W        W41321  14.298   8.283  10.345 -0.2016 -0.1003 -0.0299
24475W        W41322   9.805  19.267  11.148 -0.0807 -0.1170  0.0732
24476W        W41323  14.899   0.088  14.620 -0.0040  0.2338  0.0202
24477W        W41324   4.557   1.466  14.964  0.2361 -0.0691  0.0231
24478W        W41325   4.639   1.915   1.445  0.1071  0.1731  0.0648
24479W        W41326   9.452   4.222  13.417  0.2623 -0.2765  0.2946
24480W        W41327  14.081   0.518   3.646 -0.0056 -0.2126 -0.0523
24481W        W41328  16.934   0.419  14.667 -0.0452  0.4560  0.0217
24482W        W41329  14.466  17.813  13.723 -0.2139  0.2393  0.0151
24483W        W41330  11.120  16.960   3.751 -0.1848 -0.2521  0.0637
24484W        W41331  11.598  14.041   1.577  0.0958 -0.0517  0.3476
24485W        W41332  10.410  11.833   4.820 -0.1824  0.1809 -0.0239
24486W        W41333   8.710   2.651  12.001  0.0107  0.1861 -0.0939
24487W        W41334  19.114   0.910   0.618  0.0505 -0.2359 -0.0343
24488W        W41335   8.222   5.062   1.956  0.1675  0.0755  0.2869
24489W        W41336   3.783   6.286   4.213  0.3278  0.1040  0.2118
24490W        W41337   2.054   5.958   2.584  0.1101  0.3320  0.0935
24491W        W41338  11.850   5.606  13.901  0.0318 -0.0876 -0.1522
24492W        W41339  11.957   6.122  10.409 -0.0649 -0.0893 -0.0691
24493W        W41340   4.783  11.776  12.330 -0.3048  0.1479 -0.1789
24494W        W41341   8.253  11.871  13.865 -0.0029 -0.2227 -0.3531
24495W        W41342   7.780   4.641  14.600 -0.1042 -0.2790 -0.0627
24496W        W41343   0.637  11.037  12.153  0.0185 -0.2313  0.1115
24497W        W41344   9.373  17.343   0.372 -0.3836 -0.2955 -0.1261
24498W        W41345   1.840   5.640   3.440 -0.0976  0.0616  0.1995
24499W        W41346  16.855  13.791   3.073  0.1050 -0.0540  0.1820
24500W        W41347  19.039  11.355  13.575 -0.0148 -0.4435 -0.1443
24501W        W41348  10.497   7.244   2.186  0.0964 -0.3577 -0.1201
24502W        W41349   7.491  13.781  12.729  0.0495  0.0005 -0.4620
24503W        W41350  11.352  17.074  11.508 -0.1366 -0.0890 -0.2786
24504W        W41351  18.409   4.484   3.066 -0.3730  0.2452 -0.2547
24505W        W41352   9.143   0.204  11.109 -0.0780  0.0545  0.0818
24506W        W41353   4.300  14.679   3.022 -0.0292 -0.1160 -0.0229
24507W        W41354   3.121  10.648   0.356  0.0462 -0.1710 -0.0348
24508W        W41355   6.488   9.678   0.238  0.1162  0.1259  0.4694
24509W        W41356   3.517   5.694   3.668 -0.1245 -0.2033  0.1557
24510W        W41357  15.315   3.538   0.238 -0.2718  0.4143 -0.1600
24511W        W41358  13.755  16.663   0.380  0.1048  0.1328 -0.1316
24512W        W41359  17.106  10.188   3.259  0.0779  0.0930  0.0727
24513W        W41360   5.740  14.120   5.045 -0.1284  0.0771  0.1521
24514W        W41361   5.343   3.480   4.213 -0.1723  0.1027 -0.0076
24515W        W41362  17.576   0.551  11.931 -0.2936  0.1046 -0.0885
24516W        W41363   1.864   9.683   1.794  0.1427  0.2743 -0.1007
24517W        W41364   2.786   5.547   4.196 -0.1611  0.0327  0.3379
24518W        W41365   5.541   3.622  11.976  0.2854 -0.2333  0.0116
24519W        W41366  18.778   1.727   0.784 -0.0339 -0.0506  0.1666
24520W        W41367  11.280   9.754   3.916  0.0592  0.1071 -0.0157
24521W        W41368  19.187   5.469  14.916  0.1095  0.1611 -0.2294
24522W        W41369  10.343  16.768  10.756  0.1576  0.1793  0.2924
24523W        W41370  15.103   6.725   1.264  0.0580  0.2921 -0.0994
24524W        W41371   4.308   0.304   4.309 -0.1020 -0.1502 -0.1396
24525W        W41372   7.734   5.555   2.005  0.4593 -0.0883 -0.0434
24526W        W41373   7.807  14.287   2.323 -0.0063  0.1686  0.1178
24527W        W41374  12.109  16.081   2.601  0.1024  0.3959  0.3012
24528W        W41375  16.212  19.213  13.503 -0.0804  0.2451 -0.2314
24529W        W41376  15.280   2.034   4.769 -0.1562  0.0209 -0.3311
24530W        W41377   2.443   0.493  13.015 -0.0408 -0.0828 -0.4580
24531W        W41378  16.152   9.641   1.462  0.0077  0.0687  0.1143
24532W        W41379  16.176  10.898   1.383 -0.0594  0.0144  0.1453
24533W        W41380  17.065   8.472  14.136 -0.0685 -0.2949  0.0149
24534W        W41381   5.016   1.594  10.277 -0.2803  0.2980  0.0653
24535W        W41382  11.185   8.774  10.637 -0.2366  0.0154 -0.1533
24536W        W41383  11.939  12.498  14.758 -0.0922  0.1662 -0.0256
24537W        W41384   9.791  10.637  10.099 -0.3647 -0.0470 -0.1807
24538W        W41385  18.703  10.112  11.356 -0.2482  0.1676 -0.4736
24539W        W41386  18.932  11.160  12.372 -0.2151  0.1468  0.0532
24540W        W41387  13.228   4.602   0.387 -0.2274 -0.1074 -0.0086
24541W        W41388   0.935  15.034  10.925 -0.1988 -0.2657  0.0450
24542W        W41389   3.703   4.468   2.259  0.2910  0.1515  0.0135
24543W        W41390   9.036   1.244  13.723 -0.1162 -0.0673 -0.1606
24544W        W41391  12.709   9.349  14.421 -0.3085 -0.1310 -0.3580
24545W        W41392   5.900   5.821   1.275  0.2773  0.1051  0.0371
24546W        W41393   0.449  13.144  12.280  0.0512 -0.3022 -0.0089
24547W        W41394  10.374  11.681   2.382  0.0246  0.0130  0.0138
24548W        W41395   1.824  15.551  11.822 -0.2731  0.0036 -0.1715
24549W        W41396   9.658   2.708  12.030 -0.0693  0.1505 -0.3158
24550W        W41397  16.514  17.469   2.776 -0.0664  0.1984 -0.0891
24551W        W41398   8.797  10.411   5.264  0.0581  0.1325  0.2670
24552W        W41399   2.464   4.531  13.288 -0.0088  0.3577 -0.3283
24553W        W41400   6.643   5.061  14.087  0.6582 -0.1555 -0.1260
24554W        W41401  14.724  17.460   1.064  0.0424  0.4249 -0.1622
24555W        W41402   4.203   0.935  10.484 -0.0511 -0.0067  0.1042
24556W        W41403   6.955  13.112  14.821  0.1698 -0.2184  0.0742
24557W        W41404  11.825  16.459  11.014  0.1331 -0.0672  0.1655
24558W        W41405   9.546   0.061   4.707  0.1879  0.3600  0.1770
24559W        W41406   3.752   4.592   1.460 -0.1680 -0.2101  0.2683
24560W        W41407   1.078  16.356   0.775 -0.1443 -0.1117 -0.1484
24561W        W41408  12.567  15.386  10.380  0.1064  0.1171 -0.0837
24562W        W41409   1.207  16.133   4.993  0.0059 -0.1159  0.0315
24563W        W41410  12.600  18.548   2.666 -0.1946 -0.0945 -0.0700
24564W        W41411  13.203   8.773  11.632  0.1198  0.0189 -0.2713
24565W        W41412  19.227   8.669  12.741  0.2278  0.1176  0.3561
24566W        W41413  15.612   3.416   1.201  0.2870 -0.0484 -0.2124
24567W        W41414  11.625  14.029  13.099  0.0965 -0.1170  0.1482
24568W        W41415  10.803  17.622  14.562 -0.0654  0.0465 -0.1598
24569W        W41416   3.173  10.969  11.235 -0.0747  0.1567 -0.0734
24570W        W41417   1.786  14.337   1.799  0.0862 -0.0298 -0.0671
24571W        W41418   8.617   2.566  12.611  0.1044  0.3835 -0.2621
24572W        W41419   9.318   4.700  13.517  0.0619 -0.0905 -0.0514
24573W        W41420  16.218   8.425  10.289  0.0678  0.2854 -0.1432
24574W        W41421  12.691   6.969  12.975  0.0595  0.1619 -0.1104
24575W        W41422   6.575  11.670   2.505  0.1063 -0.0482  0.1073
24576W        W41423   4.492  15.371   4.458  0.3837 -0.0530  0.2478
24577W        W41424   4.185   5.635   4.085 -0.1624 -0.2032  0.0617
24578W        W41425  16.728   1.089   2.414  0.0517 -0.5386  0.0798
24579W        W41426   1.390   2.198   0.100 -0.1005 -0.2915  0.1338
24580W        W41427   4.372   5.252   1.117 -0.0404  0.1750  0.0198
24581W        W41428  14.364  11.954   2.918 -0.0933 -0.0774  0.0397
24582W        W41429   9.194  10.971  14.656  0.0230  0.2820  0.3771
24583W        W41430  15.027  17.007  14.261 -0.1424 -0.1394  0.1743
24584W        W41431  18.355  15.639  12.042 -0.2651  0.1601  0.0043
24585W        W41432   2.058  14.988   0.534 -0.3959  0.2146  0.0826
24586W        W41433  19.162   0.887  13.429 -0.1560  0.2080 -0.2795
24587W        W41434   2.562   8.118   1.804  0.0019  0.5446  0.2557
24588W        W41435   0.108   9.839   1.322 -0.2722 -0.1647 -0.1535
24589W        W41436   4.447   2.337  12.163  0.1087  0.3347 -0.0006
24590W        W41437  17.946   3.233  14.715  0.0348  0.0684 -0.0974
24591W        W41438   9.595   6.588  11.792 -0.0504 -0.1046  0.2186
24592W        W41439   7.159   9.987   3.146 -0.2571 -0.0820  0.3075
24593W        W41440  12.152  13.773  14.911 -0.1926 -0.0066  0.1630
24594W        W41441   3.574  16.422   1.729  0.0191  0.1123 -0.0301
24595W        W41442   2.140   0.855   2.568 -0.1386  0.2805 -0.0788
24596W        W41443  19.272  13.004   4.734 -0.2119  0.3793  0.0051
24597W        W41444  16.965  14.948  10.991  0.0563  0.3451  0.1965
24598W        W41445   7.396   1.768   5.566  0.4949 -0.0991  0.0063
24599W        W41446   6.027  18.422  12.421  0.2698  0.0791 -0.1823
24600W        W41447  10.759   9.044  10.778 -0.2808 -0.1002  0.1327
24601W        W41448   5.796  12.617   1.289 -0.2041  0.1565  0.2328
24602W        W41449  11.337   9.118   0.126  0.3731 -0.1628 -0.3433
24603W        W41450  10.592   6.411  11.965 -0.0823  0.1282 -0.1021
24604W        W41451  13.349  16.219  14.596  0.0738  0.0458  0.0254
24605W        W41452   3.181  11.584   3.475 -0.1063  0.0291 -0.0663
24606W        W41453   5.802   0.651   3.126 -0.1895  0.1309 -0.1563
24607W        W41454  11.877   8.071  13.636 -0.0782 -0.2167  0.1394
24608W        W41455  16.490   8.159   0.305 -0.1485  0.0882 -0.0222
24609W        W41456  13.729   4.577  13.178  0.1155  0.3566 -0.1350
24610W        W41457   2.660  18.033   2.688 -0.1143  0.0006  0.1624
24611W        W41458   0.890  12.535   2.815 -0.3247 -0.1694 -0.2607
24612W        W41459   3.391   9.336   3.230 -0.0718  0.0723 -0.0093
24613W        W41460   0.887  10.507  13.859  0.3079  0.0390  0.1396
24614W        W41461   0.473  14.645  13.841  0.2621 -0.1294 -0.0252
24615W        W41462   1.081   0.773  14.142 -0.2239 -0.1752 -0.0140
24616W        W41463   3.685  15.613   1.290  0.1386 -0.2103 -0.0005
24617W        W41464   3.248  12.412  13.984  0.1001  0.0392  0.0938
24618W        W41465   1.486   4.566   3.305  0.0750 -0.2990  0.3146
24619W        W41466  16.208   8.575   4.172  0.2292 -0.2618  0.0514
24620W        W41467  10.235   7.039   1.787 -0.0854  0.4080  0.1732
24621W        W41468   5.434   5.524   4.474 -0.3557  0.0233  0.2506
24622W        W41469  10.206  14.428  10.630  0.2517 -0.3968  0.1719
24623W        W41470  15.953   1.921  12.118 -0.0676 -0.0139  0.1584
24624W        W41471  11.658  16.762   4.489 -0.1746  0.0248 -0.3035
24625W        W41472   3.085   5.605   0.275 -0.1828  0.1397 -0.1482
24626W        W41473   0.604   4.991   2.619 -0.0663 -0.2917  0.0968
24627W        W41474  14.050  16.762   0.902 -0.0871 -0.2812  0.0077
24628W        W41475  15.488   1.570   2.748 -0.0677 -0.3394 -0.2100
24629W        W41476  15.073  10.704  12.642 -0.2416  0.1302  0.0658
24630W        W41477  17.283  10.345   2.210  0.0498  0.1403  0.0634
24631W        W41478   5.137   2.735  12.804 -0.0292 -0.2215 -0.2385
24632W        W41479   8.312   7.435  14.082 -0.0266  0.2998  0.0399
24633W        W41480  13.592   1.380   3.278  0.1597 -0.0709  0.1373
24634W        W41481   5.383   2.084  13.240  0.2776  0.0744  0.0050
24635W        W41482  18.884  18.337  14.913 -0.2018 -0.0984 -0.1815
24636W        W41483  17.830   5.558   4.350 -0.0629 -0.1964 -0.2498
24637W        W41484   2.145  18.821  10.759 -0.1976  0.2902 -0.1779
24638W        W41485   1.026  13.823   2.999 -0.2356 -0.2775 -0.0505
24639W        W41486  11.610   3.776   3.791  0.0255  0.2760  0.1147
24640W        W41487  18.723   1.228  13.344 -0.0017 -0.2479  0.5084
24641W        W41488   3.339   1.203  14.702 -0.0516 -0.3997 -0.4348
24642W        W41489   9.709   5.183   2.277  0.0473 -0.1177 -0.2679
24643W        W41490   3.232  12.323  11.385  0.1153  0.0488  0.2682
24644W        W41491  19.278  14.375  14.309 -0.0403  0.0901  0.0351
24645W        W41492   8.462  14.317   4.367  0.0505 -0.0960  0.2562
24646W        W41493  13.466   2.253   4.169  0.0511 -0.0216  0.1369
24647W        W41494  15.772   9.657  12.458 -0.1753 -0.0472  0.1129
24648W        W41495   2.644   1.608  11.280 -0.2647  0.2881  0.3773
24649W        W41496   2.985  16.348  10.572 -0.1908 -0.0994  0.0774
24650W        W41497  11.849   2.676   0.760  0.2144  0.0603 -0.1649
24651W        W41498  12.455   4.876  10.624 -0.2529 -0.1065  0.0270
24652W        W41499   5.322  12.506  11.789 -0.1699  0.2998  0.2547
24653W        W41500  14.756  15.638   4.241 -0.0396 -0.0854 -0.0109
24654W        W41501   3.236  16.569  12.871 -0.0217 -0.0866 -0.2851
24655W        W41502   9.681  18.063  13.878 -0.0644 -0.1783 -0.6045
24656W        W41503   9.056   5.552   3.265 -0.2086  0.2536  0.1819
24657W        W41504   1.826  10.901   4.678 -0.1742  0.1345 -0.2620
24658W        W41505   0.391  18.401  12.279  0.1337  0.1498  0.1407
24659W        W41506   8.474   1.564   0.357  0.1664 -0.0498 -0.0159
24660W        W41507   8.467   2.212  12.334  0.1217  0.0669 -0.1949
24661W        W41508   5.834   9.418   0.866  0.0823 -0.0103 -0.1260
24662W        W41509  16.761  12.922  11.960 -0.0936  0.0383 -0.0865
24663W        W41510   0.661   1.528   4.094  0.2247 -0.0379  0.4067
24664W        W41511   1.603   1.776  14.835 -0.1457  0.0060 -0.2778
24665W        W41512   6.679   0.829   2.486 -0.2489 -0.0597 -0.0587
24666W        W41513   7.818   6.140   0.902 -0.1787 -0.1576  0.2032
24667W        W41514   2.983   5.687   1.683 -0.1556  0.0395  0.0075
24668W        W41515  18.504   4.825   0.175  0.0742  0.0731  0.1421
24669W        W41516  11.606   2.385   1.538 -0.0495 -0.0313  0.1930
24670W        W41517  15.736   4.711  10.278  0.4823  0.4805 -0.0131
24671W        W41518   7.965  15.647   5.217 -0.2159  0.1907  0.1191
24672W        W41519   6.084   4.756   3.364  0.0473 -0.0378  0.0254
24673W        W41520  11.174  16.500   3.296 -0.3732 -0.0518 -0.1450
24674W        W41521   5.170  15.498  13.291 -0.1075  0.2744  0.1171
24675W        W41522   4.160   4.024  13.495 -0.0184  0.1351  0.2060
24676W        W41523  15.819  18.975  13.006  0.0254  0.1787  0.1913
24677W        W41524   7.627   6.123   0.058  0.0811 -0.2460 -0.0241
24678W        W41525  13.025   8.649  12.085 -0.0737  0.2657 -0.0285
24679W        W41526  13.131   7.734  13.557 -0.1725  0.1462  0.0378
24680W        W41527  11.303   6.040   3.268 -0.1179 -0.1041  0.0286
24681W        W41528  10.158  17.312   0.204  0.1960  0.2149 -0.1524
24682W        W41529   6.506  12.944  14.736  0.1125 -0.2167  0.2642
24683W        W41530  15.308  13.300  11.751 -0.0604  0.1087 -0.0885
24684W        W41531   3.633   5.579  13.220  0.1674 -0.0048 -0.0017
24685W        W41532   2.488   0.992   1.555  0.2961  0.1045  0.3264
24686W        W41533   6.259   6.032  14.016  0.2145  0.0323 -0.1215
24687W        W41534  17.839  12.771  11.973  0.0611 -0.1974  0.0887
24688W        W41535   1.684   8.308   1.338 -0.0205  0.1708 -0.0840
24689W        W41536  11.517   7.423  14.307  0.0293 -0.2439 -0.1234
24690W        W41537  13.289  13.957   3.974  0.0805  0.3158 -0.3723
24691W        W41538   3.628  17.018   2.871 -0.2874 -0.2812  0.4102
24692W        W41539  13.794  13.565   0.814 -0.3741  0.0532  0.0811
24693W        W41540  11.486   0.284   4.345 -0.2505  0.0829  0.1258
24694W        W41541  14.006  13.925   2.730 -0.1364  0.0010 -0.2949
24695W        W41542   0.424   9.524   1.137  0.4772 -0.6126 -0.1416
24696W        W41543   7.174  15.533  10.661  0.1666  0.0457 -0.0783
24697W        W41544   5.278   1.550   1.849 -0.1742 -0.2255 -0.1002
24698W        W41545   1.046   5.278   3.782 -0.0839  0.2464 -0.2740
24699W        W41546   7.629   9.708   3.343  0.0202  0.2407  0.1228
24700W        W41547  13.891  17.814  11.633 -0.2706  0.0429  0.1376
24701W        W41548   5.774   7.087   0.797 -0.1783 -0.0848 -0.2822
24702W        W41549  12.918  11.468  11.014  0.1881 -0.1020  0.0155
24703W        W41550  12.600  10.031  10.931  0.2791 -0.1316  0.1336
24704W        W41551  16.044   6.428  11.667  0.1527 -0.1114 -0.2319
24705W        W41552  17.792   4.340  14.511 -0.1211  0.1011  0.1886
24706W        W41553   5.821   4.822   0.922  0.0207  0.1766  0.0918
24707W        W41554   2.967   1.142   4.197  0.1771  0.1451  0.0819
24708W        W41555   5.840  10.293   2.750 -0.1887 -0.2080  0.0906
24709W        W41556   3.583  12.629   1.886  0.1466  0.0849 -0.0169
24710W        W41557   0.086   6.370  13.160 -0.0992  0.4385  0.0882
24711W        W41558  17.404  10.170   0.535 -0.1185  0.1022  0.2588
24712W        W41559   6.252   7.166  14.399  0.2042  0.0749 -0.0698
24713W        W41560  16.785   7.785   4.140  0.0345 -0.1458  0.1578
24714W        W41561  11.805  16.883   3.701 -0.1792  0.0511 -0.1117
24715W        W41562   9.113   9.875   2.402  0.3296 -0.0513  0.1866
24716W        W41563  13.850  17.756  11.142  0.1364  0.1989 -0.2109
24717W        W41564   4.961   3.804   1.029 -0.0681  0.0410 -0.0344
24718W        W41565   3.935   9.887  14.086 -0.0520 -0.1957 -0.0320
24719W        W41566  15.860  16.164   0.448  0.1267  0.1356  0.1548
24720W        W41567   1.233  15.571   2.305 -0.2555 -0.0542  0.3279
24721W        W41568   7.873  18.799   1.942  0.1433 -0.1860 -0.1430
24722W        W41569  17.695   6.174   2.476  0.3181 -0.2084  0.0393
24723W        W41570  16.830   1.869  14.371 -0.4883 -0.0225  0.1359
24724W        W41571  13.859   9.499  14.051  0.1120  0.2389 -0.2091
24725W        W41572  18.171   4.907  14.539 -0.1253 -0.0088 -0.1472
24726W        W41573   9.456  13.866  12.141 -0.1561 -0.2133  0.0781
24727W        W41574  13.726  13.649   4.153 -0.2771 -0.0851  0.0359
24728W        W41575  17.561   3.961   4.103  0.1795  0.0941 -0.0096
24729W        W41576   9.151  13.381   1.593 -0.0129  0.0873  0.1467
24730W        W41577  12.288  12.511  12.088 -0.0014  0.1985 -0.1669
24731W        W41578   6.790  10.082   4.502 -0.0679  0.3000  0.0787
24732W        W41579  11.320  11.564  14.579 -0.0980 -0.2298 -0.1592
24733W        W41580   3.092  13.581   2.426 -0.0554 -0.3628 -0.1292
24734W        W41581  10.027  11.550  14.067 -0.0945 -0.3822  0.1845
24735W        W41582   2.482  16.430   2.501 -0.0314  0.2010  0.0597
24736W        W41583   5.783   2.099  13.581  0.0749 -0.0415 -0.0355
24737W        W41584   3.637  17.796  14.397 -0.2625 -0.4562 -0.0487
24738W        W41585   8.912   1.094   3.309 -0.0971  0.1614  0.1757
24739W        W41586   9.665  11.219  13.178  0.1665  0.1111 -0.7302
24740W        W41587   8.293   6.272  10.850  0.4106  0.1030  0.2315
24741W        W41588   4.822   0.731   4.818 -0.0776 -0.0878  0.3435
24742W        W41589  16.928  17.616  12.014  0.0134 -0.0304  0.0817
24743W        W41590  16.712  12.923  12.766  0.0492  0.1310 -0.2319
24744W        W41591  14.805   9.657   5.151  0.3292 -0.3034  0.2107
24745W        W41592   7.654   2.882   2.504  0.3579 -0.5651 -0.1588
24746W        W41593  11.778   5.666   0.281 -0.1249 -0.1788  0.0619
24747W        W41594   6.574   7.568   2.998  0.1889  0.0212 -0.0618
24748W        W41595   9.704   3.200  10.545  0.0628 -0.3180 -0.1743
24749W        W41596  17.101   6.053  13.960  0.0751 -0.0973  0.0168
24750W        W41597  18.903   6.524   2.922  0.1158  0.2495  0.1224
24751W        W41598  13.551   5.902   0.985  0.1262  0.0250 -0.0143
24752W        W41599  16.454   5.464  10.659  0.3271  0.0415  0.0217
24753W        W41600   6.810  12.970   0.308  0.0526  0.0385  0.1088
24754W        W41601   2.554   6.005   3.198  0.1281 -0.1033  0.2080
24755W        W41602  11.972  18.679   1.144  0.0491  0.0452 -0.1120
24756W        W41603  16.038   1.349   0.311 -0.0860  0.1991  0.1878
24757W        W41604  11.065  15.591   5.508  0.1754 -0.0461  0.0594
24758W        W41605  18.830  15.743   4.091 -0.0039 -0.1053  0.0703
24759W        W41606   8.674  10.513  14.047 -0.1534 -0.1221  0.2765
24760W        W41607  10.719   0.060  12.702  0.1099 -0.2961 -0.0299
24761W        W41608  10.524  17.707  11.886 -0.0770 -0.0878 -0.1425
24762W        W41609   5.712  10.078  10.690  0.1816  0.1601 -0.0987
24763W        W41610  13.415  15.584  13.623  0.0030 -0.1254 -0.4017
24764W        W41611  18.122   2.326   0.888 -0.0528  0.1781 -0.2878
24765W        W41612  16.060   4.172   3.247  0.1601 -0.0698  0.0633
24766W        W41613  15.187   1.885   3.674  0.1576 -0.0044  0.2591
24767W        W41614  10.625   0.175   2.932  0.2686  0.4771  0.2578
24768W        W41615  11.685   0.134  14.762  0.1734  0.0286  0.0728
24769W        W41616   4.374   7.154   0.667 -0.3479 -0.1926  0.0224
24770W        W41617  14.541   5.522  12.106 -0.2165  0.1212  0.1520
24771W        W41618  12.775   7.170  12.098  0.0440  0.1308 -0.1963
24772W        W41619   8.563  11.373  11.224  0.2777  0.1964  0.1948
24773W        W41620  13.738   4.766  10.469 -0.1542  0.0422 -0.1123
24774W        W41621   8.954  13.553  13.956  0.3125  0.0444 -0.0249
24775W        W41622  17.187   9.147   4.259  0.1425 -0.1427  0.0826
24776W        W41623  18.955   2.722  12.275 -0.2977 -0.2588 -0.0098
24777W        W41624  14.217   3.061   4.493 -0.2345  0.3379 -0.1424
24778W        W41625  12.667   0.769  10.807  0.1345  0.1523 -0.0753
24779W        W41626  13.058   2.204  11.003  0.2851  0.2318  0.1635
24780W        W41627  15.932   9.144   2.988  0.4258 -0.0557 -0.0126
24781W        W41628  10.442   5.839   2.643  0.0890  0.0714  0.1897
24782W        W41629  17.227  13.263   1.733 -0.4198 -0.0871  0.0750
24783W        W41630  17.314   9.838   3.542 -0.0117  0.1222  0.1913
24784W        W41631   9.006  11.040  13.641 -0.0708  0.2437 -0.1011
24785W        W41632  14.227  15.856   3.602 -0.1054 -0.0600 -0.1899
24786W        W41633   5.056  16.565  10.673  0.1760 -0.0433 -0.1705
24787W        W41634   6.266   1.345  10.185 -0.1845 -0.1172  0.1765
24788W        W41635   8.802  12.498   2.960  0.0811 -0.0779 -0.0974
24789W        W41636   2.338  14.763  14.649  0.0492  0.0206  0.1542
24790W        W41637   7.495  17.679  14.131  0.1237  0.1034 -0.4221
24791W        W41638  10.844  18.379   4.233 -0.1842 -0.0100 -0.1251
24792W        W41639   9.014   0.463  14.765 -0.0350  0.0005 -0.0010
24793W        W41640  16.924   6.531   1.290 -0.2074 -0.2959 -0.1858
24794W        W41641  18.646  13.707   5.078  0.2134  0.0827  0.3464
24795W        W41642   5.592   3.306   4.712  0.3013 -0.0937 -0.0186
24796W        W41643   7.191  18.618   9.634  0.1610  0.1023 -0.1065
24797W        W41644   1.235  13.576  13.535  0.1682 -0.2511 -0.1256
24798W        W41645  17.654   8.722   3.799  0.3915  0.2111  0.2478
24799W        W41646   9.733   6.106  10.425  0.1203  0.0678  0.1728
24800W        W41647   7.984   7.165  14.701 -0.0694 -0.2524  0.0314
24801W        W41648   7.062   7.777  14.246  0.0448  0.1280  0.3749
24802W        W41649   7.229   0.708   0.859 -0.0981 -0.1644 -0.1009
24803W        W41650   3.324   6.431  13.051  0.0500 -0.2374 -0.3811
24804W        W41651  14.837   7.524   3.464  0.0641  0.0454 -0.0723
24805W        W41652   1.911   7.380  11.171 -0.1709  0.2824 -0.2509
24806W        W41653   0.952  13.664   2.328  0.1374  0.0239  0.1880
24807W        W41654  15.792  13.128  12.377 -0.1641  0.1297  0.1438
24808W        W41655  16.726  10.008  12.735  0.0115 -0.0995  0.1122
24809W        W41656  14.963  16.458   2.410  0.3201  0.0983  0.0668
24810W        W41657   5.280  17.537   5.348  0.0087  0.0286  0.1140
24811W        W41658   2.025   0.026   4.419  0.2026  0.0678  0.0463
24812W        W41659  15.457  13.946  11.512  0.3651  0.2573 -0.2250
24813W        W41660   0.525   8.481   5.287  0.0968  0.3566 -0.1378
24814W        W41661   7.966  14.269  13.483 -0.0351  0.1483 -0.2243
24815W        W41662  12.007  17.921  14.087  0.3238 -0.0240 -0.3422
24816W        W41663  16.555   2.701  10.674 -0.2607 -0.1662  0.0304
24817W        W41664   0.999   0.728   1.652 -0.1067  0.2119 -0.1058
24818W        W41665  16.459  11.400  12.382  0.0777 -0.2321  0.2962
24819W        W41666  15.490   2.197   1.406  0.2811  0.0798  0.1747
24820W        W41667   4.851   1.434  10.698  0.1922 -0.0568  0.3816
24821W        W41668   5.013   0.851   4.253  0.0466 -0.0097 -0.0537
24822W        W41669   8.765   2.367   0.182  0.1394 -0.2352  0.0196
24823W        W41670  17.111  13.491  13.855 -0.4565 -0.0934  0.4943
24824W        W41671   4.496  18.126   4.689 -0.2825  0.0326 -0.1974
24825W        W41672   1.564   6.590   3.936  0.6808 -0.1941 -0.0732
24826W        W41673  13.392   2.896  12.483  0.1629 -0.5128 -0.1292
24827W        W41674   2.534  17.938  10.763  0.0398 -0.1472  0.2438
24828W        W41675  16.987   6.533   5.614  0.0739  0.3676  0.3378
24829W        W41676   6.955   1.766   2.230  0.1895 -0.2562 -0.0550
24830W        W41677   0.310  11.746   1.804 -0.1441  0.0279  0.0337
24831W        W41678   2.091   2.694   1.258  0.0261  0.1468 -0.0601
24832W        W41679  19.214  15.481   1.408  0.2216  0.0353  0.0625
24833W        W41680  12.012  10.016  11.587 -0.1026 -0.0961 -0.0619
24834W        W41681  12.472   0.933   0.235 -0.1646  0.3303 -0.2199
24835W        W41682   8.372  13.401  12.943  0.0802 -0.0361 -0.0885
24836W        W41683   4.186   5.734   1.751  0.0280 -0.0518 -0.0584
24837W        W41684  18.495   0.350   0.924  0.0219 -0.1795 -0.1480
24838W        W41685   4.402  10.856   2.945 -0.3634  0.0887  0.0058
24839W        W41686  13.113  13.265   5.665 -0.4197 -0.0076  0.1889
24840W        W41687   7.832   5.018  10.993 -0.2205 -0.2165  0.2023
24841W        W41688  16.103  13.229  11.230  0.0149  0.0339 -0.0189
24842W        W41689   8.021   8.066   0.142 -0.0467 -0.0709  0.2580
24843W        W41690   6.776  11.414   4.412  0.2294  0.0722 -0.0107
24844W        W41691  11.038  17.541   2.641  0.1767 -0.2446  0.1299
24845W        W41692  17.768  14.892   3.199 -0.1002  0.1555  0.0552
24846W        W41693  18.772  18.905   1.630  0.3376 -0.0214 -0.0598
24847W        W41694  16.029   3.121  11.765  0.1916  0.1296 -0.2986
24848W        W41695   2.036  14.377   2.739  0.1240 -0.1446 -0.0874
24849W        W41696   2.992  14.457  12.156 -0.0028 -0.2828 -0.2413
24850W        W41697   0.112  11.366  12.944  0.3374 -0.2043 -0.0599
24851W        W41698  10.460   0.353   2.410 -0.1964  0.0388 -0.1010
24852W        W41699  10.652   1.016   3.578 -0.1186 -0.0104 -0.0740
24853W        W41700  18.101  17.939   1.222 -0.0151  0.1029  0.0120
24854W        W41701   2.316  13.607   2.959  0.2268  0.0924 -0.0093
24855W        W41702  10.258  13.701  11.325 -0.1817  0.0930 -0.2999
24856W        W41703   9.334  12.127   0.870  0.1942 -0.0238 -0.1612
24857W        W41704   5.320   1.152  14.528 -0.1151  0.1758 -0.1461
24858W        W41705   7.830  17.325  14.864 -0.1064  0.0332  0.0652
24859W        W41706   4.128  16.265   4.831 -0.0234 -0.0151  0.0406
24860W        W41707  19.216  10.942  14.923  0.0622 -0.2672 -0.0344
24861W        W41708  10.428  14.973   1.488  0.0023 -0.1933  0.4239
24862W        W41709  15.411   9.940   4.298  0.1345 -0.0835 -0.1260
24863W        W41710  16.821  15.163  13.393 -0.2595  0.4191 -0.1654
24864W        W41711  18.053  16.906   1.072 -0.3623 -0.0465 -0.0438
24865W        W41712   5.854  12.131  11.485  0.4076 -0.2009  0.2193
24866W        W41713  11.533  10.510  14.851  0.1196 -0.3154  0.3515
24867W        W41714  15.119  10.813   5.664 -0.0662  0.0572 -0.2616
24868W        W41715   8.111   5.342   1.121  0.2088  0.1049 -0.1789
24869W        W41716  13.226   4.089  11.006  0.0080  0.1623  0.1393
24870W        W41717  16.938   5.480   1.783 -0.0706  0.0009 -0.0934
24871W        W41718   5.652  17.111  12.277 -0.2224 -0.0324 -0.1137
24872W        W41719   9.192   8.674   1.125 -0.1549 -0.2964  0.3434
24873W        W41720   8.734  13.027   1.897 -0.1930 -0.0313 -0.0636
24874W        W41721   8.086  11.127   9.352 -0.1201 -0.0828 -0.0312
24875W        W41722  15.610   2.101   3.896 -0.0498  0.0669  0.1552
24876W        W41723  16.230   3.357  12.614 -0.0825 -0.1212 -0.3914
24877W        W41724  13.561  14.083   1.082 -0.0945  0.1551  0.0324
24878W        W41725  15.359  12.932  12.143  0.2538  0.5563  0.2163
24879W        W41726  16.826  16.923   3.797 -0.1333  0.0874 -0.1907
24880W        W41727   2.700  11.812  14.970  0.1512 -0.2329  0.3416
24881W        W41728  18.404   9.322   1.966  0.1566 -0.4702 -0.2782
24882W        W41729  19.257   1.435   9.562 -0.0424  0.1401  0.1918
24883W        W41730   5.078   3.227   2.449 -0.0830 -0.3805  0.0991
24884W        W41731  14.658  14.922  12.966  0.1187  0.1701 -0.3360
24885W        W41732   8.821  11.761  11.832 -0.1796  0.2529 -0.0639
24886W        W41733  17.431  18.275  10.781 -0.3048 -0.2331 -0.0608
24887W        W41734   0.566  13.649  12.595  0.1399  0.2425  0.0711
24888W        W41735   4.775   6.461  10.681  0.0467 -0.4223  0.1966
24889W        W41736  10.608  10.313   1.686 -0.1076 -0.3060  0.2643
24890W        W41737  10.770   4.300  13.502  0.0939 -0.2108 -0.1420
24891W        W41738   2.556  18.376  12.622  0.0951  0.1129 -0.0041
24892W        W41739   1.403   2.247  14.612 -0.2252  0.0675 -0.2986
24893W        W41740   3.767   4.883  12.484  0.1213  0.0133 -0.0185
24894W        W41741   2.938   0.518   5.855  0.0694 -0.0502  0.0757
24895W        W41742   8.686  18.435   4.384 -0.2180  0.1302 -0.0208
24896W        W41743  18.313   8.748   3.264 -0.0368  0.1462 -0.1182
24897W        W41744  17.548  16.326  13.108 -0.0542 -0.1392  0.0972
24898W        W41745  10.043   8.183  12.474  0.2251  0.0124  0.0863
24899W        W41746  18.326  18.562  10.075 -0.1700 -0.0866 -0.1108
24900W        W41747  17.740   4.577  10.746 -0.0960  0.1857  0.0031
24901W        W41748   3.989   9.722   2.048  0.0528  0.0435  0.1764
24902W        W41749   8.793  15.602   3.127  0.3282  0.0466  0.2314
24903W        W41750   7.815   7.122  11.842  0.0978 -0.0720  0.1121
24904W        W41751   2.170   1.348   4.540  0.0748  0.0934 -0.0155
24905W        W41752  17.450   7.084  14.016  0.0794 -0.2385 -0.1033
24906W        W41753  17.279   0.941  13.562  0.1384 -0.2547  0.0004
24907W        W41754  14.787   1.518   4.133  0.0247 -0.0192  0.2529
24908W        W41755   6.341   5.921  13.374 -0.2151  0.0072  0.0197
24909W        W41756  18.170  18.806  12.722  0.2156 -0.0512  0.0304
24910W        W41757  13.906   1.943  12.893 -0.0527 -0.2188 -0.2399
24911W        W41758   4.540   5.800   3.704 -0.2031 -0.0957 -0.4983
24912W        W41759   8.922   8.515  14.819  0.1964  0.2150 -0.0986
24913W        W41760   0.957   4.749  11.293  0.0722  0.0725  0.2037
24914W        W41761  13.143  14.428   2.559  0.2305  0.0014  0.0236
24915W        W41762   3.686   1.701   4.887  0.0035 -0.0119 -0.0543
24916W        W41763  16.785   3.280   4.280  0.0963 -0.0094  0.1841
24917W        W41764   3.964  17.477   2.216  0.0284 -0.1301 -0.1849
24918W        W41765   4.358   3.237   3.482  0.1251  0.3148 -0.1435
24919W        W41766   1.337   8.548  12.478  0.1136 -0.0321  0.1311
24920W        W41767  11.012  12.099   0.170  0.0399  0.2815 -0.1039
24921W        W41768  18.615  15.071   1.085 -0.1188 -0.2898 -0.0224
24922W        W41769  13.472   6.347   0.730  0.2606  0.0414 -0.2176
24923W        W41770  12.110   6.410   2.096  0.1537  0.1520  0.4487
24924W        W41771  10.744  17.986   2.315  0.2746 -0.3496  0.0688
24925W        W41772   6.586  16.691   2.294 -0.2248  0.0961  0.2475
24926W        W41773   5.463  13.479   0.655 -0.2195 -0.0561  0.1668
24927W        W41774   1.644  10.929  13.584 -0.1040  0.4827  0.0827
24928W        W41775   5.088  15.612   1.560  0.1971 -0.2459  0.0642
24929W        W41776  15.733   2.246  12.505  0.0256  0.2502  0.1805
24930W        W41777  12.469  17.315   6.601  0.0243  0.1705 -0.0209
24931W        W41778  11.222   0.220  14.509  0.1362 -0.2418 -0.0261
24932W        W41779  13.471   2.745  13.758  0.0637  0.2043 -0.2489
24933W        W41780   8.719  18.094  12.914 -0.0028  0.0906 -0.1965
24934W        W41781   8.938   9.144  10.958  0.0951  0.1207  0.1495
24935W        W41782   9.630   1.195   0.542 -0.2697 -0.3029  0.1569
24936W        W41783   6.326   4.447  13.580 -0.1659 -0.4082  0.0420
24937W        W41784  13.892   2.554  14.077  0.4091 -0.0685 -0.2893
24938W        W41785   7.069   8.076  14.985  0.2564 -0.2342  0.1170
24939W        W41786  10.793   6.170   1.962  0.0538 -0.0046  0.0756
24940W        W41787   3.053   2.846  10.202  0.1802 -0.3177  0.1993
24941W        W41788   1.416  16.348  10.883 -0.0256 -0.1692 -0.1323
24942W        W41789  12.596   0.012  11.907  0.3173 -0.1660 -0.2957
24943W        W41790  18.684  10.793  14.984  0.0730 -0.0149 -0.2383
24944W        W41791  15.519  18.187   1.029 -0.3659  0.0790 -0.1965
24945W        W41792   6.064   1.037   2.365 -0.0074 -0.0516 -0.2246
24946W        W41793   2.098   7.503   4.940  0.1041 -0.3141  0.1533
24947W        W41794   6.132   2.259   2.653  0.0975  0.1585 -0.1876
24948W        W41795  11.157  13.374   5.406  0.0962 -0.1187 -0.1273
24949W        W41796  14.760   7.212   0.320 -0.2788 -0.4340  0.0039
24950W        W41797   7.906   8.761  11.400 -0.4783  0.1459 -0.2118
24951W        W41798   1.030   3.877   2.531  0.0823  0.2111  0.2225
24952W        W41799  15.986  12.542  11.591 -0.2372  0.0434  0.2497
24953W        W41800  16.171   4.650  12.444  0.2299  0.1140 -0.2508
24954W        W41801  16.999  11.652  10.602  0.1189  0.0789  0.1310
24955W        W41802   5.080   5.251   1.838 -0.2151  0.5196 -0.1188
24956W        W41803   1.379  18.345  14.869  0.0369  0.2438  0.0727
24957W        W41804  11.571  15.084  11.514 -0.1174 -0.0660  0.0107
24958W        W41805   9.391   7.453  10.905  0.2136  0.0501  0.0889
24959W        W41806   8.217  12.897  13.622 -0.1347 -0.0211  0.0196
24960W        W41807  14.696   4.885  10.642 -0.2957 -0.0229 -0.1467
24961W        W41808   7.399   1.096   4.048 -0.0248 -0.1538 -0.1827
24962W        W41809  11.156   0.918  11.897 -0.2483 -0.0751  0.2122
24963W        W41810  11.340   0.273   2.642  0.1066  0.1659  0.0139
24964W        W41811  13.591   2.433   2.269  0.1648  0.4354 -0.0051
24965W        W41812  10.976  11.525   0.487  0.0560  0.0932  0.1269
24966W        W41813  17.436   6.675   5.721 -0.2788 -0.1390  0.5160
24967W        W41814  10.655   0.840  11.094 -0.0406 -0.1460 -0.2512
24968W        W41815   7.280   8.809   1.614 -0.0882  0.1607 -0.0991
24969W        W41816   6.033   8.841  13.235 -0.1097  0.2181  0.1021
24970W        W41817  11.811  13.582  13.084 -0.4508 -0.1599  0.0094
24971W        W41818  10.573  16.355  11.708  0.0165 -0.0767 -0.0746
24972W        W41819   0.708  14.822  11.971 -0.1206  0.0330  0.0080
24973W        W41820  10.383   7.305   4.768  0.0518  0.1256 -0.1315
24974W        W41821  12.707   4.455  12.748 -0.0240 -0.0891 -0.2606
24975W        W41822  17.916   8.236  11.045 -0.0845 -0.0245  0.0451
24976W        W41823   8.472  15.055   1.073 -0.1251 -0.2377 -0.2201
24977W        W41824  11.491   2.416  11.061  0.0969 -0.3563 -0.2708
24978W        W41825   3.725  12.205  11.491  0.1494  0.0044  0.1343
24979W        W41826  14.514  17.462   3.630  0.5058 -0.0410  0.0728
24980W        W41827  10.813   3.735   2.459  0.1411  0.0632  0.3292
24981W        W41828  11.032   9.636   2.276 -0.1686  0.1017 -0.0396
24982W        W41829  10.405  10.692   4.653 -0.1783  0.2621  0.1651
24983W        W41830  15.057   7.342   1.477 -0.0174  0.1004  0.0153
24984W        W41831  14.974   9.555   0.887 -0.1795 -0.0971 -0.0320
24985W        W41832  16.384  17.409   4.594 -0.0670  0.0011  0.3405
24986W        W41833   6.299  14.023  11.971 -0.0252 -0.5149 -0.0659
24987W        W41834  18.105   1.193   2.806  0.0752 -0.0558 -0.1587
24988W        W41835  18.590  16.611  13.476  0.0960  0.1625 -0.1773
24989W        W41836  10.962  12.779  13.494 -0.1725  0.4349  0.1450
24990W        W41837  13.987   1.050   3.364  0.2625  0.1399 -0.1614
24991W        W41838   2.618  18.871   3.242  0.3806  0.0178 -0.1196
24992W        W41839   8.284   3.990  10.046 -0.1031 -0.1475  0.3143
24993W        W41840  14.471  11.768  10.686 -0.2197 -0.0730  0.2707
24994W        W41841   6.815   4.699  12.613  0.0381  0.1787  0.1932
24995W        W41842   1.868   6.869   5.592  0.2048 -0.3785 -0.3206
24996W        W41843   7.662  11.289   9.992 -0.0537 -0.1457 -0.5359
24997W        W41844   1.871  14.333  13.309 -0.1283  0.2416  0.2416
24998W        W41845   1.934  18.817  14.179  0.3461 -0.2680 -0.0243
24999W        W41846   3.036   1.068   1.255  0.1245 -0.1763 -0.0499
25000W        W41847  13.325   5.987  12.367  0.0647  0.2940  0.0794
25001W        W41848   7.494   9.315   4.095 -0.0322  0.2389  0.0061
25002W        W41849  14.519  17.168  10.363 -0.0172 -0.0898  0.1661
25003W        W41850  17.881   1.081  12.923 -0.1007 -0.0064 -0.0050
25004W        W41851  11.222  13.178  13.591 -0.1127  0.1593  0.0046
25005W        W41852  13.604   9.168  10.957  0.0150  0.1113  0.2063
25006W        W41853   0.879   9.147   0.415  0.1068 -0.2844 -0.1654
25007W        W41854   7.592   6.372   3.889 -0.0676  0.1199  0.2464
25008W        W41855   9.012   6.059   3.929  0.2573  0.0455  0.0812
25009W        W41856   0.089   5.386  11.637  0.1713 -0.2015 -0.2969
25010W        W41857  10.103   5.769   4.450  0.1585 -0.5309  0.1307
25011W        W41858  17.332  11.044   0.500 -0.1371  0.0737 -0.1068
25012W        W41859   2.045  17.927  10.531  0.0999 -0.0775  0.1517
25013W        W41860  15.765  13.719   0.513  0.1893 -0.0759  0.1502
25014W        W41861   5.795  14.052  11.135 -0.0843  0.1703 -0.0823
25015W        W41862  11.657  11.627   2.362  0.0821  0.0335  0.1093
25016W        W41863   4.551   2.776   3.534  0.2289 -0.2130  0.0432
25017W        W41864  13.586  11.999   4.273 -0.1108  0.1479 -0.1517
25018W        W41865   6.314  13.637  13.210 -0.3402  0.2501 -0.0812
25019W        W41866  16.057  13.242  10.667 -0.0031 -0.2739 -0.0119
25020W        W41867  14.787  13.965   1.936 -0.1157 -0.0945 -0.2374
25021W        W41868   6.093  11.263  14.181 -0.1550 -0.2819  0.0683
25022W        W41869   7.796   0.028   0.651 -0.0155  0.0962 -0.1121
25023W        W41870   1.924   0.699   3.752  0.1493  0.0582  0.2156
25024W        W41871   0.403   5.129  12.009  0.3883  0.0282  0.1375
25025W        W41872   1.245  12.924  14.846  0.1446 -0.1727 -0.0762
25026W        W41873  10.041  14.239  13.365  0.0526 -0.0383 -0.0951
25027W        W41874  18.228   5.066   3.885  0.2226  0.0536  0.1349
25028W        W41875  14.560  13.466   0.443 -0.4394  0.2556  0.1989
25029W        W41876   4.838  10.700   2.341  0.1281  0.1233  0.2832
25030W        W41877   0.292   0.161   2.837 -0.0440  0.5025  0.5601
25031W        W41878   1.542   2.194  10.826 -0.2786 -0.2085  0.2484
25032W        W41879   6.545  11.956   4.334  0.0040  0.0771  0.1210
25033W        W41880  16.207   9.753  13.131 -0.4404  0.1021 -0.0028
25034W        W41881   1.325   7.830  12.941 -0.3211 -0.0118 -0.4172
25035W        W41882  12.115  10.172  14.917 -0.0204  0.0961 -0.1417
25036W        W41883  17.916   5.334  12.345 -0.1492 -0.3257 -0.0122
25037W        W41884   4.784  13.146  11.752 -0.2967  0.0416 -0.1813
25038W        W41885  15.558   3.125   1.602 -0.1246 -0.1537  0.1132
25039W        W41886  12.684  15.441  13.580 -0.0795  0.0168 -0.1023
25040W        W41887   1.311  15.886   4.576  0.4309 -0.0782 -0.0106
25041W        W41888  16.563   3.803   2.025 -0.2533  0.0668  0.1552
25042W        W41889   8.870  12.887  10.064 -0.2570 -0.0448 -0.2879
25043W        W41890  15.275  12.330  10.611 -0.1349 -0.0825  0.0173
25044W        W41891   2.804  16.318  12.652  0.2556  0.1309  0.0497
25045W        W41892  12.654   2.431   3.722  0.2596  0.0705 -0.2341
25046W        W41893  10.499   4.245   4.056  0.1575  0.3649  0.1933
25047W        W41894  13.941   8.795   1.707  0.1286 -0.3165  0.0469
25048W        W41895   2.366  10.151  11.741 -0.2541 -0.2556  0.3492
25049W        W41896   0.353  14.961   0.383  0.1383 -0.1187  0.0633
25050W        W41897   3.102   3.899   2.957  0.2851  0.2469  0.0891
25051W        W41898   6.015   6.961   4.401  0.1756 -0.0562  0.0532
25052W        W41899   9.362  13.640   1.953  0.1894  0.1563 -0.1367
25053W        W41900   1.147  10.950   2.459 -0.0158 -0.0088  0.0032
25054W        W41901   8.925   5.012  12.807 -0.2813 -0.1198  0.1739
25055W        W41902   9.646   1.111  14.992 -0.2398  0.1785  0.1751
25056W        W41903   9.815  17.780  13.407 -0.2478  0.3392 -0.0260
25057W        W41904   3.362  13.207  14.244 -0.0422 -0.0600  0.0301
25058W        W41905   2.945  10.395   3.758  0.1022  0.1132 -0.0925
25059W        W41906   0.742   6.773   1.170  0.1497 -0.0398 -0.0132
25060W        W41907   1.623   4.982  14.866  0.1268 -0.2154 -0.0115
25061W        W41908  15.194  12.346   3.484 -0.2612  0.2324 -0.0549
25062W        W41909  16.815  18.563  13.685  0.1362  0.0435  0.0720
25063W        W41910   4.590  13.341  13.714  0.2699 -0.1061  0.4379
25064W        W41911  10.346  17.959   1.755  0.1537 -0.0343 -0.0645
25065W        W41912   1.244  17.463  13.619 -0.4150 -0.1229  0.0856
25066W        W41913  11.750  13.110  12.336 -0.1439 -0.4107  0.2204
25067W        W41914   9.932   0.918   1.544  0.2848  0.0227  0.0622
25068W        W41915  16.739  14.612  14.231  0.1330  0.0491  0.0649
25069W        W41916  17.733  14.560   0.201  0.4062 -0.0079 -0.1878
25070W        W41917  10.404  11.866  13.220 -0.0591  0.1561 -0.3356
25071W        W41918  16.956  18.215  14.606 -0.0264  0.1897 -0.1582
25072W        W41919   5.543  12.935  13.119 -0.0873  0.2072 -0.1399
25073W        W41920   0.618  14.094   2.150  0.0344 -0.1556  0.1831
25074W        W41921   4.333   8.340   1.258  0.1181  0.0377 -0.0354
25075W        W41922   1.287  14.312  11.710  0.1398 -0.0483 -0.2085
25076W        W41923   4.814  14.733   4.103  0.0414  0.1308  0.2160
25077W        W41924   7.530  12.617  11.992  0.1622  0.0713  0.2282
25078W        W41925   8.478  16.073  13.617 -0.1745  0.1874 -0.1281
25079W        W41926   9.746  15.764   3.492 -0.0727  0.1349  0.0448
25080W        W41927  12.915  10.015  12.498  0.0032  0.0494 -0.1975
25081W        W41928   7.420  12.414  11.528 -0.0046 -0.0563 -0.2208
25082W        W41929   5.156   8.567   1.009  0.2701 -0.1456  0.1005
25083W        W41930   4.092  12.008  14.178 -0.0292  0.0133  0.2605
25084W        W41931   4.881  13.212  12.295  0.0457  0.0217  0.2235
25085W        W41932   2.959   0.667  12.463  0.1967  0.1282  0.3452
25086W        W41933   2.873   9.271  11.937 -0.3730 -0.1516 -0.2379
25087W        W41934   1.113   4.379   3.013 -0.2142 -0.1805 -0.0561
25088W        W41935  10.059   0.928  12.688 -0.1307  0.1467 -0.2840
25089W        W41936   2.752  11.570  14.194 -0.2232  0.0437 -0.0982
25090W        W41937   4.557   9.221  14.052 -0.3420 -0.0240 -0.3245
25091W        W41938   9.210   7.783  11.967  0.3657 -0.2539 -0.2790
25092W        W41939  10.310   0.013   3.263  0.0588  0.2331  0.0290
25093W        W41940   1.959  18.115   3.906  0.0007  0.3183 -0.2574
25094W        W41941  12.782  13.253   3.893  0.2850 -0.0853 -0.6130
25095W        W41942   5.753   9.059   0.528 -0.3225 -0.1291  0.0787
25096W        W41943  10.510  10.955  11.454 -0.2028 -0.1951  0.1679
25097W        W41944   4.618   3.942  11.732 -0.0454  0.1957  0.7765
25098W        W41945   1.120  13.853  14.798  0.1415  0.0361  0.0659
25099W        W41946   1.204  18.773   3.516  0.0912  0.3420 -0.1411
25100W        W41947  18.088  16.225   5.276  0.0287  0.0463 -0.0158
25101W        W41948  11.690   9.167  11.612 -0.0883  0.1277 -0.0383
25102W        W41949   3.276   6.158   1.550  0.2089 -0.4158  0.0268
25103W        W41950  10.127   7.478  11.565 -0.2278 -0.1154  0.1251
25104W        W41951  18.095   4.464   1.695 -0.3694  0.1135 -0.1144
25105W        W41952  17.772  14.379  11.541 -0.1897  0.2982  0.3489
25106W        W41953   9.720  14.023   2.734  0.1836  0.1911  0.2625
25107W        W41954   2.154   2.041  14.873 -0.2913 -0.2510 -0.0108
25108W        W41955   6.999   3.177  13.172 -0.0735 -0.0565 -0.1348
25109W        W41956  19.025  16.671   4.302  0.1116  0.2355 -0.2381
25110W        W41957   2.419  13.309  13.017 -0.2083 -0.2042  0.0422
25111W        W41958  15.766  17.937  11.207 -0.0243  0.0713 -0.4668
25112W        W41959  17.519  12.061   0.394 -0.0764 -0.4061  0.1251
25113W        W41960  14.225   2.900   2.820 -0.2862  0.1800  0.2432
25114W        W41961   6.524  11.231  14.447 -0.2339 -0.3757  0.2021
25115W        W41962  15.318   6.851  13.399 -0.1038 -0.0898  0.2293
25116W        W41963   6.104  14.814   3.666  0.1039 -0.0275  0.0528
25117W        W41964   4.776  12.731   1.162  0.0191  0.0875  0.3038
25118W        W41965   5.987  16.057   3.673  0.0643  0.1735  0.1537
25119W        W41966  14.355   8.709  12.225 -0.1815 -0.1287  0.3022
25120W        W41967   0.659  10.936   0.489 -0.2941  0.1389 -0.3123
25121W        W41968  18.548  15.405  13.117  0.1592 -0.0149  0.1352
25122W        W41969   4.283  11.092  10.621  0.1147 -0.0126 -0.2393
25123W        W41970   8.909  11.910  12.767 -0.1346  0.1059  0.0390
25124W        W41971   1.311  18.374  14.419 -0.0783 -0.0849 -0.0062
25125W        W41972   2.692   6.815   4.640 -0.0638 -0.1275  0.1243
25126W        W41973  18.731  10.969  14.148  0.1702  0.0456  0.1677
25127W        W41974   5.496   4.325   5.632  0.1769  0.1742  0.0325
25128W        W41975   3.786  14.681   2.950  0.0840 -0.2592  0.2656
25129W        W41976   0.789  13.348   9.715 -0.1654  0.3045  0.2434
25130W        W41977   7.865   1.106  11.339  0.3456  0.0781 -0.0721
25131W        W41978  15.701   8.904   1.109 -0.0118 -0.2323  0.3129
25132W        W41979   7.456  16.920  12.276  0.0530  0.0285  0.1721
25133W        W41980  17.791  16.330  14.205 -0.3885  0.4736  0.1193
25134W        W41981  10.795   2.977   1.659  0.0052 -0.0074 -0.0420
25135W        W41982   2.331   4.348   1.671  0.0172  0.0781 -0.0699
25136W        W41983   1.215   7.392   4.112 -0.1959  0.1598  0.0436
25137W        W41984  14.048   5.939   1.492 -0.2527  0.0464 -0.1989
25138W        W41985  17.230   8.435   2.770 -0.2224  0.2545 -0.1191
25139W        W41986  15.024   1.761  14.009 -0.1463  0.0570 -0.0606
25140W        W41987  18.316  13.797  14.282  0.1085  0.2180 -0.0932
25141W        W41988  14.767   1.481   1.400 -0.1655  0.1562  0.0079
25142W        W41989  13.120   6.618   4.660 -0.1362  0.2112  0.3126
25143W        W41990   0.234  12.368   0.593 -0.3159 -0.2729 -0.4028
25144W        W41991   3.586  14.710   4.191 -0.1777  0.3561  0.2383
25145W        W41992   5.400  13.454   3.976 -0.0740 -0.0681  0.1650
25146W        W41993  17.496   6.398   0.516  0.0609 -0.0797 -0.1235
25147W        W41994   6.646   0.353   2.539  0.0683  0.1086  0.0684
25148W        W41995   1.084  13.746  11.299 -0.1500  0.0006 -0.2330
25149W        W41996  16.252   5.833  11.801 -0.0449 -0.1536  0.1648
25150W        W41997  12.848  12.888  10.768 -0.1173  0.1923 -0.2554
25151W        W41998   7.070  12.495   0.461 -0.2508  0.0712 -0.0097
25152W        W41999  17.088   1.036   2.804 -0.0440 -0.0917 -0.1698
25153W        W42000  15.745   9.578  10.179  0.0660 -0.1734 -0.0982
25154W        W42001   0.364   9.534   2.534  0.1152 -0.1018  0.0247
25155W        W42002   3.853  11.800   0.809 -0.0284 -0.0102  0.2271
25156W        W42003  12.005   7.076  12.138  0.2269 -0.4936  0.0637
25157W        W42004  19.086   6.203  14.650 -0.1591 -0.0787  0.2113
25158W        W42005   6.110   5.592   5.108 -0.1595  0.0713  0.0531
25159W        W42006   0.545  18.490  13.986 -0.1582  0.1954  0.1657
25160W        W42007   9.538   1.697  11.942 -0.0126  0.0028  0.1277
25161W        W42008  15.444   4.650  12.611  0.0663  0.2340 -0.0901
25162W        W42009  14.938   4.735  12.108  0.3279 -0.1650 -0.0434
25163W        W42010  14.261  12.723   1.084  0.1976 -0.0518  0.0565
25164W        W42011  16.229  18.867  11.290  0.0679 -0.1112 -0.2779
25165W        W42012  10.363  11.883   0.792 -0.0488 -0.0213 -0.1151
25166W        W42013  17.923   8.874   4.802 -0.0877 -0.1189 -0.0765
25167W        W42014   2.350  17.206   9.362  0.0603  0.0054  0.1172
25168W        W42015  18.519   1.878   5.605 -0.1588  0.1186 -0.0999
25169W        W42016  16.352  13.020  12.368  0.2080 -0.0296  0.1156
25170W        W42017   6.047  14.444  12.254  0.1781 -0.3492  0.1058
25171W        W42018  16.213   3.090  10.691 -0.1144  0.1626  0.1834
25172W        W42019   7.200  12.738  11.168 -0.0906  0.1186  0.1392
25173W        W42020   8.865   2.070   4.921  0.0054  0.2270 -0.0389
25174W        W42021  16.810   4.764  14.980 -0.0881  0.2094 -0.3079
25175W        W42022   7.356  13.116   0.107  0.1292 -0.0657  0.0036
25176W        W42023   5.201   0.766  11.239  0.2120  0.1123  0.1618
25177W        W42024  11.407  17.815   0.906 -0.2143 -0.1033 -0.1158
25178W        W42025   6.595   0.037   2.045 -0.0792  0.1938 -0.0846
25179W        W42026  14.958  11.199   3.871  0.1119  0.2848  0.0387
25180W        W42027  12.025  17.938   5.506  0.3209  0.2331  0.2712
25181W        W42028   0.156  18.533   1.477  0.0861  0.0815 -0.0646
25182W        W42029   1.988   2.150  13.536 -0.1426  0.0420  0.0529
25183W        W42030   9.767   7.002  14.664  0.0038  0.2516 -0.1929
25184W        W42031  18.756  14.741  11.807  0.2042  0.1752 -0.0644
25185W        W42032   7.677   2.659  14.242 -0.0084 -0.2845 -0.2116
25186W        W42033  17.409  10.274  10.716 -0.2979 -0.0084  0.1270
25187W        W42034   4.007  12.086  12.332 -0.0920 -0.0543  0.0575
25188W        W42035   8.192   6.898  12.232 -0.0889 -0.0609  0.1018
25189W        W42036   8.727   5.074   1.908 -0.0551  0.1410  0.1261
25190W        W42037   0.309  11.175   2.809 -0.1850 -0.3015  0.4006
25191W        W42038  13.566  17.746  12.707 -0.1325  0.1769 -0.2077
25192W        W42039  12.317  14.001   4.222 -0.2704  0.0189  0.0198
25193W        W42040  10.658  14.984  11.470  0.0338 -0.1540 -0.0251
25194W        W42041   8.753   7.602  10.169 -0.2555  0.0984  0.0147
25195W        W42042   5.413  18.150  10.486 -0.0428  0.1181 -0.0144
25196W        W42043  15.054   8.984   4.251 -0.0043 -0.0544 -0.0085
25197W        W42044  15.416  14.084  13.523 -0.1578  0.1864 -0.2947
25198W        W42045  15.700  17.610  13.636 -0.3225 -0.0366 -0.2494
25199W        W42046  18.586   9.154  14.161  0.4843 -0.0135 -0.0985
25200W        W42047  16.953   7.724   4.831  0.2634  0.0429  0.1016
25201W        W42048  10.586  18.244   3.810 -0.0629 -0.1492 -0.0288
25202W        W42049   0.199   5.310   2.670 -0.3483 -0.0572 -0.0665
25203W        W42050   5.360   5.113   1.195 -0.0572 -0.0046  0.2421
25204W        W42051  13.090  18.213  11.785 -0.2429  0.0668  0.0248
25205W        W42052   6.777   7.320   3.383 -0.0019  0.0523 -0.2549
25206W        W42053  14.411   0.107  14.707  0.4208  0.2302 -0.2485
25207W        W42054   6.992  19.225  11.635  0.0422 -0.3289  0.0978
25208W        W42055  11.276   9.112  13.483 -0.1539  0.4346 -0.0435
25209W        W42056   9.576  11.837  13.425 -0.1472 -0.1787  0.1672
25210W        W42057  14.134  12.808  14.278  0.2254 -0.0480 -0.0675
25211W        W42058   6.074   9.144  11.259 -0.0695 -0.3062 -0.1465
25212W        W42059  12.769   7.589   2.634 -0.0086  0.2883 -0.2164
25213W        W42060  14.877   3.179   2.180  0.0746  0.1039  0.0162
25214W        W42061   9.743   9.244  11.319  0.0392  0.2534 -0.0697
25215W        W42062  16.745   9.728  12.289 -0.0914  0.0518  0.2173
25216W        W42063  14.853  16.903   1.346 -0.0598  0.1120 -0.0256
25217W        W42064   0.710   9.102  13.274 -0.0651 -0.2533 -0.0931
25218W        W42065   1.270  15.512   3.794  0.0567 -0.1121  0.2638
25219W        W42066   3.751  12.672   4.816 -0.1594 -0.3593  0.2493
25220W        W42067   9.211  12.784  14.654  0.0781  0.1475  0.1972
25221W        W42068   0.259  14.363  11.073  0.0019 -0.2960  0.0801
25222W        W42069  12.805   2.705   3.312  0.0181 -0.1148  0.2633
25223W        W42070  10.082  12.396  12.656  0.1694 -0.2023  0.0246
25224W        W42071  11.703  16.206   2.230 -0.0177  0.0414  0.1553
25225W        W42072  11.006  15.680   4.429  0.0826  0.1026 -0.0246
25226W        W42073  15.911   7.924   1.561  0.1010 -0.1071 -0.1325
25227W        W42074  13.196  13.921  14.540  0.0352 -0.0156  0.0957
25228W        W42075   2.137   7.277   4.206  0.2587  0.0739  0.1471
25229W        W42076   9.795  11.323  13.665  0.0247  0.0279  0.0111
25230W        W42077   0.643   5.496   3.377  0.2881 -0.0915 -0.3742
25231W        W42078   1.880  13.356  12.797  0.0913 -0.1054  0.0933
25232W        W42079  10.755  13.869  11.424 -0.0605  0.1498 -0.0318
25233W        W42080  18.934  13.203   3.352  0.1398 -0.1982  0.0833
25234W        W42081   4.962   2.753   2.561  0.2984 -0.2098 -0.0712
25235W        W42082   5.164   3.125  12.435  0.0485 -0.0693 -0.0257
25236W        W42083   8.822  15.973   3.432 -0.1069 -0.1055  0.2432
25237W        W42084   3.494   4.071   5.374  0.1510 -0.0213  0.2704
25238W        W42085  16.418  17.744  13.144  0.2035 -0.0499  0.1271
25239W        W42086   2.621   0.742   0.135  0.1365 -0.1102 -0.1492
25240W        W42087   0.756   1.111  11.432 -0.4051 -0.0538 -0.1926
25241W        W42088   7.616  12.119  10.144  0.0742 -0.2401 -0.1830
25242W        W42089   2.409  11.277  11.772 -0.1480 -0.0376 -0.1447
25243W        W42090   4.240  17.848  13.586 -0.2367  0.1034  0.1399
25244W        W42091   8.855  18.413  12.514  0.1396 -0.0155  0.0679
25245W        W42092   0.734   2.477  10.418  0.3024  0.1408  0.0658
25246W        W42093  11.641   8.181  12.753 -0.6253 -0.1240 -0.3774
25247W        W42094  18.276   8.487   1.980 -0.2873 -0.0722  0.4503
25248W        W42095  17.858   6.665   1.473 -0.2561  0.3261 -0.1169
25249W        W42096  10.287   6.247  13.702 -0.0573 -0.0419  0.0383
25250W        W42097   2.754   9.877  11.904 -0.0665  0.0753  0.0437
25251W        W42098  13.835  13.069   2.332  0.3307 -0.0296 -0.0373
25252W        W42099   9.656  16.366   4.703  0.2516  0.0634  0.1414
25253W        W42100  15.751  12.455   3.727 -0.0401  0.1318  0.1878
25254W        W42101  16.027   4.927   9.953  0.0792  0.3296  0.0802
25255W        W42102   1.731   1.999   2.324  0.1312  0.2258  0.1940
25256W        W42103  16.920  18.712   1.785 -0.0759 -0.0145  0.1286
25257W        W42104   7.067  10.066   1.541 -0.1407 -0.1729  0.1773
25258W        W42105   2.136  13.018  10.827  0.2176 -0.0778  0.2390
25259W        W42106  19.271  14.937   4.331  0.0094  0.2392  0.1367
25260W        W42107   1.517  14.504   0.152  0.1209 -0.0930  0.3371
25261W        W42108  10.175   0.564   1.857  0.0783 -0.1775  0.2547
25262W        W42109   6.492  11.691   9.855 -0.2312  0.0604  0.3428
25263W        W42110   4.681  15.946   4.492 -0.0783  0.0579 -0.0454
25264W        W42111  17.269  17.281  11.963  0.0742 -0.1785 -0.0114
25265W        W42112  14.855  14.835  12.167 -0.0353  0.3047 -0.0140
25266W        W42113  15.514   1.521  14.651 -0.0889  0.1753 -0.0286
25267W        W42114   7.745   2.627  13.734  0.0342 -0.2558  0.2780
25268W        W42115   8.076  11.295  10.811  0.1008 -0.1867 -0.1443
25269W        W42116   1.621   4.914  13.744 -0.1807  0.0885 -0.2463
25270W        W42117  11.292   4.398  11.317  0.1517 -0.0710 -0.1312
25271W        W42118  16.559   8.517  10.703 -0.0262  0.2455  0.2688
25272W        W42119   0.207   7.019   3.131  0.1435 -0.1584  0.0362
25273W        W42120  10.734  11.832  12.693  0.3114 -0.0627 -0.0852
25274W        W42121  15.321   8.595   4.575  0.0404  0.2033 -0.0680
25275W        W42122  14.653  18.506   3.131  0.2454 -0.1672 -0.6102
25276W        W42123  19.238  10.399   3.665 -0.4389  0.2960 -0.1297
25277W        W42124   3.087   6.078  10.489 -0.0345  0.0493 -0.0083
25278W        W42125  10.083  10.755   1.968 -0.1139 -0.0352 -0.0924
25279W        W42126   6.896   0.206  12.418  0.0968 -0.0224  0.1189
25280W        W42127   8.049   5.011  10.532  0.2236 -0.2070  0.2509
25281W        W42128  17.000   4.478  12.448 -0.1847 -0.1886  0.0578
25282W        W42129  17.711  16.490   0.887  0.0287  0.0928 -0.3326
25283W        W42130  16.660  14.668   4.043 -0.3527  0.0036  0.2484
25284W        W42131  13.297   0.408  11.330  0.3174 -0.2104 -0.0382
25285W        W42132   0.986  14.625  11.308  0.0291  0.0654  0.0400
25286W        W42133  10.360   6.669   3.242  0.0013  0.0074  0.1854
25287W        W42134   1.582   2.969   3.631 -0.0983 -0.0680 -0.0323
25288W        W42135   9.853   2.167  14.224 -0.0992 -0.0194  0.0610
25289W        W42136  16.255  19.165  10.921 -0.2490  0.2801 -0.1447
25290W        W42137   9.002   0.780   5.093  0.1346 -0.1275 -0.0462
25291W        W42138   4.012   9.871  13.421 -0.0722 -0.2400  0.4482
25292W        W42139   5.282   7.409   0.886 -0.0148  0.1478 -0.2038
25293W        W42140   8.979  17.593  13.844 -0.0310  0.0437  0.1172
25294W        W42141   9.404   2.452   2.630  0.0608 -0.0930 -0.0735
25295W        W42142  10.955  18.744  13.317  0.0009  0.0110 -0.0234
25296W        W42143   0.498  16.594   4.176  0.1988  0.0282  0.1083
25297W        W42144  15.338  14.680   0.775 -0.1538 -0.1421  0.4707
25298W        W42145  15.463   6.283   5.571 -0.1492  0.2980  0.0032
25299W        W42146   4.477  15.024  10.759  0.3256 -0.3786  0.0438
25300W        W42147  11.263  18.654  12.651 -0.1351 -0.1719 -0.0985
25301W        W42148  13.248   9.792  12.058  0.0501  0.0728 -0.0627
25302W        W42149  19.236   8.599  10.639  0.2960 -0.1931 -0.0875
25303W        W42150   0.102  17.844  11.593 -0.0470 -0.2818  0.0481
25304W        W42151   9.536  13.304  10.138 -0.0156 -0.0156 -0.3207
25305W        W42152   5.638  17.804   1.395  0.3065  0.1374  0.2119
25306W        W42153   7.125   2.505  12.125  0.1676 -0.0060  0.1449
25307W        W42154   5.771  17.760  11.467  0.3053  0.4352  0.1426
25308W        W42155   6.204   5.247  11.874  0.0473 -0.0745  0.2848
25309W        W42156   8.589   7.176  12.771  0.1531 -0.0547  0.0686
25310W        W42157   8.386  15.001  13.872  0.0067  0.0901  0.0944
25311W        W42158  13.267   6.302   4.278 -0.1349  0.0715  0.1094
25312W        W42159  10.101  12.515   2.267 -0.4473 -0.0826  0.1905
25313W        W42160  10.002  14.957  14.736 -0.1421 -0.0085  0.0949
25314W        W42161   3.917   1.193  10.803 -0.0186  0.0658 -0.3297
25315W        W42162  14.077   6.778   4.404  0.3533  0.1437  0.0976
25316W        W42163  14.905   8.260  11.504  0.1332 -0.2040 -0.2531
25317W        W42164  17.582   0.040  10.375  0.1522 -0.0246 -0.1308
25318W        W42165   5.724   1.155   3.698 -0.2332 -0.1699  0.1265
25319W        W42166   7.770   0.104  10.837  0.1152 -0.3846  0.1469
25320W        W42167  18.682   9.150   3.094 -0.1234  0.2515  0.1704
25321W        W42168  18.144   3.086   1.028 -0.1705  0.2011  0.0689
25322W        W42169  18.612  12.027  12.190 -0.3051  0.1402  0.0770
25323W        W42170  11.237  13.930   3.273  0.2785  0.1285  0.2046
25324W        W42171   5.671  11.852   4.606 -0.1834  0.0485 -0.0405
25325W        W42172  11.394   4.266  11.792  0.1831  0.0553  0.2019
25326W        W42173  17.680  10.783  12.330  0.1047 -0.0885  0.1612
25327W        W42174   3.710  10.811   3.440 -0.6765 -0.2446 -0.0194
25328W        W42175  13.908   9.094   9.954  0.2182  0.0285 -0.0864
25329W        W42176   3.468  14.085   5.331 -0.1127  0.0893  0.1510
25330W        W42177  10.692  12.214   0.577  0.0287  0.1157  0.0062
25331W        W42178   0.716   9.365   3.267  0.0719 -0.2582  0.1616
25332W        W42179   1.776  17.605   4.678  0.2508 -0.1465  0.1755
25333W        W42180   7.661   9.712   2.099  0.0601  0.1165  0.0380
25334W        W42181   6.876   2.488  13.200 -0.0038  0.0735 -0.4081
25335W        W42182   7.923   3.112  14.276  0.1828 -0.0311 -0.0513
25336W        W42183  14.463   8.608   0.377  0.0450 -0.1359  0.1337
25337W        W42184  11.998   7.918  14.293  0.2758  0.0530 -0.1598
25338W        W42185  10.791  15.922   0.101 -0.1147  0.2258  0.2631
25339W        W42186  16.365  10.317  10.808  0.0888 -0.0402  0.2893
25340W        W42187   5.055  13.613   2.877 -0.1906 -0.0043  0.1144
25341W        W42188  15.258  13.967  11.011  0.4172 -0.0056 -0.0022
25342W        W42189  10.822  11.746  14.434  0.1197  0.0556 -0.3939
25343W        W42190   4.752   2.739  11.109 -0.1999  0.0524 -0.0541
25344W        W42191  18.112  12.810   0.347  0.2065  0.0446  0.1100
25345W        W42192  13.156   4.253  14.894 -0.0621 -0.0457  0.0406
25346W        W42193   8.054  14.460  12.424 -0.1285 -0.2210 -0.0576
25347W        W42194   0.380   9.569   4.957 -0.2404  0.1042 -0.1940
25348W        W42195  10.155   6.487  11.756 -0.0600 -0.2128 -0.1690
25349W        W42196   2.478   1.403   1.236  0.0068  0.2900 -0.0681
25350W        W42197  18.515  10.189  13.315 -0.0108 -0.0300  0.0081
25351W        W42198  12.088  11.243  12.102  0.0321 -0.0450  0.1510
25352W        W42199   9.360  19.028  11.193 -0.0952  0.0446  0.1977
25353W        W42200   5.729  15.936   1.678 -0.1983 -0.1050 -0.0198
25354W        W42201   1.858   6.695   3.550  0.1389  0.2316 -0.2310
25355W        W42202  15.957   1.134   0.919  0.0134 -0.0503  0.4955
25356W        W42203  16.653  13.779   2.309 -0.1317  0.1570  0.2393
25357W        W42204  17.571  17.327   1.915 -0.0558  0.3056  0.2935
25358W        W42205   5.919  15.932   0.888 -0.2876 -0.3330  0.3300
25359W        W42206   6.628  17.786  14.688  0.0966 -0.1107  0.3252
25360W        W42207  15.749   3.563  10.954  0.1963  0.2702 -0.0443
25361W        W42208  14.874  18.029  13.470  0.0666  0.1268  0.1166
25362W        W42209  13.370   2.266   5.355  0.2287  0.1463 -0.0506
25363W        W42210  14.129  17.233  13.308 -0.0051 -0.3314  0.0098
25364W        W42211  16.912  18.203   3.330  0.2440 -0.3566  0.1030
25365W        W42212  13.836   8.650  14.600 -0.0348  0.1956  0.0876
25366W        W42213   7.965  17.580   1.589 -0.3501  0.1216 -0.3454
25367W        W42214  17.690  18.671  12.751  0.0112 -0.0447  0.2169
25368W        W42215   8.456   7.637   1.895  0.0355  0.2840  0.1292
25369W        W42216   9.442  17.251  11.716  0.2128  0.1698  0.1001
25370W        W42217   3.923  18.985   3.738 -0.0217 -0.1565 -0.1609
25371W        W42218   5.716   4.937   4.552  0.4111 -0.0179  0.0281
25372W        W42219  14.850   8.668  13.594  0.0641 -0.5429  0.2459
25373W        W42220   8.333   1.087   1.482  0.0953  0.0575  0.0045
25374W        W42221   8.936  15.654  11.077  0.2970 -0.1251  0.2250
25375W        W42222   0.365   4.510   2.620 -0.2736  0.1622  0.0503
25376W        W42223   1.410   3.664   0.462 -0.1485  0.0488  0.3039
25377W        W42224   6.392  11.881  13.420 -0.2111 -0.0273  0.1057
25378W        W42225   8.163   0.904   4.578 -0.0714 -0.1059  0.0670
25379W        W42226  14.739  15.597  11.514  0.2282  0.1464  0.1919
25380W        W42227   7.289  13.424  13.663  0.0798  0.4288 -0.0491
25381W        W42228  14.510  11.574   0.391 -0.2250  0.0604 -0.0754
25382W        W42229   8.981  18.897   3.585  0.1200 -0.0142 -0.0071
25383W        W42230  17.462  14.703  12.696  0.0921 -0.0334  0.1417
25384W        W42231   0.780  10.529   0.870 -0.0614  0.1357 -0.0434
25385W        W42232   8.287   6.864  14.950 -0.1047  0.0611 -0.2410
25386W        W42233  17.708  12.006  12.941 -0.2745 -0.0837 -0.2708
25387W        W42234   7.361   1.677  11.113 -0.1726  0.1432  0.1649
25388W        W42235  10.215  10.210   2.607  0.4046  0.2950 -0.1960
25389W        W42236   8.425   6.206  13.901 -0.0947 -0.0900 -0.5013
25390W        W42237  18.978  13.364  12.019 -0.4557  0.0277  0.1721
25391W        W42238   5.677  16.923  14.823 -0.0879 -0.0199  0.2923
25392W        W42239   0.507   8.963   4.395  0.0689 -0.1272 -0.1008
25393W        W42240   3.982   1.363  10.289 -0.0198  0.0984 -0.1280
25394W        W42241  13.168  13.011  13.217 -0.0692 -0.0678  0.4584
25395W        W42242  18.849  18.900   5.239 -0.3101  0.0191 -0.1644
25396W        W42243  13.419  15.155  11.721 -0.0514 -0.2598  0.0328
25397W        W42244   5.119   4.827   9.566  0.2098 -0.3175  0.4913
25398W        W42245   5.194   7.618   1.417 -0.0571 -0.0572  0.0491
25399W        W42246  12.334  12.475  13.762 -0.1734  0.1607 -0.3461
25400W        W42247   7.351   3.438  11.745  0.2712  0.1655 -0.4607
25401W        W42248  14.309   0.191  12.344 -0.0496 -0.0434  0.0674
25402W        W42249   1.395  14.098   0.582 -0.0847 -0.1635  0.0169
25403W        W42250  19.141  12.819   1.818 -0.2976  0.1850  0.1619
25404W        W42251  11.378   1.719   4.647 -0.1292  0.1729  0.0013
25405W        W42252   8.420   0.335   4.077  0.3534 -0.4867  0.2038
25406W        W42253  11.056  15.318  11.636  0.1540  0.0434 -0.0127
25407W        W42254   8.910   9.785   4.008  0.0086  0.0336  0.2497
25408W        W42255   5.056   5.764   0.570  0.0893 -0.1441  0.2007
25409W        W42256  16.830  12.864  11.452 -0.0430  0.4621 -0.1321
25410W        W42257   1.529   8.925   1.553  0.1251  0.1848  0.2719
25411W        W42258  16.212  15.948   3.514 -0.1580  0.0126 -0.1006
25412W        W42259  18.829   8.024   5.513  0.0861  0.1004 -0.0627
25413W        W42260   1.008  12.939   4.736  0.0744  0.2344 -0.1238
25414W        W42261   6.546  10.253   0.746  0.2146 -0.0008 -0.1319
25415W        W42262   5.992  14.857  14.317  0.1659  0.0831 -0.0323
25416W        W42263  15.661  17.994   2.933 -0.0760 -0.0649  0.3425
25417W        W42264   3.919   5.565   1.256 -0.3053  0.1637  0.0044
25418W        W42265   5.707   1.579   4.034  0.0686 -0.2393 -0.2860
25419W        W42266   1.482   9.761   2.895 -0.0748  0.1828  0.0108
25420W        W42267   0.397   7.223  10.775 -0.1846 -0.3860 -0.0082
25421W        W42268   8.953  14.502   9.087  0.2260  0.2552 -0.0243
25422W        W42269   6.793  12.862   4.813 -0.2578  0.1779 -0.0166
25423W        W42270   4.554   6.029   1.591 -0.1641  0.0400  0.0660
25424W        W42271   3.190  11.829  13.067 -0.0346 -0.0212  0.0824
25425W        W42272   5.723   2.760   3.374 -0.3178 -0.1767 -0.2039
25426W        W42273  16.033  15.194  11.023 -0.2757 -0.1281  0.1392
25427W        W42274  11.806   8.978   0.270  0.0968  0.1427 -0.3574
25428W        W42275  12.809   5.930  10.626 -0.3200  0.1604  0.0874
25429W        W42276  15.198  15.689   3.740 -0.2068 -0.2231  0.0677
25430W        W42277   9.457  18.262   5.271  0.3294  0.1054 -0.2194
25431W        W42278   7.704   5.277  11.921  0.0145 -0.3258 -0.0925
25432W        W42279   4.969   0.313   2.535  0.1299  0.0317  0.1501
25433W        W42280  10.314   9.501  11.289  0.0119  0.0564  0.0500
25434W        W42281   7.126   4.757   0.153  0.0356 -0.3923 -0.0208
25435W        W42282   6.161   1.307   3.419 -0.2604 -0.0614 -0.0064
25436W        W42283   8.514   8.650   1.895 -0.3044 -0.1816 -0.0058
25437W        W42284  10.312  13.606  12.311 -0.1422  0.0335  0.3069
25438W        W42285   2.378  17.757   3.594 -0.0132 -0.2474  0.0440
25439W        W42286  14.991   9.948  14.991 -0.0727  0.1045 -0.4288
25440W        W42287   5.734   4.746   1.769 -0.2332 -0.0189 -0.0282
25441W        W42288   8.856  13.480   2.034  0.1529  0.2369 -0.2523
25442W        W42289  15.931   6.178   0.159 -0.6747  0.1284 -0.1342
25443W        W42290  10.455   9.909  14.302 -0.0191  0.3813  0.2268
25444W        W42291   5.576  15.732  14.190  0.4360  0.1305  0.0348
25445W        W42292   3.750  16.978  11.380 -0.0150  0.0358 -0.0633
25446W        W42293  15.861   6.407   1.917  0.3710 -0.1629  0.0982
25447W        W42294  19.252   7.934   2.759 -0.0840  0.1766  0.2612
25448W        W42295   2.946   1.562  12.152 -0.0380  0.0333 -0.1026
25449W        W42296  18.436   9.070   4.989  0.0244 -0.3218 -0.5840
25450W        W42297  10.445   0.755   0.231 -0.0716 -0.3650 -0.0594
25451W        W42298  11.305   2.273   2.919  0.1630  0.2395  0.1266
25452W        W42299  15.405  12.149   3.936  0.0628  0.0915  0.0249
25453W        W42300   3.365   9.650  12.761 -0.1009  0.1725 -0.2377
25454W        W42301   2.379   0.668  10.801 -0.0005  0.0350 -0.0377
25455W        W42302  11.659   9.997  14.929 -0.0716 -0.0144 -0.1831
25456W        W42303   6.402  18.014   3.299  0.1197  0.0570  0.2799
25457W        W42304   6.787   7.769  14.656  0.1478  0.2108  0.1269
25458W        W42305   2.911   7.170   4.434 -0.2845 -0.2492 -0.0826
25459W        W42306   5.119   8.181  12.087  0.0373  0.0640  0.4890
25460W        W42307  11.346  15.388   4.598 -0.0979 -0.0877  0.2740
25461W        W42308   3.290   8.879   0.843  0.1558 -0.1046 -0.1258
25462W        W42309  14.413  17.368  12.908  0.0314 -0.3396 -0.0183
25463W        W42310   1.290   3.006  14.291 -0.1285  0.2345 -0.1142
25464W        W42311  15.109  14.767   1.741  0.0067 -0.0107 -0.1976
25465W        W42312  15.174   1.272   1.830  0.2235  0.3151 -0.1867
25466W        W42313  10.906  14.422   2.756 -0.2296  0.0572 -0.1001
25467W        W42314  14.396   3.568  13.320 -0.0976  0.2876  0.2074
25468W        W42315   1.420  16.490   0.412 -0.2492 -0.0534 -0.1623
25469W        W42316   5.090   5.935   3.600 -0.3160 -0.0799 -0.0442
25470W        W42317   3.774   2.319   4.673  0.0435 -0.0202  0.4060
25471W        W42318   6.102  10.620  11.974  0.0222  0.4511 -0.2792
25472W        W42319  14.629  16.874   3.166 -0.1817 -0.1942 -0.1710
25473W        W42320   4.002   5.244   3.113  0.0298 -0.0485  0.0792
25474W        W42321  11.263   6.602  10.363 -0.1846  0.1436 -0.1363
25475W        W42322   6.337   5.429   3.046  0.3690 -0.0887 -0.1941
25476W        W42323   3.285   3.242  11.066  0.0971  0.3081 -0.1732
25477W        W42324  16.424   5.448  12.082 -0.0841 -0.1681  0.0849
25478W        W42325   6.448  15.540   1.225 -0.0971  0.2276  0.1971
25479W        W42326   4.149  15.606  12.395 -0.0541 -0.0267 -0.0974
25480W        W42327   0.083  18.112  13.856 -0.4521  0.3205  0.1018
25481W        W42328  13.646  12.838  13.287 -0.0724 -0.0452 -0.0018
25482W        W42329  16.492   4.756   1.089  0.0346 -0.4321  0.0894
25483W        W42330   1.280  11.595   2.905 -0.1166 -0.2421 -0.0854
25484W        W42331   9.454   6.150  12.463  0.7594 -0.0003  0.0035
25485W        W42332   7.604   8.342  11.977 -0.3975  0.1894 -0.1454
25486W        W42333  10.771  19.097   3.341 -0.2119  0.0068 -0.1791
25487W        W42334  11.003   0.008   1.061 -0.1261 -0.1904  0.1622
25488W        W42335  16.241  16.447   2.350  0.2067  0.3568 -0.0490
25489W        W42336   2.085   3.755  13.649  0.1955  0.1341  0.0680
25490W        W42337   3.364  17.027   4.494  0.2575  0.2121  0.1036
25491W        W42338   1.882   5.964   9.711  0.0897  0.1398  0.0392
25492W        W42339  11.990  18.714   5.092  0.1513 -0.0441 -0.0405
25493W        W42340  10.594  11.058   3.062  0.0446  0.0179  0.0952
25494W        W42341  12.181   6.469   0.572 -0.0604  0.2258 -0.0861
25495W        W42342   4.806   7.835  13.783  0.1087  0.1063  0.0812
25496W        W42343   3.563   6.884  14.350 -0.3121 -0.0715 -0.3929
25497W        W42344   1.627  15.438   3.485  0.0741 -0.1728  0.1137
25498W        W42345   6.797   7.372   2.393  0.2385 -0.0919 -0.2683
25499W        W42346   9.464   5.594   1.985 -0.0484  0.0199  0.0773
25500W        W42347   1.676  15.405  12.583  0.1638 -0.1291 -0.2167
25501W        W42348  12.879   3.378   9.908  0.1984  0.1191  0.0848
25502W        W42349   5.132  17.573   3.556  0.1439  0.1967 -0.0352
25503W        W42350  11.460  12.718  13.633  0.0578  0.1346  0.0569
25504W        W42351   8.635  17.680  14.847  0.0589 -0.0188 -0.0560
25505W        W42352   4.054   3.935   4.775  0.0982 -0.2405  0.0541
25506W        W42353  17.229  17.480  12.786 -0.4877  0.0849  0.1191
25507W        W42354   4.004   9.815  11.408  0.0201 -0.1501  0.1576
25508W        W42355  14.391  10.490   0.902  0.2613  0.0566 -0.1662
25509W        W42356   6.835   5.658  12.481  0.2777  0.0439 -0.2107
25510W        W42357  12.771   8.148  13.477  0.1212  0.0912 -0.1267
25511W        W42358   5.137   7.272   2.356  0.4162 -0.0605 -0.2191
25512W        W42359   8.250   4.522  10.806 -0.0619 -0.3210  0.2633
25513W        W42360   1.244   9.444   1.721 -0.0496 -0.0948  0.1180
25514W        W42361   5.716   6.727  11.469  0.1989 -0.1550 -0.2275
25515W        W42362   2.410  13.769  13.248 -0.0424  0.2373 -0.1230
25516W        W42363   9.677  12.729  13.416  0.0879 -0.0097  0.6097
25517W        W42364  13.543   7.591  11.910  0.0157 -0.1217  0.0903
25518W        W42365  16.336   2.044   4.912  0.2007 -0.8132 -0.1088
25519W        W42366   0.753  11.101   2.198  0.0241 -0.0312 -0.0086
25520W        W42367   5.433  16.982  10.397  0.0925  0.3125  0.0869
25521W        W42368  14.087  18.030   3.954 -0.0419  0.2872  0.2015
25522W        W42369  16.290  11.123   2.060  0.0461  0.2138 -0.1022
25523W        W42370  11.510  12.645   2.834 -0.2058  0.0611  0.2854
25524W        W42371   5.181  16.854  13.110  0.1048  0.1383  0.1121
25525W        W42372  13.969  10.762   2.079  0.1758  0.0682  0.0962
25526W        W42373   0.288   4.562  12.813 -0.1692  0.0757 -0.3578
25527W        W42374   1.041   4.409   4.008  0.0230 -0.0434 -0.0768
25528W        W42375   9.055  17.401   2.934 -0.0259 -0.3218  0.0152
25529W        W42376   0.353  13.928  12.037  0.2814 -0.0222 -0.1471
25530W        W42377   6.960  18.988  12.522 -0.0808 -0.3350 -0.0739
25531W        W42378  12.204  16.919  12.486  0.0308 -0.1202  0.1244
25532W        W42379   6.903  14.642  12.117 -0.1551  0.3348  0.0483
25533W        W42380  15.689   3.297  12.356 -0.0897  0.1211  0.0781
25534W        W42381   4.382   6.646  12.429  0.2004 -0.0541 -0.1834
25535W        W42382  15.645  13.703  10.809 -0.1710 -0.1757  0.1121
25536W        W42383  13.793  15.353   0.426  0.2924 -0.1498 -0.1110
25537W        W42384   6.987   2.318   0.731  0.0061 -0.2380 -0.0876
25538W        W42385   1.339  10.668  10.838  0.2975 -0.2156 -0.1093
25539W        W42386  18.735  13.489  12.456 -0.0768 -0.1172 -0.0182
25540W        W42387  12.665  16.338   1.723  0.0009  0.1722  0.5235
25541W        W42388  11.176  17.375   3.354 -0.0976 -0.2274 -0.0478
25542W        W42389  13.875   5.151   2.078  0.0021 -0.0307 -0.0525
25543W        W42390  11.674   2.294  12.319  0.1055  0.2700 -0.1345
25544W        W42391  15.626  11.932   3.542 -0.0382 -0.1018 -0.1919
25545W        W42392  17.363  17.913   3.220  0.3478  0.1807 -0.0991
25546W        W42393  11.356   1.636  14.094 -0.3497 -0.0440 -0.1374
25547W        W42394  14.406   9.977  13.651 -0.2667  0.4351 -0.0961
25548W        W42395  12.955   9.086   9.778 -0.0439 -0.0238 -0.0757
25549W        W42396  15.507  16.117   4.083 -0.2517 -0.1542 -0.0721
25550W        W42397   0.410   1.889  12.391  0.1454 -0.2697 -0.2567
25551W        W42398   2.320  11.272   1.323  0.0861 -0.0117 -0.0845
25552W        W42399  16.155  16.709  12.875  0.3139  0.0412  0.1976
25553W        W42400   6.025   2.934  13.124  0.2144 -0.0745  0.1750
25554W        W42401  19.020   3.475  13.346 -0.0414 -0.2602 -0.0600
25555W        W42402   8.564   0.606  14.989  0.0143 -0.0617  0.1681
25556W        W42403   3.219  12.369   4.678  0.0384  0.0639  0.0403
25557W        W42404  17.973  16.720   0.522  0.4729 -0.1296 -0.0839
25558W        W42405  12.119   2.014   1.493 -0.0417 -0.1992 -0.1164
25559W        W42406  14.003   8.747   5.361 -0.0357  0.2161 -0.1416
25560W        W42407  17.852  14.413  13.397  0.0305  0.1404  0.1291
25561W        W42408  12.038   1.519   0.889 -0.0185  0.0664  0.1828
25562W        W42409   1.702   4.411  10.818  0.0891 -0.1365  0.1693
25563W        W42410  15.517   8.422   0.409 -0.2766 -0.1297  0.1204
25564W        W42411  10.724  10.574   3.319  0.0795 -0.0431 -0.2853
25565W        W42412  10.517  10.606   0.724 -0.0443 -0.1735 -0.1590
25566W        W42413   5.395  11.999  13.082 -0.2659  0.2977  0.0860
25567W        W42414   8.545   3.125  11.606 -0.0931  0.0734 -0.0714
25568W        W42415  14.547  11.814  13.319 -0.0849 -0.1161  0.2321
25569W        W42416   1.998  17.980  14.325  0.0741  0.0839  0.1653
25570W        W42417  15.095   2.037   2.201  0.2519  0.0466 -0.0670
25571W        W42418  14.533   7.809   0.828 -0.0523 -0.0936  0.0729
25572W        W42419   4.387  16.626   2.068 -0.0870  0.0054  0.1338
25573W        W42420  17.772  17.568   3.169 -0.0055  0.0112 -0.2780
25574W        W42421   4.827   4.211  13.682  0.1594  0.0632 -0.2892
25575W        W42422   3.657  14.636  13.966 -0.2243  0.0685 -0.0351
25576W        W42423   0.983   2.490   1.617  0.1920  0.1381 -0.1165
25577W        W42424  15.859   8.666  11.291 -0.1124 -0.3038 -0.1513
25578W        W42425  12.508   4.369   1.074  0.0797 -0.0683 -0.0834
25579W        W42426   3.962   3.634  14.662  0.0808 -0.0571  0.1229
25580W        W42427   8.586  19.174   3.749 -0.0478  0.3215  0.0373
25581W        W42428   1.019   4.146  14.791 -0.0927  0.0051  0.0466
25582W        W42429   9.596   2.219   1.685  0.1044 -0.0998 -0.1051
25583W        W42430  10.753  16.457   1.468  0.1642  0.0935  0.0223
25584W        W42431   6.906  16.462   2.778 -0.0965 -0.2961  0.3106
25585W        W42432  17.909   9.050  10.563 -0.0384 -0.0462 -0.1290
25586W        W42433  18.110  12.170  12.266 -0.1458 -0.2606 -0.1910
25587W        W42434  16.189   2.550   3.516  0.1159 -0.1675 -0.1017
25588W        W42435   2.912   8.052  14.491 -0.0431 -0.2291 -0.1577
25589W        W42436   7.359   8.410  12.476  0.0117 -0.1669  0.2572
25590W        W42437  14.080  18.703   1.848  0.0114  0.2268 -0.0211
25591W        W42438  12.544  12.457   0.374 -0.1648 -0.2623  0.0058
25592W        W42439  16.471  10.914   4.336 -0.1919  0.1056 -0.1164
25593W        W42440  14.802   7.982  14.300  0.3710 -0.1023  0.0347
25594W        W42441  14.814  12.577  10.638  0.1237 -0.0393  0.2992
25595W        W42442   6.322  12.365  10.864 -0.0370  0.2294  0.2896
25596W        W42443  17.721   4.112  13.405 -0.0676 -0.3020  0.0664
25597W        W42444  10.254   3.830   0.377 -0.0640  0.1047 -0.0483
25598W        W42445   3.652  10.017  14.873 -0.1978 -0.0570 -0.0609
25599W        W42446  16.126   1.954  11.497 -0.2252 -0.3433  0.4072
25600W        W42447   5.391  11.469   4.247  0.0326  0.2029 -0.2059
25601W        W42448   0.704  14.530   0.278  0.1297 -0.0855  0.1175
25602W        W42449  10.582  11.306   0.146 -0.1350  0.0891  0.0478
25603W        W42450  18.286  17.976  14.182 -0.1902  0.1964 -0.0522
25604W        W42451  13.667   7.330  14.296 -0.3016 -0.0527  0.1075
25605W        W42452   7.282   5.659  11.307 -0.1175 -0.0107  0.0641
25606W        W42453   3.566  14.817  14.631 -0.0045 -0.0852  0.4015
25607W        W42454   8.531   4.444  13.630 -0.2469  0.0935  0.0226
25608W        W42455  10.550  11.701  13.746  0.5925 -0.1801  0.0766
25609W        W42456  17.621  13.282   3.785 -0.1634 -0.0180  0.2335
25610W        W42457   0.966  16.834  12.650  0.1084 -0.0778  0.4451
25611W        W42458   6.884  17.326   2.158 -0.1100  0.1703  0.0863
25612W        W42459   1.478   7.962  14.488  0.0943 -0.0386  0.0842
25613W        W42460  19.106   5.206   3.011  0.0562 -0.1114 -0.0969
25614W        W42461  19.150   6.577  12.755  0.0009  0.0285  0.3157
25615W        W42462   1.003  17.891  13.504 -0.0457  0.2074 -0.1060
25616W        W42463  14.985  16.684   2.853  0.2821  0.0615  0.3460
25617W        W42464   3.397   1.216   0.701 -0.0452  0.2048 -0.0986
25618W        W42465  18.524   6.720   0.608  0.0562 -0.0017 -0.1023
25619W        W42466  15.279  15.532   0.068 -0.1938 -0.2232 -0.0441
25620W        W42467   2.296  18.380   4.657  0.0800  0.1168  0.0932
25621W        W42468  15.176   4.961  11.609  0.1952 -0.0211  0.2178
25622W        W42469   1.562  12.033  10.879 -0.4118 -0.0368 -0.1945
25623W        W42470   7.151  17.179   1.471  0.1687  0.0225  0.0758
25624W        W42471  14.969  16.862  11.644 -0.0378  0.3569  0.0148
25625W        W42472   6.467   3.130   1.781 -0.0379 -0.0374  0.3004
25626W        W42473  15.657  11.493  13.168  0.2036  0.6039  0.2699
25627W        W42474  14.055  17.921  14.573 -0.1528  0.0204 -0.2570
25628W        W42475   9.934  18.581  12.314 -0.0691 -0.2305 -0.0321
25629W        W42476   0.352   4.150   0.404 -0.0632 -0.0573 -0.2073
25630W        W42477  16.922   2.165   5.897  0.0770  0.3114 -0.3127
25631W        W42478  17.820   7.856   0.296  0.0025  0.0564  0.3049
25632W        W42479  12.697  14.070  10.642 -0.1582 -0.1569 -0.3224
25633W        W42480  10.225   0.563   5.343  0.0448  0.1278 -0.0182
25634W        W42481  18.695   4.020   1.302  0.0464  0.3080 -0.0214
25635W        W42482   6.519  17.500  13.133  0.0749 -0.1499 -0.0381
25636W        W42483  12.984   2.620  13.669 -0.2270 -0.2229 -0.4102
25637W        W42484   1.355   7.490  14.185 -0.0979 -0.1147  0.5797
25638W        W42485  17.381   5.511  11.208 -0.0312  0.0145  0.0812
25639W        W42486  15.609   7.424  14.543  0.2020 -0.0357 -0.1441
25640W        W42487   2.309   6.429   5.350  0.4329  0.0696  0.1266
25641W        W42488  17.444   8.882   2.585 -0.3120  0.0446 -0.2548
25642W        W42489  14.504  13.711   1.340 -0.1955  0.3469 -0.1074
25643W        W42490  17.764  10.513   1.173 -0.0845 -0.1499 -0.0593
25644W        W42491  18.827   7.900  14.812 -0.0142 -0.2393 -0.1096
25645W        W42492  18.040  12.237  14.236 -0.4268  0.0536  0.2499
25646W        W42493   6.524  14.006  14.685  0.0170  0.0751 -0.2927
25647W        W42494  11.929   4.249  11.906 -0.4104  0.0865 -0.1040
25648W        W42495  17.220   7.090   2.463  0.1666 -0.2130 -0.0406
25649W        W42496   5.841  17.509  13.824 -0.0728  0.1080 -0.2793
25650W        W42497   5.611   4.136   9.960  0.0676  0.1253  0.0406
25651W        W42498   9.131  15.699  12.985 -0.0752  0.1441 -0.2421
25652W        W42499  16.477   8.127  13.437 -0.1523  0.1933 -0.2482
25653W        W42500  17.897  15.246  11.178  0.0363 -0.0262 -0.0375
25654W        W42501   4.616   7.085   1.838 -0.2275 -0.0139  0.2550
25655W        W42502  13.162   8.172   3.658  0.1923  0.1509 -0.3131
25656W        W42503  18.272   1.144  15.011 -0.3779 -0.0232 -0.1398
25657W        W42504  15.771  15.891   4.402 -0.2671  0.1412 -0.0822
25658W        W42505  15.404  15.289   1.659  0.0658  0.1601  0.2726
25659W        W42506  16.076   5.762  12.246  0.2709  0.3586  0.1378
25660W        W42507   7.820   4.767  11.767 -0.0337  0.3975  0.1049
25661W        W42508  12.330  13.610  12.924  0.1051  0.3397  0.0651
25662W        W42509  18.391  13.182  12.716  0.0573  0.0156 -0.0625
25663W        W42510  17.337  17.501   5.274 -0.0862  0.2870  0.0015
25664W        W42511  16.122   1.512   4.686  0.0263 -0.0941 -0.1175
25665W        W42512  10.491   7.793   4.642  0.1409 -0.1539  0.1067
25666W        W42513   2.281  15.683   2.626  0.0191  0.1927  0.3021
25667W        W42514   2.495   4.841   4.583 -0.1136 -0.0290  0.2520
25668W        W42515  18.209  11.541  10.595 -0.0338 -0.1678  0.3611
25669W        W42516   7.195   3.639  13.095  0.1004 -0.1545 -0.1269
25670W        W42517   3.681   2.271   1.748  0.0799  0.2152 -0.0845
25671W        W42518  16.203   3.862  13.457  0.0289  0.0105  0.1210
25672W        W42519   7.532   0.647   3.173 -0.1197 -0.0216  0.1865
25673W        W42520   7.040  17.921   4.190 -0.2738 -0.1915  0.1737
25674W        W42521   0.493   3.883   5.169 -0.2396  0.0728 -0.0466
25675W        W42522   1.791  18.702  13.188 -0.0069  0.2592 -0.0072
25676W        W42523  19.147  16.535   2.940  0.1125  0.3621  0.0253
25677W        W42524   7.747   3.293   2.169 -0.0083  0.1822 -0.1346
25678W        W42525   2.141   9.724  10.183  0.1238  0.0312  0.1079
25679W        W42526   3.492  18.396   3.266  0.2728 -0.0814  0.0230
25680W        W42527  10.048  10.117   0.706 -0.1486  0.2500 -0.1351
25681W        W42528  10.046   7.108   0.342 -0.2027  0.2050 -0.2018
25682W        W42529  10.344  16.367   1.162  0.0508  0.1065 -0.0537
25683W        W42530   4.760   4.264   1.056 -0.0183  0.1216  0.2939
25684W        W42531  11.905   0.975   2.986  0.2196  0.0911  0.0212
25685W        W42532   8.850  12.978   1.385  0.1926  0.3416 -0.1962
25686W        W42533   3.986   0.159  11.581 -0.3202 -0.1359  0.0947
25687W        W42534  10.458  16.689  14.353  0.0002 -0.2763 -0.0384
25688W        W42535   5.232  16.309  11.028 -0.0167  0.0833 -0.2993
25689W        W42536  13.391   3.905   1.329  0.2962 -0.1138  0.0287
25690W        W42537   8.561   5.656   3.431 -0.0809  0.2127 -0.0214
25691W        W42538  15.320  16.643  14.492  0.1348  0.2857  0.3662
25692W        W42539  15.846   8.994  13.782  0.1969 -0.0036  0.4149
25693W        W42540  13.453   8.070   1.371 -0.1093 -0.1255 -0.2640
25694W        W42541   6.759  17.292   1.214  0.0505  0.0609  0.1063
25695W        W42542   6.538   7.302   9.515  0.1843  0.1976  0.1848
25696W        W42543  15.935  11.830  10.676 -0.2096 -0.2707  0.1013
25697W        W42544  13.830   8.751  10.848  0.2047  0.2281  0.0829
25698W        W42545   0.003   1.851   1.722 -0.3924  0.0389 -0.0159
25699W        W42546  11.520   9.703   2.246 -0.1613 -0.2416  0.0343
25700W        W42547   5.742  15.261  14.171  0.0202 -0.1041 -0.1263
25701W        W42548  11.826  14.328  11.622  0.1798  0.0129  0.1385
25702W        W42549   1.497   2.044   4.264  0.2453 -0.1553 -0.3532
25703W        W42550   9.068  12.871  12.457  0.1407  0.1562 -0.1016
25704W        W42551  14.454   2.619  10.935 -0.0363  0.2835  0.0432
25705W        W42552   2.134   6.087  11.691 -0.0680  0.2006 -0.0942
25706W        W42553  16.045   0.776  10.662  0.2921 -0.1242 -0.0357
25707W        W42554  15.432   9.096   4.587  0.2521  0.1706  0.0655
25708W        W42555  14.316   0.175   0.222  0.0160  0.0482  0.3184
25709W        W42556   1.871  12.250   2.550  0.0397 -0.3562  0.0408
25710W        W42557   4.273  18.998  14.702  0.0563 -0.2882  0.0977
25711W        W42558  15.870  15.810   2.926 -0.2704  0.1560 -0.0386
25712W        W42559  18.145   3.048  14.304  0.0585  0.0895 -0.5422
25713W        W42560  15.131   4.116  14.353 -0.3049 -0.2879 -0.1849
25714W        W42561   8.260   2.543   0.264  0.5219  0.2522 -0.0719
25715W        W42562  10.293  15.634  14.726  0.0539  0.0434 -0.1800
25716W        W42563   5.514  17.561   0.391 -0.0298 -0.2385  0.1550
25717W        W42564  17.126   4.103   3.627  0.2468 -0.0640 -0.3057
25718W        W42565   5.541  10.962  12.830 -0.0420  0.2231  0.0376
25719W        W42566  17.916   4.412   2.356 -0.1083  0.1000 -0.2705
25720W        W42567   0.518   7.471   0.124 -0.1118  0.2522  0.0674
25721W        W42568  13.236   4.560   3.255 -0.1541  0.0674 -0.1668
25722W        W42569  11.737  13.392  14.653 -0.2566 -0.2320 -0.0313
25723W        W42570  12.028   1.304   4.754 -0.0233  0.0261  0.0560
25724W        W42571   8.356   0.539  13.750 -0.0342 -0.0995 -0.0559
25725W        W42572   8.266  10.385   2.448 -0.2208  0.1535 -0.1031
25726W        W42573  14.807   8.616  14.983 -0.0508  0.1610 -0.2309
25727W        W42574  12.446   9.492   0.934 -0.0325  0.0757 -0.0867
25728W        W42575   4.061   0.205   1.047  0.1288  0.0333 -0.0754
25729W        W42576  17.397   6.382   1.322 -0.2460  0.0943 -0.0345
25730W        W42577   8.271   9.208   9.977 -0.1312  0.3657  0.0204
25731W        W42578  17.907  19.216  13.548 -0.0436  0.2720  0.0431
25732W        W42579  15.815   7.448   1.360 -0.0078  0.0063  0.1984
25733W        W42580  14.118  11.052   4.286 -0.3071 -0.1481  0.2572
25734W        W42581   0.708  16.381  13.408  0.1546  0.3230 -0.1058
25735W        W42582   6.622  14.394  11.291 -0.3509  0.0126  0.2475
25736W        W42583   8.004   4.041   4.579  0.2069 -0.0344 -0.3782
25737W        W42584  10.077  12.577  12.193  0.4230  0.1368  0.4177
25738W        W42585   1.003  12.341  12.343  0.0757 -0.0988  0.0245
25739W        W42586  14.165  18.287   5.295 -0.2368  0.1661  0.1843
25740W        W42587   1.069   6.657  12.785 -0.2608 -0.0766 -0.1698
25741W        W42588   4.817   1.121  14.628  0.4552 -0.4411  0.2437
25742W        W42589   5.546   5.082   3.207 -0.1719  0.1009  0.1841
25743W        W42590   5.012   9.770   9.707 -0.2104 -0.1050  0.0219
25744W        W42591  17.083  14.732   3.701 -0.1040 -0.1715  0.2019
25745W        W42592  16.585  13.576  12.928 -0.1456  0.3757 -0.0698
25746W        W42593  18.826  18.963   3.110  0.0816 -0.1497  0.0636
25747W        W42594  10.837  12.931   5.614 -0.3264  0.1958  0.1534
25748W        W42595  10.878   2.788  12.680 -0.1869  0.1787  0.0324
25749W        W42596   1.850   8.622   2.389  0.1114 -0.0494 -0.1589
25750W        W42597   3.851  10.181  14.458 -0.2053 -0.1477  0.3372
25751W        W42598   5.155  19.082  14.320  0.2033 -0.2756  0.0379
25752W        W42599   3.217  16.675   2.948 -0.1656 -0.1712  0.1318
25753W        W42600   6.102   0.052   4.995  0.3294 -0.1426 -0.0824
25754W        W42601   6.470   1.424   9.665 -0.2124  0.0939  0.0294
25755W        W42602   3.029   5.886   5.108 -0.3499  0.3440  0.0907
25756W        W42603   1.335  14.102  12.394  0.1906  0.1844 -0.0010
25757W        W42604  12.543   1.249  11.123 -0.0763  0.0813 -0.0490
25758W        W42605   3.254   4.305  11.826 -0.0146 -0.2450 -0.3835
25759W        W42606   9.120   4.949   4.234  0.1706 -0.3048 -0.0914
25760W        W42607   2.245  14.021  14.821  0.0359  0.0910  0.0184
25761W        W42608   7.382   7.775   1.163  0.0857  0.0576 -0.1139
25762W        W42609  10.313   1.739   4.145  0.1235 -0.0192 -0.0344
25763W        W42610   6.697   1.411   4.087 -0.1325  0.0649  0.1400
25764W        W42611  17.043  16.636  14.951 -0.2254  0.0353 -0.1483
25765W        W42612   7.825   5.154  10.120  0.0667 -0.2593  0.0830
25766W        W42613  17.052   7.364  12.304  0.1409 -0.0216  0.1611
25767W        W42614  17.440   4.532  14.187  0.0564 -0.2849 -0.0423
25768W        W42615   7.260   3.263  11.241  0.4845  0.1427  0.4066
25769W        W42616   9.703  18.575  13.951  0.0091  0.4580  0.0426
25770W        W42617  15.831  16.625   0.228  0.2104 -0.0892 -0.2984
25771W        W42618  17.522   7.984  13.630 -0.2413 -0.3023 -0.3214
25772W        W42619  17.227  15.872  14.455 -0.3541  0.0147 -0.4865
25773W        W42620   8.131   9.792   5.008  0.0265 -0.1114 -0.0950
25774W        W42621   5.867  13.790  12.041 -0.0341 -0.0760 -0.0191
25775W        W42622   7.012  17.699   1.345 -0.2696 -0.0934 -0.3129
25776W        W42623   7.155   7.749   1.582  0.1268  0.0321 -0.1591
25777W        W42624  19.018   9.098  10.608 -0.1252 -0.2072 -0.0499
25778W        W42625  17.442   5.335  14.896 -0.1913 -0.1570  0.1719
25779W        W42626   6.297   7.133  12.664 -0.0647  0.2297 -0.3575
25780W        W42627  19.218  18.079   3.252  0.4613  0.0979  0.2023
25781W        W42628  10.223   2.947  10.917 -0.2883  0.0692  0.1089
25782W        W42629   8.244   6.836  10.634 -0.0153  0.4261 -0.1776
25783W        W42630   0.131   1.578  11.659  0.0041  0.1634  0.2971
25784W        W42631   2.843   8.949  12.916 -0.1254  0.0620 -0.0076
25785W        W42632   2.753  13.591   3.911  0.0929  0.0408 -0.5049
25786W        W42633   1.138  11.270  12.077 -0.5714  0.0927 -0.2238
25787W        W42634  18.729  11.847  10.574 -0.1513  0.2708 -0.2289
25788W        W42635   4.009  18.447   3.695  0.0894  0.0242 -0.0523
25789W        W42636   8.108   9.746  14.285 -0.3053  0.0082  0.1739
25790W        W42637  10.337  11.799   1.318 -0.0401  0.4019  0.0639
25791W        W42638   4.812  16.591  12.817  0.0106 -0.1242 -0.3186
25792W        W42639   6.205   3.312  12.878  0.1315 -0.2854 -0.0927
25793W        W42640  15.034  11.607  14.616  0.1956  0.0959  0.4606
25794W        W42641   5.828   7.313  13.622 -0.2305  0.1828  0.2875
25795W        W42642  11.369  14.935   1.148 -0.1421  0.2281  0.1546
25796W        W42643  17.676   4.855  14.516  0.0546 -0.0211  0.2662
25797W        W42644  17.587   6.522   3.354 -0.2175  0.1216  0.0279
25798W        W42645   4.965   1.207   4.654  0.1468  0.2822  0.1182
25799W        W42646  12.174  14.093  11.335 -0.1566 -0.1393  0.3681
25800W        W42647   4.286  13.627   4.420 -0.0006  0.0395 -0.1359
25801W        W42648   5.988  10.204  13.028  0.3607  0.1430 -0.2420
25802W        W42649   3.137  19.125  11.012 -0.2578  0.0996 -0.0939
25803W        W42650  14.013  10.979  12.565  0.1507  0.1074 -0.0695
25804W        W42651  12.239  16.665  11.208 -0.1182  0.1925  0.0932
25805W        W42652  11.525  14.162   3.718  0.2973 -0.2479  0.0648
25806W        W42653  10.349   4.620   3.615  0.0904 -0.0603  0.0744
25807W        W42654  13.712   8.839  11.544  0.1181  0.1321  0.0229
25808W        W42655   1.483  18.626   3.887  0.1678  0.0459  0.0559
25809W        W42656   1.256  16.467  12.096  0.1007  0.1513 -0.1000
25810W        W42657   1.337  17.263   5.420 -0.3417  0.0421 -0.0812
25811W        W42658   7.691   0.434   2.179 -0.1585 -0.1141 -0.0443
25812W        W42659   0.483   4.417   0.785  0.2112 -0.1858  0.3015
25813W        W42660  16.597  13.888   0.111 -0.1698 -0.2086  0.2651
25814W        W42661   6.422   6.061   2.485 -0.1609 -0.2968 -0.1598
25815W        W42662   2.468   2.237  13.430 -0.0743  0.1358 -0.1920
25816W        W42663  15.382  14.382  13.998  0.0493 -0.1020 -0.0835
25817W        W42664  16.535   2.428   3.190 -0.1016  0.2815  0.1777
25818W        W42665  14.988   7.515  14.499 -0.1708  0.0526 -0.1969
25819W        W42666   6.718  12.853  10.759  0.1146  0.5595 -0.1166
25820W        W42667  10.273   7.071   2.660 -0.2124 -0.0527 -0.0378
25821W        W42668  16.789  14.261   2.312  0.1954 -0.1802  0.0622
25822W        W42669  14.904  18.825  13.971 -0.0718  0.1746 -0.3794
25823W        W42670   9.512  17.907   1.436 -0.1720 -0.1571 -0.1918
25824W        W42671   6.069   8.592   2.455 -0.0460  0.1551 -0.0888
25825W        W42672  14.533  15.622   4.997  0.2559  0.2595  0.1256
25826W        W42673   0.417  17.153  11.091  0.0280  0.2395 -0.2726
25827W        W42674  12.822   0.751  11.352 -0.3181  0.2737 -0.0276
25828W        W42675  18.342  14.097  12.164  0.1538 -0.3577 -0.0379
25829W        W42676   8.023  17.272   0.724 -0.2200  0.2570  0.0477
25830W        W42677   9.708  13.239   0.231 -0.0492  0.3282 -0.0227
25831W        W42678  17.918  10.837   3.069  0.0906 -0.0275 -0.1038
25832W        W42679   9.146   5.999   2.003  0.2431  0.0115  0.1439
25833W        W42680  14.559  13.708  13.372 -0.0888  0.1950  0.2908
25834W        W42681   0.835   3.488   1.602 -0.0034  0.0467 -0.1139
25835W        W42682  16.956  12.949  14.018  0.1664  0.0108  0.0477
25836W        W42683  11.250   5.037   3.297  0.1613  0.2298  0.3405
25837W        W42684   8.220  18.678   0.082 -0.1568  0.1590 -0.0298
25838W        W42685  18.758  16.635   0.110  0.1371  0.0715  0.0247
25839W        W42686   0.436   2.439   0.545  0.0024 -0.1657 -0.2913
25840W        W42687  13.470   1.128  12.505 -0.2650 -0.2030  0.0309
25841W        W42688  13.529  16.185   0.538  0.0375 -0.3006  0.0908
25842W        W42689  12.923   3.487   2.024 -0.2246 -0.0917  0.0095
25843W        W42690  15.652  13.437   4.508  0.0875 -0.0551 -0.0660
25844W        W42691   3.007   1.380  14.322 -0.1091 -0.1466 -0.2330
25845W        W42692  12.228   1.681   4.301  0.1062  0.0004 -0.2309
25846W        W42693  16.571   0.345   4.219  0.1329 -0.1628  0.0425
25847W        W42694  15.629  14.781  12.277 -0.3890 -0.0472  0.0023
25848W        W42695   6.081  12.114   5.693  0.3359 -0.0429  0.0253
25849W        W42696   8.392   3.875  12.725 -0.0184  0.3330  0.1937
25850W        W42697   3.834  16.567  10.458  0.1198  0.2380 -0.1790
25851W        W42698  19.050   8.868  13.292 -0.0634  0.1426  0.2120
25852W        W42699  14.951   3.783   3.635 -0.0504  0.0180  0.1524
25853W        W42700  14.075  10.174   0.095  0.1504 -0.1821 -0.0756
25854W        W42701   4.804   5.639   3.276  0.0990  0.1807  0.1099
25855W        W42702  13.099  17.789   4.498  0.2915  0.0260  0.0242
25856W        W42703  13.637   4.227   2.254 -0.2924 -0.2640  0.0125
25857W        W42704  11.765   9.122  13.292  0.1098 -0.4386  0.0585
25858W        W42705  18.927   1.216   2.372 -0.1224  0.2184 -0.0256
25859W        W42706  17.602   9.252  10.935  0.2603 -0.1180  0.0552
25860W        W42707  14.841  17.958  12.830  0.2315  0.0852  0.0004
25861W        W42708   7.779   0.178  14.928  0.1204 -0.0070 -0.0969
25862W        W42709   8.247  18.841  13.495  0.1112  0.2291  0.0230
25863W        W42710   3.387  15.664  11.182  0.4688  0.1805  0.0107
25864W        W42711   1.757   2.674   0.374  0.1182 -0.1402 -0.1688
25865W        W42712   1.303   3.366  13.244  0.2307 -0.2548 -0.1170
25866W        W42713   1.022  16.640   0.061 -0.0663 -0.3499  0.2062
25867W        W42714   3.968  12.477  11.153  0.2050  0.0783  0.0340
25868W        W42715  12.814   4.285  14.010  0.1979  0.1981  0.3830
25869W        W42716  16.716   8.712  13.394 -0.1064  0.1024  0.0095
25870W        W42717  13.885  13.135  10.637 -0.2019 -0.3871 -0.1023
25871W        W42718   1.188  13.409   4.895 -0.1627 -0.1656  0.0835
25872W        W42719   0.794  13.578   0.888 -0.0137  0.0892 -0.0765
25873W        W42720  13.677  16.996  13.845 -0.0737  0.1754  0.4077
25874W        W42721  17.135   9.958   4.936 -0.2093 -0.0503  0.1791
25875W        W42722  14.250   8.799  11.692 -0.3742 -0.0792  0.1874
25876W        W42723   4.298   9.960   1.018 -0.0740  0.0713 -0.3250
25877W        W42724  10.983   2.208   0.457 -0.1846 -0.0855 -0.0499
25878W        W42725   3.649  10.265  11.572  0.1654 -0.0025 -0.1191
25879W        W42726  14.877  15.034   4.344  0.2284  0.0669  0.1372
25880W        W42727  16.349   3.647  10.511 -0.1218  0.0730  0.1109
25881W        W42728   9.401   3.367  13.231 -0.4599 -0.1491  0.4715
25882W        W42729  12.155  18.545  14.957 -0.0395  0.0429 -0.2448
25883W        W42730  13.467   5.375   2.500  0.2145 -0.0283  0.2312
25884W        W42731   6.459   9.008   1.658 -0.1020 -0.1075  0.0901
25885W        W42732  17.654  11.952  13.493 -0.0721  0.0211 -0.3548
25886W        W42733  15.761   4.398  13.325  0.0039 -0.0583  0.1840
25887W        W42734   6.769  12.402   3.153  0.3008  0.1992 -0.1091
25888W        W42735  19.183   3.352  11.505  0.1025 -0.0620  0.0490
25889W        W42736   3.658   2.641  13.271  0.0910 -0.3886  0.3143
25890W        W42737  12.534  11.792  14.856  0.2532  0.0315 -0.1101
25891W        W42738  14.557   5.234  13.441 -0.1589 -0.2419 -0.1266
25892W        W42739  16.093  14.393  14.448  0.1300 -0.1048  0.0868
25893W        W42740   8.091  16.093  12.153  0.0856  0.2009  0.1021
25894W        W42741   3.926   3.336  10.333  0.0846 -0.3683  0.2822
25895W        W42742  13.132   3.054  13.393 -0.0736 -0.0805  0.1540
25896W        W42743   5.861  12.022  13.985  0.0149  0.0028  0.1518
25897W        W42744   6.497  10.543   1.839  0.0281  0.1488 -0.1998
25898W        W42745  15.038  14.688   1.222  0.3866  0.2318  0.1365
25899W        W42746  12.922   6.085   4.947 -0.2738  0.0567  0.2149
25900W        W42747  12.569   4.562  11.433  0.1534 -0.2184  0.0149
25901W        W42748   6.005  12.613   2.145  0.0377 -0.0459 -0.0863
25902W        W42749   1.704   5.041   3.237  0.2614 -0.1114  0.4086
25903W        W42750  11.246  12.354  13.334  0.1249  0.0315 -0.3595
25904W        W42751  16.089   3.970  14.798 -0.0514 -0.0512  0.0541
25905W        W42752  15.116  16.740   0.909  0.0508  0.0281  0.0334
25906W        W42753   3.152   7.240   5.368  0.3123 -0.1214  0.2622
25907W        W42754  12.364  10.053  13.303 -0.3679 -0.4180  0.0341
25908W        W42755   4.178   8.789  10.763  0.2546  0.2466  0.0017
25909W        W42756   0.308   0.604  13.348  0.0046 -0.0413 -0.4280
25910W        W42757  19.248   3.900   2.184  0.0887 -0.1378  0.1186
25911W        W42758   1.822   5.447  14.698 -0.1555  0.3310  0.0316
25912W        W42759   4.758  15.471   1.066  0.2980 -0.1625  0.0232
25913W        W42760  16.046   3.996  13.923  0.0751 -0.0148  0.0977
25914W        W42761  13.320  16.291   2.714 -0.0244  0.1088  0.2347
25915W        W42762   6.810   9.993  10.304 -0.1928  0.1476 -0.4677
25916W        W42763   1.751   7.269   0.449 -0.0512 -0.0972 -0.1405
25917W        W42764  13.262   9.882   4.199 -0.0495  0.2289 -0.1442
25918W        W42765  15.431  11.107   1.719  0.1303  0.1235  0.0493
25919W        W42766  10.478  11.445   0.605 -0.3272  0.3183 -0.1893
25920W        W42767   6.190  15.383  10.718  0.0335 -0.2007  0.1476
25921W        W42768   0.743  17.890   1.909  0.2234  0.0289  0.3317
25922W        W42769  19.209   8.955  11.047  0.4613  0.0318 -0.1248
25923W        W42770  12.630   9.049  12.383  0.1609  0.0869  0.4739
25924W        W42771   2.435  10.072  12.799 -0.0580 -0.0125  0.0308
25925W        W42772   3.339  11.181   4.954  0.2472 -0.0756  0.0518
25926W        W42773   7.653  16.894   5.388  0.3113 -0.1497  0.1611
25927W        W42774  11.714  15.753  12.287  0.0855 -0.1856 -0.2427
25928W        W42775  10.660   2.342   3.469  0.1258 -0.1535 -0.2216
25929W        W42776   3.219   6.535   0.599  0.1091  0.1596  0.2213
25930W        W42777   6.127   4.741  11.470  0.0387  0.1399 -0.2096
25931W        W42778   4.157   1.657  11.891 -0.0495 -0.0882 -0.1388
25932W        W42779   3.142  18.150  10.855 -0.0468 -0.4296 -0.0144
25933W        W42780  19.171  10.866   2.773  0.1088  0.3954  0.0035
25934W        W42781  13.859  13.363  12.403 -0.0883  0.2243 -0.0784
25935W        W42782  10.079  10.859   3.819 -0.3046  0.2423 -0.1036
25936W        W42783   6.088  19.012   2.741 -0.3953 -0.1918 -0.1004
25937W        W42784  18.982  11.716  12.105 -0.2754 -0.0270 -0.2190
25938W        W42785  14.049  12.252  10.701  0.0064  0.1323 -0.3562
25939W        W42786   4.022  15.527   0.003  0.1653  0.0640  0.2822
25940W        W42787   2.354   3.983   0.670  0.1263 -0.0422 -0.0627
25941W        W42788   4.095   5.244   4.329 -0.2883  0.1263 -0.1477
25942W        W42789  18.841   9.731  14.731  0.0454 -0.1576  0.2213
25943W        W42790  11.445  15.546   4.085  0.4463  0.2965 -0.1713
25944W        W42791   0.248  17.824   4.355  0.0612  0.2495 -0.3740
25945W        W42792  10.954   0.803  14.379  0.4462 -0.0949  0.2744
25946W        W42793  11.940   8.722  12.360 -0.2883 -0.4308  0.0965
25947W        W42794  16.328  18.001   0.848 -0.3612 -0.1270 -0.1770
25948W        W42795   2.488   3.968  13.401 -0.1661  0.1722 -0.0697
25949W        W42796  17.735   8.312   0.537 -0.0796 -0.1747 -0.1078
25950W        W42797   7.224  18.000   3.392 -0.3469 -0.2223 -0.2005
25951W        W42798  12.151   5.351  12.563 -0.3096 -0.0437 -0.0367
25952W        W42799  18.167  17.057   4.261  0.3270 -0.0572 -0.1384
25953W        W42800   6.004  11.004   0.442 -0.1449 -0.1384 -0.0982
25954W        W42801   6.995  10.446   3.223 -0.1950  0.1740 -0.0916
25955W        W42802   8.140  13.415   3.238 -0.0074  0.0972  0.0877
25956W        W42803   8.735   2.231   1.036  0.1689  0.1810 -0.1098
25957W        W42804  16.738   4.209   1.578 -0.1669  0.1923  0.0377
25958W        W42805   1.138   4.522  12.967  0.2011  0.2996 -0.0438
25959W        W42806  18.460   0.876  13.137 -0.2180 -0.0005  0.1648
25960W        W42807  16.367   0.159   1.938 -0.2410 -0.0161  0.0407
25961W        W42808   7.490   2.002   5.115  0.3524 -0.5266  0.1421
25962W        W42809  15.229   4.640   5.358 -0.3636 -0.1201  0.0311
25963W        W42810  18.829  18.433   3.047 -0.0758 -0.3075 -0.0815
25964W        W42811  16.223  14.111   4.603 -0.1402  0.0513  0.0605
25965W        W42812   6.560  14.784   4.120  0.1500  0.0972  0.4725
25966W        W42813   7.170  16.737  10.918 -0.2316 -0.0633  0.1352
25967W        W42814   1.179   8.008  13.967 -0.0762 -0.0059  0.1760
25968W        W42815   9.803   7.296   1.628 -0.3246 -0.1466 -0.0548
25969W        W42816  10.813  12.002   5.114 -0.2881  0.1706 -0.0869
25970W        W42817  13.449  19.072  12.076 -0.2570  0.0769  0.1735
25971W        W42818   1.658  10.137   2.141  0.0216  0.1798 -0.4167
25972W        W42819   4.678   3.649  10.941 -0.0537  0.4038  0.2789
25973W        W42820   9.678  13.925  12.658  0.0207 -0.0120 -0.3211
25974W        W42821  17.449  12.418   2.197 -0.1423  0.1622 -0.1709
25975W        W42822   2.017   8.781   3.857 -0.0638  0.2142  0.1479
25976W        W42823  18.405  16.867  13.886  0.1860 -0.4773 -0.1103
25977W        W42824  17.751   1.862  13.874  0.3625  0.5027 -0.1896
25978W        W42825  10.230  18.230  13.489  0.1968 -0.1471  0.3397
25979W        W42826  12.941  17.880  13.076 -0.3750  0.1908 -0.0586
25980W        W42827   6.155  12.915   1.011 -0.0168  0.2642  0.0870
25981W        W42828   5.781   1.469   3.104  0.1951 -0.2844 -0.3991
25982W        W42829  10.642  13.314   5.351 -0.0221 -0.0670 -0.1668
25983W        W42830   5.380   4.088  12.101 -0.3403 -0.0746 -0.0505
25984W        W42831   0.511   9.413  12.679 -0.2275 -0.0889 -0.0731
25985W        W42832   5.706  18.440   2.100  0.1321  0.4335  0.1371
25986W        W42833  17.076  11.073   3.581 -0.2693  0.1078 -0.0026
25987W        W42834   0.852  13.458   4.374 -0.2271  0.2659 -0.2456
25988W        W42835  15.053   3.233   3.572 -0.0869 -0.2229  0.2918
25989W        W42836   9.487   4.777  11.226 -0.0947 -0.1256  0.0346
25990W        W42837   6.591   2.361  10.951 -0.1073 -0.0245 -0.1124
25991W        W42838   2.217   7.496  11.544 -0.0910 -0.0412 -0.1965
25992W        W42839  15.774  15.408   2.085 -0.1571 -0.0190  0.2793
25993W        W42840   5.872   4.384  12.309  0.3353  0.1347  0.2224
25994W        W42841   3.222  10.878   3.461  0.0249  0.0163  0.2027
25995W        W42842  11.859  18.851  11.837 -0.0436  0.0474  0.0360
25996W        W42843   3.826  15.444   2.847  0.2370 -0.2257 -0.1993
25997W        W42844  13.656  11.670  14.801 -0.1495  0.0773  0.2289
25998W        W42845  13.971  14.935   1.140  0.0453  0.1375  0.2871
25999W        W42846  11.566   6.142  14.685  0.1239  0.0638 -0.1099
26000W        W42847   6.286  14.159   0.396 -0.7095 -0.0534  0.1068
26001W        W42848   0.481  18.101  14.833  0.3590  0.0945  0.1291
26002W        W42849   9.187   7.180   5.189  0.0037 -0.0633  0.0797
26003W        W42850   1.700  10.533  12.301 -0.1575  0.0779 -0.2647
26004W        W42851  16.569   5.938  12.380 -0.3069  0.0387  0.2221
26005W        W42852   8.696   0.096  13.722 -0.2288 -0.0149  0.2444
26006W        W42853  16.870  12.373   2.111 -0.1643 -0.0130 -0.0374
26007W        W42854   0.725   0.681   4.484  0.0810  0.1019  0.2697
26008W        W42855  13.575  18.943  14.546  0.1385 -0.0732  0.0054
26009W        W42856   5.806  19.121   2.133 -0.2766 -0.0888 -0.2398
26010W        W42857  16.717  19.093   9.827  0.0731  0.2622  0.2758
26011W        W42858  10.644   8.806   0.172  0.0303  0.0629 -0.1764
26012W        W42859   4.006   6.039   1.164  0.3019 -0.2748 -0.0691
26013W        W42860   9.711   2.152  12.016 -0.0989 -0.3427 -0.2501
26014W        W42861  15.284   6.396  13.598 -0.2718 -0.0739  0.2374
26015W        W42862   5.020  18.262  11.036 -0.0303  0.2761 -0.0772
26016W        W42863  16.486  12.857   9.989  0.1117 -0.1683  0.2485
26017W        W42864  16.278   2.345   1.587  0.2616 -0.0970  0.0085
26018W        W42865  14.864   6.015  12.719  0.1004  0.1735  0.0690
26019W        W42866   3.250   8.474   0.407  0.0836  0.0573  0.0158
26020W        W42867  13.397  15.048   1.253  0.0556 -0.2438  0.0646
26021W        W42868  15.962   9.341  12.878  0.2222  0.1405  0.0373
26022W        W42869   4.946  12.171  11.989 -0.1246  0.1473 -0.1523
26023W        W42870   8.388   3.512  10.286  0.1089  0.0478 -0.3096
26024W        W42871   9.165   1.123   5.499 -0.1276 -0.0715  0.4296
26025W        W42872   5.371   8.162  14.397  0.2052 -0.1860  0.3985
26026W        W42873  19.154  18.699   0.086 -0.0624  0.0744 -0.0236
26027W        W42874   4.975  10.977   1.670 -0.3057  0.0312  0.0493
26028W        W42875   6.935   3.614  11.239 -0.0532 -0.1462 -0.0808
26029W        W42876  16.982  14.775  14.631 -0.4214 -0.0605  0.1412
26030W        W42877  11.911  17.672  12.068  0.3124 -0.2091  0.3397
26031W        W42878  14.026  19.079   1.558  0.0607  0.2967 -0.1889
26032W        W42879  15.725  15.833  11.328 -0.1343 -0.1748  0.2490
26033W        W42880  17.205  11.426   2.041  0.1505 -0.0252  0.0361
26034W        W42881   7.117  12.970  14.340 -0.2761 -0.0252 -0.0378
26035W        W42882  14.208  15.991   5.932 -0.0384  0.1968  0.1549
26036W        W42883  10.746   2.147   0.956 -0.2821  0.0554 -0.2556
26037W        W42884  15.876  15.779  13.189  0.3251  0.0656 -0.0412
26038W        W42885  13.556   7.618   4.450 -0.1208 -0.1372 -0.0325
26039W        W42886   7.001   0.697  14.108  0.1988 -0.1081 -0.1776
26040W        W42887  10.132  15.254   0.091  0.2784  0.2030  0.0372
26041W        W42888  12.088  14.604  14.804 -0.3055 -0.0336  0.0801
26042W        W42889   5.166  13.779   2.407  0.2488  0.0217 -0.0657
26043W        W42890  16.951  16.875  11.105  0.4238  0.1330 -0.1502
26044W        W42891  11.860   4.118  13.718  0.0165  0.0491  0.1126
26045W        W42892   1.729   9.613   4.840 -0.1898  0.0035  0.1059
26046W        W42893  17.204  11.242   0.897 -0.2238 -0.2128  0.0075
26047W        W42894  15.875   7.459  11.581 -0.4174  0.0144  0.2195
26048W        W42895  18.946  14.032   2.128 -0.1943  0.0474  0.0219
26049W        W42896  15.466  11.524  12.687  0.2382 -0.2602  0.0639
26050W        W42897   0.337   9.118  13.639  0.3171 -0.1747 -0.0411
26051W        W42898  17.143   7.751   1.764  0.0126  0.0919  0.0154
26052W        W42899   0.320   2.822   2.533 -0.2416 -0.2777  0.0483
26053W        W42900  14.930   0.921   4.005  0.0603  0.1866  0.3346
26054W        W42901   3.488   2.045  10.393 -0.5043  0.4622 -0.0322
26055W        W42902  13.618   6.459   3.874 -0.0589  0.1757 -0.1262
26056W        W42903  16.697   4.888  14.492 -0.0805 -0.0479  0.2910
26057W        W42904  17.232  17.794   6.313 -0.2218 -0.1345 -0.3527
26058W        W42905  12.573   7.802  13.162 -0.2072 -0.0037 -0.1316
26059W        W42906  14.414  14.791   1.280 -0.0160 -0.2193  0.0033
26060W        W42907   6.367  17.527   3.413  0.0067 -0.2247 -0.2248
26061W        W42908  15.105   2.763  14.872  0.1363  0.0649 -0.3439
26062W        W42909   0.697  12.701  11.518 -0.1245 -0.0365 -0.0514
26063W        W42910  11.625   1.213  14.439 -0.1343 -0.4374 -0.1583
26064W        W42911  14.783  12.511   3.881 -0.1570  0.0828  0.1581
26065W        W42912   3.806   6.595  12.918  0.2650  0.2845 -0.3343
26066W        W42913  17.778  13.977  14.317 -0.3206 -0.1550 -0.1785
26067W        W42914   9.692   4.487  14.823  0.0349 -0.1592 -0.5217
26068W        W42915   3.572   4.860  10.957  0.0492 -0.1728  0.0867
26069W        W42916  10.597  11.330  12.371 -0.1453 -0.2207 -0.4061
26070W        W42917  19.128   1.179   2.884  0.0227  0.1171  0.1667
26071W        W42918  13.755   9.346   5.795 -0.2207 -0.1568 -0.0394
26072W        W42919   7.919   2.102  13.974  0.2719 -0.1571 -0.1640
26073W        W42920  12.509   2.347   3.023 -0.2440  0.3011  0.1065
26074W        W42921  12.619  16.979  11.969 -0.1041 -0.2612 -0.3144
26075W        W42922   1.217   5.036   3.339 -0.0555 -0.3319  0.0223
26076W        W42923   7.556   1.155   1.881 -0.0413  0.1570  0.1138
26077W        W42924   5.482  15.602  12.646 -0.0440  0.3347  0.1505
26078W        W42925  12.168  16.468  12.710  0.1690  0.1113  0.0279
26079W        W42926  16.281  16.257  12.334  0.1163 -0.0580 -0.1107
26080W        W42927  10.690   6.019  13.388  0.0303 -0.3250  0.0628
26081W        W42928   1.675  15.756  14.340 -0.3294  0.0151  0.0202
26082W        W42929   2.981   4.183  13.788  0.0313  0.1286  0.1305
26083W        W42930  16.414   3.501   4.701 -0.0149  0.0861  0.2813
26084W        W42931  14.694   7.350   2.978  0.1620 -0.1556  0.1346
26085W        W42932   4.575   2.646   2.166 -0.0339 -0.1130  0.0203
26086W        W42933   6.615  14.034   2.134 -0.1332  0.0263 -0.0819
26087W        W42934   9.615   2.940   4.257 -0.2303 -0.0410  0.0308
26088W        W42935  19.040  12.334   4.943 -0.0893  0.3531 -0.0942
26089W        W42936   1.723  10.085  13.898 -0.3416  0.2389  0.2167
26090W        W42937  18.392  13.579  13.446 -0.0901  0.1794 -0.0844
26091W        W42938  19.137  10.163   0.968 -0.1465  0.4307 -0.0452
26092W        W42939   2.779  19.131  13.474  0.0028  0.4677 -0.0390
26093W        W42940   8.154  16.710   2.712  0.0242 -0.2035 -0.1064
26094W        W42941  18.602  18.732  12.950 -0.0742 -0.0609 -0.1975
26095W        W42942   7.536   8.608  13.101  0.1303 -0.2806 -0.0954
26096W        W42943   7.595   8.404   1.783 -0.1667  0.3548  0.0355
26097W        W42944  16.003   2.249  13.703  0.1024  0.0162 -0.1926
26098W        W42945  13.807   3.832  11.928  0.2326  0.3125  0.3099
26099W        W42946  15.512   9.904  13.767  0.0886  0.1451 -0.1183
26100W        W42947  14.710  11.323  11.780 -0.1480  0.0379  0.1205
26101W        W42948   7.113  10.236  10.607 -0.1100 -0.0989 -0.0579
26102W        W42949  14.640  14.582   4.187  0.2568 -0.1287 -0.0136
26103W        W42950  15.653   5.383  10.867  0.0876  0.1748 -0.2821
26104W        W42951  11.932  14.926  14.339 -0.0764 -0.0021 -0.1408
26105W        W42952  17.410  13.621  10.281  0.1183 -0.1272  0.1168
26106W        W42953   3.116  11.065  13.367  0.1717 -0.0193 -0.1178
26107W        W42954   0.940   4.400   9.766  0.2323  0.0879  0.2158
26108W        W42955  14.108   6.032   2.166  0.3934  0.1083  0.0176
26109W        W42956  16.643  18.470  14.988 -0.2725 -0.1384 -0.2251
26110W        W42957   3.738   9.719  10.963 -0.0508 -0.3000  0.1115
26111W        W42958   0.348  10.730  14.266 -0.5652 -0.0664  0.0152
26112W        W42959  16.866  10.649  12.832  0.1321  0.0074 -0.3089
26113W        W42960   7.512  18.149   3.860  0.0757 -0.2843 -0.0832
26114W        W42961   4.527   3.262   4.621 -0.1683 -0.1658  0.1404
26115W        W42962   3.573   0.696  14.866  0.1756  0.0524 -0.2728
26116W        W42963  11.297   7.200  10.310  0.0772 -0.0440  0.1036
26117W        W42964  12.771  12.772   0.682  0.2514  0.0054  0.1040
26118W        W42965  11.350  11.523   1.951 -0.0791  0.0025 -0.1353
26119W        W42966   2.677   0.257  10.884  0.2361 -0.1707 -0.2804
26120W        W42967   2.267  17.632   0.025  0.0657 -0.2878  0.5530
26121W        W42968  13.341   9.238   2.670  0.0464  0.1944  0.0119
26122W        W42969   6.083  12.526   2.701  0.3359 -0.2272  0.1472
26123W        W42970  11.340   7.706   2.138 -0.2500 -0.2537 -0.0126
26124W        W42971  10.818  12.794  11.729  0.2069  0.0338 -0.0290
26125W        W42972  17.350   0.194   1.564  0.4794  0.2396 -0.2332
26126W        W42973   3.411  17.933  11.209 -0.1830  0.2435 -0.1508
26127W        W42974  11.962  11.167   1.985 -0.1198  0.2118 -0.2419
26128W        W42975  19.160   6.381   2.536 -0.1450  0.0711 -0.0517
26129W        W42976  19.015  14.373  14.832  0.1921 -0.0321 -0.0750
26130W        W42977  19.242  16.012   1.421 -0.2723  0.0143  0.1292
26131W        W42978   6.584  16.494  13.425  0.2288  0.0341  0.1007
26132W        W42979   0.468  11.733   4.513 -0.0426  0.1750 -0.2797
26133W        W42980   9.836  17.269  12.038  0.0216  0.0298  0.1782
26134W        W42981  10.890  16.787  12.873  0.0001 -0.1842  0.0986
26135W        W42982   4.739  10.203  10.545 -0.2015 -0.1360  0.1060
26136W        W42983   9.195  12.212  10.737  0.1058  0.2892 -0.0063
26137W        W42984   9.424   5.682   1.448  0.2797 -0.2208 -0.0440
26138W        W42985   6.566  18.466   2.452 -0.1969  0.0008  0.2162
26139W        W42986  15.023   4.753  11.080  0.0037  0.2426  0.0718
26140W        W42987  15.227  16.958   4.658 -0.1169  0.0668  0.0836
26141W        W42988   4.379   0.283   1.671 -0.1258  0.4042  0.2578
26142W        W42989   9.769  10.210  13.989 -0.2172 -0.2305 -0.2138
26143W        W42990  14.021   5.717   4.286  0.1223  0.1003  0.1534
26144W        W42991  17.521   4.721   2.327  0.0799 -0.0033  0.1671
26145W        W42992  14.398  13.987   3.411  0.1068  0.2870  0.1600
26146W        W42993  18.018   6.171  12.680  0.1294 -0.1940  0.1834
26147W        W42994   8.005   1.667   3.749  0.0075 -0.1960  0.0287
26148W        W42995  10.918  17.009   0.864  0.0963 -0.1720  0.1448
26149W        W42996  12.488   1.119   5.916  0.1273 -0.1365  0.2990
26150W        W42997   6.401   7.036   3.146 -0.2370  0.1132 -0.1233
26151W        W42998   6.027   9.208  10.455  0.0156 -0.1686 -0.1916
26152W        W42999  14.063  16.725   5.355 -0.0990 -0.2968 -0.2201
26153W        W43000  17.034   6.949   5.198 -0.1052 -0.1304 -0.0005
26154W        W43001   7.739   7.438   4.639  0.0957 -0.0349 -0.0622
26155W        W43002  18.879   2.003   5.288  0.1288 -0.1561 -0.2346
26156W        W43003   4.758   1.623  12.171  0.1562  0.0869  0.3931
26157W        W43004   4.743  10.927  12.029 -0.2397  0.2669  0.3773
26158W        W43005   4.159  13.340   3.236  0.0379 -0.1884 -0.0483
26159W        W43006  11.786   5.445  11.208 -0.3040 -0.1473  0.0577
26160W        W43007   2.841   3.601  13.306  0.0683 -0.0517  0.0761
26161W        W43008  17.394   8.795   1.678 -0.0589  0.1004 -0.1200
26162W        W43009   5.343  15.799  12.060  0.0079  0.1500  0.0152
26163W        W43010  10.877   1.092   2.998  0.1818 -0.1344  0.0776
26164W        W43011  12.193   0.254   0.561  0.0113 -0.0266  0.2648
26165W        W43012   5.740   8.937  13.837 -0.0660 -0.1660  0.1102
26166W        W43013   6.802   8.138  12.423 -0.1954  0.1066 -0.1218
26167W        W43014   2.414   8.391  14.634  0.1166  0.1415  0.3241
26168W        W43015   9.642   9.348   0.695 -0.1163  0.2600 -0.1348
26169W        W43016   7.377  16.113   2.005  0.2321  0.0383 -0.0290
26170W        W43017   9.003   3.655   3.358 -0.1051  0.1492 -0.0553
26171W        W43018  14.070  14.340   9.747  0.1184 -0.2678 -0.2403
26172W        W43019  18.020   1.652   4.691  0.1802  0.0912 -0.1734
26173W        W43020   4.153  15.665  13.485 -0.2834  0.0665 -0.3521
26174W        W43021  11.921   4.164  13.127  0.2961 -0.2508  0.0700
26175W        W43022   7.056  15.615  11.161  0.4620  0.2044  0.1993
26176W        W43023  12.820   2.400  11.790 -0.0717 -0.0064  0.0570
26177W        W43024   2.745  16.954  12.230 -0.0074  0.0589  0.2032
26178W        W43025  14.149   1.450  12.986  0.0699 -0.0099  0.0428
26179W        W43026   5.675   9.101  10.853  0.0909 -0.1975  0.2914
26180W        W43027   9.460   5.187   3.471  0.0944  0.0691 -0.1645
26181W        W43028   5.197   7.060   4.646 -0.3144  0.0080 -0.1063
26182W        W43029   4.797  17.611  12.885  0.1349  0.0274  0.0349
26183W        W43030   2.738   0.875   3.479 -0.0887  0.0424  0.0430
26184W        W43031  15.095  14.752  13.943 -0.1096 -0.0025 -0.2552
26185W        W43032  10.745  13.175   2.159  0.0925  0.3520 -0.2812
26186W        W43033  16.351  12.792  11.345  0.0157  0.2423  0.0946
26187W        W43034  12.296   8.345  11.919 -0.1285 -0.0412 -0.2639
26188W        W43035  18.538  14.469  13.429 -0.0146  0.3596 -0.1250
26189W        W43036   8.846   0.594  13.608 -0.1450  0.0598 -0.0230
26190W        W43037  18.774   0.207   0.293  0.0835 -0.0790 -0.2879
26191W        W43038  13.356   5.499  10.255  0.2199 -0.4622 -0.0025
26192W        W43039   8.077   9.691   4.529 -0.3514 -0.1031  0.0089
26193W        W43040  16.667  16.558  11.970 -0.2538 -0.0905 -0.1624
26194W        W43041  12.124   0.206   3.463  0.1953 -0.1357 -0.0191
26195W        W43042  14.445   1.554  14.076 -0.0161  0.5282  0.1863
26196W        W43043  14.297   0.554   1.488  0.2992 -0.2573 -0.1062
26197W        W43044  10.717   7.998   0.465 -0.0693 -0.0013 -0.0756
26198W        W43045   6.125  11.034   4.285 -0.0517  0.1664 -0.2090
26199W        W43046  11.692   6.571  11.399  0.1053  0.1080  0.1284
26200W        W43047   5.644   5.110   2.681  0.1758 -0.0033  0.0124
26201W        W43048   5.307  15.585  10.617 -0.3087 -0.1707  0.0980
26202W        W43049  16.963  15.435  11.101 -0.2070 -0.1657  0.3368
26203W        W43050  18.899  12.519   0.565  0.4145 -0.2569 -0.1590
26204W        W43051   2.453  13.212   5.040  0.2516  0.1351  0.2035
26205W        W43052   1.070   6.861  13.620  0.0711 -0.0193 -0.0639
26206W        W43053  11.232  14.682  14.425 -0.0787 -0.1299 -0.2316
26207W        W43054  10.007   3.392   0.342 -0.1653 -0.1551 -0.0244
26208W        W43055   5.304   5.022  11.675 -0.2859  0.4543  0.1731
26209W        W43056  12.604  13.863   1.409 -0.3171  0.2239  0.2137
26210W        W43057  14.706   3.972   0.115 -0.0805 -0.3613  0.1521
26211W        W43058  11.419   9.955   1.226 -0.1017 -0.2247 -0.2644
26212W        W43059   7.121  18.216  12.045 -0.1801 -0.0676  0.0356
26213W        W43060   5.457  12.198  11.183  0.2435 -0.0050 -0.0558
26214W        W43061   8.187   2.382   1.809  0.3725 -0.1284  0.1657
26215W        W43062   2.331  14.045   1.481 -0.1747  0.0286  0.1644
26216W        W43063  19.271   1.922   4.271 -0.3888  0.0891 -0.0357
26217W        W43064  14.835   8.310   3.258 -0.1901 -0.2339 -0.1776
26218W        W43065  14.042   4.067   3.128 -0.1479  0.1625  0.1779
26219W        W43066   5.846   0.802  13.552 -0.0140  0.1305 -0.0714
26220W        W43067   7.047  13.455   0.171  0.0634 -0.4616  0.1516
26221W        W43068   1.709   6.622   0.741  0.0458 -0.0239  0.3597
26222W        W43069  14.461  12.912  12.580  0.3856  0.1510 -0.0324
26223W        W43070  14.475  11.879   1.898  0.0532  0.1766  0.2260
26224W        W43071   0.127   3.435   1.089  0.3209 -0.1348 -0.0083
26225W        W43072  15.289  12.667   3.921  0.0954 -0.1697 -0.0418
26226W        W43073   1.560  12.723   0.743  0.0553 -0.0939 -0.0047
26227W        W43074  14.328  18.353  14.550 -0.1176  0.2163 -0.4070
26228W        W43075  10.610  18.520   2.316  0.0703 -0.1939  0.2533
26229W        W43076   6.330   8.260   3.543 -0.1288  0.2034 -0.0643
26230W        W43077   0.378   9.167   2.945  0.0308 -0.2343  0.1291
26231W        W43078  13.862  16.762   2.440  0.0473  0.0030  0.0955
26232W        W43079  17.166  19.192  12.380 -0.2628  0.2516  0.2165
26233W        W43080  15.934   6.653   3.796  0.1018  0.4284 -0.2449
26234W        W43081  13.419  14.672  12.722  0.1514 -0.1907 -0.0935
26235W        W43082   0.031  13.848  10.202 -0.1840 -0.4222 -0.1996
26236W        W43083   3.091  14.694   3.774 -0.1305 -0.0727 -0.1558
26237W        W43084   5.062   1.308  14.111 -0.1471 -0.0462 -0.0848
26238W        W43085  14.941  14.606   0.407 -0.0629  0.1912  0.0425
26239W        W43086   4.187   3.085   1.484  0.2723 -0.3208  0.0186
26240W        W43087  15.927  11.262   1.758  0.1003  0.3717 -0.1698
26241W        W43088  11.372  11.730  13.398 -0.0410 -0.2942 -0.2079
26242W        W43089   7.839   0.483  13.916 -0.1952  0.1286 -0.1828
26243W        W43090  17.808   1.315  11.009  0.3387 -0.6094  0.1793
26244W        W43091   5.978   7.253   3.940  0.2754  0.0948 -0.1896
26245W        W43092   7.046   1.421   3.657  0.0248 -0.1533  0.2630
26246W        W43093  15.054  13.314  10.168  0.3237 -0.2505 -0.1686
26247W        W43094  14.050   8.255  10.800  0.1960  0.0843 -0.0743
26248W        W43095   8.427   7.359   0.658 -0.1742 -0.0608 -0.1631
26249W        W43096  13.505   8.493   1.138 -0.3953 -0.0059  0.2357
26250W        W43097   4.093  17.577   4.566 -0.0456 -0.2239 -0.2637
26251W        W43098   2.554   4.428   0.511 -0.0408 -0.0849  0.1227
26252W        W43099  14.609   4.547  11.267 -0.1130  0.1887 -0.1507
26253W        W43100  12.263   1.957  11.522 -0.1968 -0.1220  0.2078
26254W        W43101   1.559  14.413  13.624  0.0295 -0.0139  0.1919
26255W        W43102   5.129   9.923  12.294  0.9040  0.1427 -0.0543
26256W        W43103  13.697  16.503  11.432 -0.1244 -0.1751  0.2800
26257W        W43104   1.398   9.912   1.774 -0.1926 -0.1779  0.0577
26258W        W43105   1.720   7.634   1.896  0.0569  0.2227  0.0349
26259W        W43106   8.934   5.676   1.629 -0.0976 -0.1703 -0.0722
26260W        W43107   8.279  13.987  13.213  0.1765 -0.0597 -0.1495
26261W        W43108   2.602  13.618   4.810  0.0326  0.0918  0.1727
26262W        W43109   4.331   8.420   0.059 -0.0275  0.3467 -0.0675
26263W        W43110  17.344   3.639  14.818  0.0214 -0.0372 -0.0185
26264W        W43111  13.916   1.576  10.961 -0.0944 -0.3764 -0.3635
26265W        W43112   6.203   7.623  14.560  0.0540 -0.3182  0.0386
26266W        W43113   2.753   0.135   1.025 -0.0890  0.0721  0.1227
26267W        W43114  12.949  10.700   4.064 -0.1199 -0.1223 -0.1436
26268W        W43115  19.217   3.943   0.962 -0.0634 -0.3145  0.2268
26269W        W43116   2.220  11.602  10.284  0.3079 -0.0938 -0.0413
26270W        W43117   8.066   5.193   4.044 -0.0862 -0.0144  0.2895
26271W        W43118  11.839   9.373   1.084 -0.3085  0.2037 -0.0119
26272W        W43119   8.208   5.629   3.874 -0.2878  0.0636  0.0976
26273W        W43120  17.076  16.491   3.777 -0.1671  0.2916 -0.0227
26274W        W43121   3.476   9.809  12.318 -0.2967  0.1661  0.3267
26275W        W43122  14.696   4.697  13.456 -0.0253  0.0002 -0.2865
26276W        W43123  10.356   6.228   5.105 -0.1471 -0.1331 -0.0637
26277W        W43124  12.014  17.680  14.560 -0.2538  0.2522  0.1629
26278W        W43125  15.789  10.912   2.628 -0.1056  0.0900  0.0039
26279W        W43126   2.071  12.222   0.444  0.0438 -0.1993 -0.5960
26280W        W43127  14.291  12.272   3.826 -0.0803 -0.0637  0.3432
26281W        W43128   3.330   6.672  11.616 -0.0531  0.1271 -0.0577
26282W        W43129  11.781  12.734   4.632  0.0624  0.0444 -0.0271
26283W        W43130   4.547   4.828  13.218  0.0465 -0.5044  0.1572
26284W        W43131   8.401   1.039   2.982 -0.0393  0.1328  0.2866
26285W        W43132  12.472   3.804   1.288 -0.0459  0.1323 -0.1584
26286W        W43133  10.735   3.212  11.115 -0.1369  0.1467  0.0198
26287W        W43134   6.475  15.176  11.719  0.3189 -0.0831  0.0433
26288W        W43135   3.689   1.463   0.386  0.2379 -0.2040 -0.1287
26289W        W43136   5.909   2.337   5.628  0.0098  0.2290  0.0680
26290W        W43137  18.026   8.815   5.325 -0.0873  0.0917 -0.1072
26291W        W43138  10.660   5.367  11.254  0.2165  0.0667  0.0154
26292W        W43139  10.961   4.610   2.004 -0.0753 -0.0814  0.2445
26293W        W43140  12.498  18.869   5.214  0.1114 -0.2596  0.1104
26294W        W43141   1.562   6.367  14.850  0.2267  0.1059 -0.2908
26295W        W43142  16.574  10.695  12.258 -0.0395  0.1959 -0.1254
26296W        W43143  16.753   6.097   3.381 -0.0549  0.5312 -0.3067
26297W        W43144   8.943   3.531   5.403  0.0989 -0.0718  0.0489
26298W        W43145  10.428   3.945  13.273 -0.0706  0.0138 -0.1278
26299W        W43146   7.780   3.958   3.018  0.1908 -0.1837 -0.2510
26300W        W43147  14.635  17.269  12.491 -0.3454 -0.0876 -0.1834
26301W        W43148  10.975  18.054   4.622  0.1440 -0.0935  0.0048
26302W        W43149   2.077  14.918   1.606  0.1928  0.0186 -0.2332
26303W        W43150  12.382  10.666  12.931  0.3663 -0.0375  0.0827
26304W        W43151  15.739   0.705   3.265  0.3081 -0.3659  0.3036
26305W        W43152  10.228   9.540   4.218  0.3147 -0.2599  0.2503
26306W        W43153   4.469  14.082   5.128  0.2334 -0.2309 -0.0351
26307W        W43154   2.201  16.359   1.718 -0.3595 -0.0890  0.0849
26308W        W43155  12.661  13.287  14.131  0.1282 -0.1694  0.1236
26309W        W43156   3.166  13.286  11.807 -0.0625  0.0101 -0.0055
26310W        W43157   3.627   2.360  14.381 -0.1298 -0.1279  0.1187
26311W        W43158  17.554   3.316   3.267  0.0517 -0.1205  0.0252
26312W        W43159   3.236  11.709  14.036 -0.2792 -0.1824  0.1068
26313W        W43160   5.718   2.124   0.987  0.2494 -0.1245 -0.0474
26314W        W43161   7.544  12.715   4.514  0.2318 -0.1859  0.0122
26315W        W43162   6.076   2.292  10.717  0.1608 -0.0988  0.1077
26316W        W43163  15.104   9.642   0.382  0.1404 -0.3059  0.0715
26317W        W43164  17.298   5.352   3.767 -0.0369 -0.1038 -0.1396
26318W        W43165   3.588   3.951  12.682 -0.0801 -0.1284 -0.2075
26319W        W43166   4.370  15.151  12.466  0.1223  0.0694  0.1586
26320W        W43167   5.600  17.076   0.315  0.0472 -0.0989 -0.2402
26321W        W43168   9.079  17.265   0.735  0.0883  0.0901 -0.1969
26322W        W43169  15.629  14.446   5.691 -0.1036 -0.0322  0.1856
26323W        W43170  14.161   9.432   0.706 -0.1816 -0.2576  0.3457
26324W        W43171  14.703  10.752  14.400  0.0280  0.1580 -0.0998
26325W        W43172  16.845   3.511  11.991  0.2367  0.0472 -0.2651
26326W        W43173  18.430   0.931   0.922  0.0707 -0.0516  0.2373
26327W        W43174  18.702   9.898   2.901  0.0648  0.1140  0.3045
26328W        W43175  10.132   7.107   0.845 -0.0254 -0.2830 -0.2253
26329W        W43176   0.242  15.117  14.853  0.1102  0.1145  0.0675
26330W        W43177  11.682   1.162   1.873  0.1881 -0.0917  0.3789
26331W        W43178  15.401  10.436   5.530 -0.1999  0.2885  0.1138
26332W        W43179   3.463   5.358   0.964 -0.0047 -0.0236  0.1005
26333W        W43180  10.586  10.594  12.693 -0.1271  0.0057 -0.0378
26334W        W43181   4.225  15.862   0.294  0.2121  0.3310 -0.0839
26335W        W43182  13.812   5.613  11.053  0.2373 -0.1427 -0.1631
26336W        W43183   6.901  16.607   3.686 -0.0647 -0.1424 -0.3104
26337W        W43184   2.883   3.233   4.154  0.1741  0.0027 -0.1479
26338W        W43185  12.273  15.293   0.313  0.1801 -0.4426 -0.3278
26339W        W43186   9.563   2.269  10.926  0.2706  0.1073  0.1948
26340W        W43187   8.140  16.488   4.371  0.0278 -0.2061  0.2985
26341W        W43188   9.129  12.917   4.394 -0.1820  0.0467 -0.0380
26342W        W43189  11.418  18.839  11.076 -0.0272 -0.2171 -0.3023
26343W        W43190  15.947  15.378   0.839  0.1176  0.2744 -0.0708
26344W        W43191  10.023   0.623   2.670  0.0654 -0.0048  0.0507
26345W        W43192   0.425   9.261   0.068  0.0868 -0.1786 -0.0334
26346W        W43193   5.401  15.897   0.714 -0.2175  0.1760  0.0259
26347W        W43194   1.973  11.551   3.525  0.0067 -0.1217 -0.1570
26348W        W43195  11.249   8.192  13.023 -0.1158 -0.1092  0.0261
26349W        W43196  14.016   2.967  12.956  0.0075  0.0181  0.0075
26350W        W43197   0.381  18.183   4.836  0.0630  0.0249 -0.0875
26351W        W43198  19.123  16.964   3.339 -0.3163  0.1848  0.3031
26352W        W43199  16.100   1.871   3.858 -0.1730 -0.0316 -0.3162
26353W        W43200   4.447  14.740  11.502  0.0563  0.1709  0.2954
26354W        W43201  14.590   4.438   4.046 -0.1753  0.1608 -0.2388
26355W        W43202   8.497   5.648   2.562  0.4506 -0.0290  0.1788
26356W        W43203   2.124  11.623   1.976  0.0473  0.1643  0.2019
26357W        W43204   4.095  14.499   2.589 -0.0977  0.2605  0.1862
26358W        W43205  12.330   7.088  11.180 -0.0653  0.0661 -0.2732
26359W        W43206   3.558   6.760   5.116  0.0230  0.3391  0.1163
26360W        W43207   5.493   7.870  11.152 -0.2000  0.0205 -0.1266
26361W        W43208   6.104   6.573   1.362  0.0925 -0.2597 -0.2667
26362W        W43209   0.170  14.403   5.475  0.0130  0.3443 -0.1425
26363W        W43210   0.785   9.268   2.436  0.1151 -0.1429 -0.0567
26364W        W43211   3.881  10.812  10.381 -0.0182  0.2510 -0.1442
26365W        W43212   1.047  16.842   1.526 -0.0072 -0.2572  0.2597
26366W        W43213  12.209  11.975  10.967  0.1008  0.3980 -0.0815
26367W        W43214  14.712   4.059  11.540 -0.1531  0.0579 -0.0727
26368W        W43215  14.204  15.311  14.245 -0.1021  0.2301 -0.0884
26369W        W43216   1.228  14.499  13.211 -0.0476  0.2258 -0.1545
26370W        W43217  15.322   0.711   1.476 -0.1162  0.1500  0.0379
26371W        W43218  18.450  17.915   4.187 -0.0584 -0.1070 -0.1080
26372W        W43219   0.463  16.330   2.170  0.0814  0.1442  0.0767
26373W        W43220  15.507  18.611   3.388 -0.0696  0.1610  0.1229
26374W        W43221   3.714   3.124   5.071  0.3515 -0.2721  0.3048
26375W        W43222  13.777   4.379  13.612  0.3810  0.1095  0.2555
26376W        W43223   7.557   4.496   3.414 -0.3851 -0.0776  0.1542
26377W        W43224  19.131   3.611   9.825  0.1812 -0.1652 -0.0176
26378W        W43225  16.915   7.427  13.920  0.1488 -0.0502 -0.0124
26379W        W43226   7.336  11.147   0.396  0.0555 -0.0081 -0.1659
26380W        W43227   6.347   4.884  14.649  0.0168  0.3843 -0.0794
26381W        W43228   2.359  16.151  10.571 -0.4000  0.2327 -0.1189
26382W        W43229   2.137   9.540  13.652  0.1493  0.1814 -0.0224
26383W        W43230   9.836   6.686  13.198  0.1851 -0.2149 -0.1570
26384W        W43231   7.969  11.410   1.730 -0.1471  0.1094  0.1572
26385W        W43232  15.587   2.603   3.791 -0.1294  0.3321  0.2157
26386W        W43233  15.307  15.673  12.095  0.0909  0.0302  0.0753
26387W        W43234  18.046   6.074   4.613 -0.1075 -0.3919  0.0278
26388W        W43235  12.381   3.425   2.859 -0.0808 -0.4125 -0.0716
26389W        W43236   3.527   4.550  14.568 -0.2233 -0.0900 -0.1179
26390W        W43237  16.401   1.930   2.329 -0.0210  0.3003 -0.0452
26391W        W43238  16.585   4.466  12.078 -0.2088 -0.2902  0.3297
26392W        W43239   7.080  15.899   5.128 -0.3660  0.0692  0.1244
26393W        W43240  12.309   0.283   1.001 -0.0291 -0.0265  0.0450
26394W        W43241   7.423   8.618  11.550  0.0507 -0.0448  0.0179
26395W        W43242   7.707   7.000   3.185  0.1623 -0.1408 -0.3172
26396W        W43243  16.620  17.995  14.053  0.0413 -0.2992  0.2671
26397W        W43244   6.738  11.645   4.809  0.1815 -0.0522 -0.5493
26398W        W43245   9.402  13.083   2.544 -0.0428 -0.2188 -0.0255
26399W        W43246   8.777   8.527  14.345 -0.2778 -0.1318  0.1936
26400W        W43247   2.560  16.767  13.554  0.0744 -0.2568 -0.1076
26401W        W43248   6.281  15.487   4.598  0.2241  0.3136 -0.1396
26402W        W43249   7.877   5.851   3.573  0.0316  0.1045 -0.1031
26403W        W43250  17.172  11.733  13.746  0.0433  0.2908 -0.1341
26404W        W43251  17.192   0.618   1.206  0.0315  0.4621 -0.1466
26405W        W43252   9.975   0.115   4.472 -0.0761  0.1141  0.5721
26406W        W43253  18.625   9.348   4.641  0.0607  0.3375 -0.0492
26407W        W43254   2.333   1.040  14.848  0.2261  0.1299  0.3148
26408W        W43255   8.698   6.953  10.842 -0.2152 -0.1832  0.2089
26409W        W43256  18.187  11.238   2.401 -0.0060 -0.0456  0.0217
26410W        W43257  16.051  10.400   4.342  0.0200 -0.0231  0.0538
26411W        W43258   1.320   4.257  10.473  0.1885  0.0979 -0.0012
26412W        W43259  11.277  10.222  13.341  0.1485  0.0021  0.0611
26413W        W43260  13.059   9.831   3.408  0.3402  0.1475  0.3152
26414W        W43261  17.361  14.493  11.850  0.1245  0.0915  0.0253
26415W        W43262   1.790   6.056  14.490  0.4026  0.1776 -0.1718
26416W        W43263   9.798   7.508   0.508 -0.1440  0.0336 -0.0787
26417W        W43264   1.219   8.344   3.706 -0.4838  0.0566 -0.2543
26418W        W43265  14.760  13.855  12.321  0.1488  0.3315 -0.2340
26419W        W43266  14.516  12.343  13.275 -0.2664  0.3196 -0.1261
26420W        W43267  17.248  17.124  11.492  0.0329  0.0757  0.0769
26421W        W43268   5.832   3.932  12.305 -0.1838  0.2977 -0.5223
26422W        W43269  18.725   8.360  12.903  0.0738 -0.1426 -0.2075
26423W        W43270   8.669  19.208  13.260 -0.2035  0.0867 -0.0544
26424W        W43271  18.184  16.640  11.047 -0.2800  0.3530 -0.0416
26425W        W43272   5.141   4.214  10.230 -0.1330  0.1745  0.0217
26426W        W43273   9.813   1.120  10.277 -0.1437 -0.0750  0.0121
26427W        W43274   4.781  11.664  13.353 -0.0410  0.0133 -0.1363
26428W        W43275   0.523   7.452   3.531  0.0573  0.0146 -0.0289
26429W        W43276  14.044  14.185  11.438  0.0603  0.0665  0.1506
26430W        W43277  16.692   2.657   2.260  0.2727  0.0056  0.2381
26431W        W43278  12.184   7.069   1.253 -0.0453  0.0697 -0.0483
26432W        W43279  15.822   3.645   0.217 -0.2016 -0.3291  0.2993
26433W        W43280   8.870   1.081   2.379  0.1886  0.0896  0.0566
26434W        W43281   8.016  18.074   0.367 -0.4152  0.1244  0.1930
26435W        W43282   1.552   7.179  13.664  0.0594  0.2302 -0.3703
26436W        W43283  11.217  16.288  13.605 -0.1494 -0.4235 -0.1568
26437W        W43284  10.353   7.551   5.602  0.0285  0.0015 -0.1916
26438W        W43285   2.532  12.536   3.069  0.0150 -0.0731  0.0102
26439W        W43286  16.821  10.649   3.777  0.2830  0.1396  0.1234
26440W        W43287   5.899  17.321   2.631 -0.1614 -0.1168  0.2335
26441W        W43288  14.005  10.996   2.906 -0.6083  0.2212 -0.0363
26442W        W43289  19.225  13.158   2.312  0.0387  0.1483 -0.2357
26443W        W43290  17.272  13.964   4.881  0.0258 -0.0770  0.2452
26444W        W43291  12.013  16.249  13.212  0.1786  0.1849  0.2055
26445W        W43292   4.416   7.523   1.012  0.0979  0.0729  0.0639
26446W        W43293   5.623   1.207   2.646 -0.1316 -0.0126  0.0479
26447W        W43294   7.070  15.471   1.176 -0.0709  0.0978  0.2419
26448W        W43295  13.364   8.151  14.453 -0.4076  0.0774  0.1203
26449W        W43296  10.481  19.042   2.484 -0.0809  0.0184  0.1682
26450W        W43297   1.740   0.697  12.357  0.0902  0.0858 -0.2181
26451W        W43298  11.556   0.422   2.220  0.0616  0.2785 -0.1179
26452W        W43299   9.780   8.107  10.373 -0.0437  0.1002  0.0918
26453W        W43300  15.463  12.569   2.689  0.1340 -0.1464  0.2165
26454W        W43301  10.742   4.292  14.664  0.1339 -0.1258  0.0928
26455W        W43302   2.006   1.719   3.672  0.1269 -0.0219 -0.1572
26456W        W43303  11.390   7.404  10.965  0.2302  0.0803  0.1691
26457W        W43304  17.736   3.513   4.572 -0.1248 -0.1505  0.0914
26458W        W43305  10.940   5.890   4.467 -0.0539 -0.1604  0.1114
26459W        W43306  18.093   0.644   2.149 -0.1401 -0.2680 -0.3682
26460W        W43307  10.235  10.830   3.341  0.1464 -0.1685  0.2162
26461W        W43308  17.704  18.729   3.748  0.1051  0.1794 -0.4192
26462W        W43309   0.194   0.985  10.911  0.1656 -0.3524 -0.1464
26463W        W43310   7.172   1.103   4.867  0.1026  0.2216 -0.0557
26464W        W43311   6.018   1.908   1.362 -0.2976  0.1815 -0.1166
26465W        W43312  19.253   0.378  13.655  0.1293 -0.1283 -0.1105
26466W        W43313  10.597  10.228  11.836 -0.0821 -0.0632  0.0650
26467W        W43314  12.153  16.545   0.341  0.2120  0.1613  0.0730
26468W        W43315  13.109   8.268   0.665 -0.0001 -0.1576  0.3694
26469W        W43316  16.751   5.651  13.984  0.1012 -0.3665 -0.1204
26470W        W43317   1.093  19.138   1.304  0.0836 -0.0710 -0.0047
26471W        W43318   2.678  12.738  10.724  0.0365  0.0799  0.1211
26472W        W43319   5.771  10.918   0.010  0.0386 -0.2287  0.2137
26473W        W43320  15.647  12.532   1.492 -0.0445  0.3005  0.1706
26474W        W43321  13.835   3.171  10.843 -0.2068 -0.0866  0.0680
26475W        W43322  17.223  10.119  13.450 -0.2956 -0.1902  0.0028
26476W        W43323  12.242  15.993   2.126  0.3300  0.0459 -0.0078
26477W        W43324   6.413   8.460   2.748  0.1238 -0.1098  0.0801
26478W        W43325   9.980   8.778  11.719  0.0427  0.0153  0.1711
26479W        W43326   2.351   0.844   4.425 -0.2574 -0.0890 -0.1534
26480W        W43327   6.727   3.957   1.418  0.1388 -0.4993  0.1295
26481W        W43328  18.750   2.965   0.040 -0.2523  0.1271  0.2618
26482W        W43329  11.291  15.693  14.850 -0.0512  0.1322  0.2372
26483W        W43330   4.270   5.677  12.244 -0.0531  0.1762  0.0758
26484W        W43331   0.623   0.869   2.317  0.2186  0.4841 -0.4103
26485W        W43332  13.873   4.561   3.096 -0.0949  0.0009 -0.1031
26486W        W43333   0.214  17.281   3.724 -0.2610  0.0536  0.4177
26487W        W43334  14.609  15.019  14.011 -0.0968  0.3095 -0.2501
26488W        W43335  15.134   3.286  11.624 -0.1800 -0.1816 -0.3322
26489W        W43336   0.111   1.145  12.243 -0.0730  0.1486  0.0106
26490W        W43337   6.600   9.923  14.416 -0.2319  0.0084  0.2053
26491W        W43338  13.625  12.017  11.557  0.0900 -0.1212  0.3714
26492W        W43339  11.637   4.483   0.689  0.0239  0.0549  0.1708
26493W        W43340  10.360   1.474   5.192 -0.1393 -0.0945  0.1418
26494W        W43341   5.311   7.513  14.482 -0.5132 -0.0889 -0.1612
26495W        W43342  10.638   1.565   2.835 -0.1233 -0.1648 -0.1792
26496W        W43343  15.317   7.149   2.724 -0.4390  0.4302  0.0473
26497W        W43344   8.014   1.537   2.468  0.0212  0.0725 -0.1812
26498W        W43345  10.357   5.759  13.615 -0.0821  0.0929  0.1555
26499W        W43346   8.105  15.160   3.450 -0.3277  0.3021 -0.1939
26500W        W43347   6.460  16.040   0.789 -0.2854  0.3078 -0.3769
26501W        W43348  18.156  14.192   3.746  0.0600 -0.0452  0.0365
26502W        W43349  12.417  14.450  13.830 -0.5418 -0.1777 -0.1332
26503W        W43350   2.205   4.596  11.499 -0.1616 -0.0695  0.3429
26504W        W43351  15.262  16.440  13.064  0.3450  0.1634 -0.0361
26505W        W43352  11.208   3.695   4.107  0.0266 -0.2324  0.0393
26506W        W43353  12.296  17.367   0.738 -0.3374 -0.1620 -0.1528
26507W        W43354  12.394   4.242  13.590  0.1198 -0.3731 -0.0952
26508W        W43355   0.089   4.453   4.501 -0.2104 -0.0151 -0.0436
26509W        W43356  11.992   4.558  12.756 -0.2488 -0.0240 -0.1648
26510W        W43357  10.475   2.391   4.055 -0.3874 -0.0585  0.0413
26511W        W43358  11.311  16.228   2.612  0.2510 -0.1201  0.3000
26512W        W43359   0.030  17.082  11.685  0.3326 -0.0393 -0.0903
26513W        W43360   2.210  12.533   4.452 -0.3377 -0.0767  0.0302
26514W        W43361  14.237   0.952   3.943 -0.0406 -0.0151 -0.0287
26515W        W43362  13.291  17.740  13.487  0.2357 -0.2274  0.0557
26516W        W43363  10.130   1.149   0.392  0.1511  0.1878 -0.0667
26517W        W43364   8.267  11.240   1.371  0.0779  0.1421 -0.0629
26518W        W43365   1.954   1.227   3.502  0.0339 -0.0854  0.3237
26519W        W43366   7.109  12.856   1.433 -0.1453 -0.2167 -0.0534
26520W        W43367  15.520   6.767  11.579 -0.0250 -0.0179 -0.2892
26521W        W43368  16.477   6.929  14.540 -0.0377 -0.2610  0.2247
26522W        W43369  10.355   6.259  13.154  0.2452  0.0396 -0.2352
26523W        W43370  10.164   0.329  13.813  0.2203 -0.1698  0.1695
26524W        W43371   0.628  11.212   0.919  0.3891  0.0836  0.2135
26525W        W43372  10.856   4.765  14.516 -0.3861 -0.0578 -0.0885
26526W        W43373  13.080  16.268  12.406 -0.0371 -0.0537  0.3009
26527W        W43374   8.597   8.954   4.123  0.0679  0.0835  0.2771
26528W        W43375   1.220   2.668  12.131 -0.0263  0.1576 -0.0043
26529W        W43376   8.507  13.263   2.938 -0.3621 -0.1641  0.1655
26530W        W43377  18.808  10.140   4.400  0.1186  0.1820  0.0413
26531W        W43378  10.971  15.462   0.137 -0.0317  0.1763 -0.1011
26532W        W43379  15.374   2.848   2.545 -0.1416 -0.1165  0.3581
26533W        W43380   2.656   4.943   0.925  0.2301  0.0263 -0.0215
26534W        W43381   7.543   3.489  14.367  0.0967  0.4512  0.1295
26535W        W43382   0.960  16.851   2.339  0.1085 -0.1283  0.2541
26536W        W43383  14.731   0.394   3.417 -0.0143  0.0302 -0.1600
26537W        W43384  11.186   2.310  13.765 -0.1676  0.2468  0.1111
26538W        W43385   7.029  13.213  10.914 -0.0990  0.1292 -0.0087
26539W        W43386  13.675  12.159   2.673  0.2262  0.1658  0.0795
26540W        W43387  10.842  13.258  10.109  0.0836 -0.0487 -0.3693
26541W        W43388  15.594   2.600   0.059  0.0970 -0.0182 -0.0386
26542W        W43389  13.674  16.613   4.591  0.0992  0.1958  0.1260
26543W        W43390  18.805  13.519   4.291 -0.2543  0.0570 -0.0662
26544W        W43391   4.170  10.475   3.289 -0.0833 -0.3016  0.0675
26545W        W43392  14.622   7.676   1.505 -0.2180 -0.1604  0.2567
26546W        W43393  17.646   0.269  12.336  0.0268  0.1900 -0.3339
26547W        W43394  11.917  10.306  12.620  0.0747 -0.0542  0.1923
26548W        W43395  14.346  18.422   4.184 -0.0600 -0.2535 -0.3931
26549W        W43396   3.936  17.921   2.411 -0.2661 -0.1566  0.2044
26550W        W43397  16.824   7.165   0.656 -0.1327 -0.2206  0.0777
26551W        W43398   1.693   0.561   1.681  0.4038  0.1332 -0.3672
26552W        W43399   7.169   8.355   4.788  0.0776 -0.0438  0.0376
26553W        W43400  15.706   7.110   0.022  0.1214 -0.0732 -0.1707
26554W        W43401  10.264  15.756   2.543 -0.1028  0.1732 -0.1344
26555W        W43402  16.932   8.201  10.829  0.0582  0.2105  0.0425
26556W        W43403  17.841  12.082  10.651  0.2766  0.0739  0.1048
26557W        W43404   0.793   2.514   0.197  0.0232  0.1120  0.0099
26558W        W43405  17.298  13.034  14.932  0.0801  0.0523  0.1899
26559W        W43406  14.389  18.729  11.944 -0.0758 -0.3210  0.1284
26560W        W43407   5.768  17.459  14.924 -0.3074 -0.1784 -0.0917
26561W        W43408   9.778   6.582   0.029  0.3412  0.0913 -0.2841
26562W        W43409  15.667   6.396   0.530  0.1149 -0.1065 -0.0163
26563W        W43410  18.720  16.062  14.276  0.2886 -0.2680  0.1039
26564W        W43411   3.743   2.124  13.472  0.0505  0.1963 -0.1959
26565W        W43412  16.278   0.275   5.857 -0.1448 -0.0993  0.2197
26566W        W43413  15.473  16.509   3.692 -0.0919  0.3257 -0.0041
26567W        W43414  13.728   4.758   0.635  0.1561  0.0154  0.0926
26568W        W43415   9.636  11.395  11.649  0.1911 -0.2816 -0.1834
26569W        W43416   7.239  18.437  13.717  0.0120  0.0263  0.0409
26570W        W43417  10.653   9.866  11.402  0.1733 -0.2463  0.0021
26571W        W43418  12.834  16.504   2.618 -0.0750 -0.1090  0.2649
26572W        W43419  17.584  15.887   5.207  0.0354  0.1579 -0.1557
26573W        W43420   4.569   4.684   4.707 -0.0445 -0.2994  0.1750
26574W        W43421   8.439  14.281  14.267 -0.2818 -0.0085  0.3585
26575W        W43422  13.797  11.406  11.880 -0.2183  0.2602 -0.3269
26576W        W43423  16.815   7.937  13.771 -0.2840  0.1941 -0.0269
26577W        W43424  12.228  15.829   0.121 -0.0115  0.1710  0.0516
26578W        W43425   4.746   1.658   0.956 -0.0495 -0.1972 -0.2383
26579W        W43426   1.997   7.535  10.489 -0.0119 -0.0878 -0.1134
26580W        W43427  12.913  14.561   2.978  0.2396  0.2129 -0.0191
26581W        W43428   5.467   4.152   0.087 -0.5233  0.2637 -0.0062
26582W        W43429   6.153   9.407  14.982  0.1392  0.2831  0.2907
26583W        W43430  15.035  17.705   1.628 -0.0390  0.2088  0.1379
26584W        W43431   7.477   6.512   2.328  0.0806 -0.1550 -0.0296
26585W        W43432  10.475   1.023   5.402 -0.0969  0.2613  0.1456
26586W        W43433   2.431   2.278  11.907 -0.1558 -0.2648  0.1087
26587W        W43434  10.360  12.096   2.019 -0.3390  0.0712 -0.0379
26588W        W43435  18.844   1.949   0.329 -0.2707  0.1460 -0.0471
26589W        W43436   5.945   8.394  14.406 -0.3653 -0.2112 -0.2596
26590W        W43437   4.440   6.294   0.367  0.4659 -0.6142  0.0265
26591W        W43438  10.129  17.234  12.492  0.0274 -0.0739  0.1664
26592W        W43439   9.326  19.280   0.520  0.2060 -0.0403 -0.2808
26593W        W43440  18.889   5.127  11.410  0.0720 -0.1209  0.1744
26594W        W43441   5.935  11.884   0.591  0.0288 -0.2536  0.1576
26595W        W43442  16.568  16.477  12.668  0.0236  0.1401  0.0786
26596W        W43443   8.157  11.132   3.720 -0.0760  0.3786  0.2365
26597W        W43444  18.404   4.080  10.029 -0.0452  0.2419  0.1410
26598W        W43445   7.293   4.724   1.105 -0.2611 -0.0445 -0.4846
26599W        W43446  10.869   3.665  13.353 -0.4455  0.2231 -0.0825
26600W        W43447   4.347  10.416  13.323  0.0736  0.2332  0.1561
26601W        W43448  12.640   8.227  12.886 -0.1795 -0.3077  0.2701
26602W        W43449  11.734   1.009   0.438 -0.1040 -0.0055 -0.3633
26603W        W43450  10.554   9.121   4.240 -0.1591  0.2264 -0.2771
26604W        W43451   0.816   5.102   1.299  0.3286 -0.1107 -0.0009
26605W        W43452   5.561   7.394  11.123  0.5600  0.1165  0.3795
26606W        W43453  16.832   0.485  14.127  0.0333  0.3019 -0.1800
26607W        W43454  17.622  11.389   2.365 -0.3125 -0.1496  0.2817
26608W        W43455  14.566   7.709   0.318 -0.1017  0.1377  0.1076
26609W        W43456   4.511   8.803   1.466 -0.4050 -0.2698  0.1281
26610W        W43457   3.938   3.833   1.059 -0.1280  0.0563 -0.0084
26611W        W43458  14.288  15.615   2.877 -0.1808 -0.4949  0.2913
26612W        W43459   1.370   7.463   0.718 -0.1221 -0.0388  0.1366
26613W        W43460   2.104   1.334   0.536  0.0181  0.0269  0.0013
26614W        W43461   2.050   8.618  14.931  0.3992  0.1283  0.0968
26615W        W43462  17.914   9.175   1.941 -0.2550  0.2302 -0.0758
26616W        W43463  16.588   3.956  13.755 -0.1560 -0.4190  0.0334
26617W        W43464  14.492  12.733  12.067  0.0646 -0.2025 -0.1494
26618W        W43465   4.932   9.993   3.114 -0.1014 -0.1124 -0.0202
26619W        W43466   9.744  19.039   0.682 -0.1896 -0.0060 -0.0286
26620W        W43467  16.525  15.554   2.279  0.4558  0.2532  0.0821
26621W        W43468   0.868   7.398   2.014 -0.1843  0.0575  0.4079
26622W        W43469   2.151   7.815   2.080 -0.1435 -0.3707  0.0234
26623W        W43470   8.565   7.775  14.379 -0.0544 -0.1357  0.2067
26624W        W43471  15.177  18.278   3.158 -0.1340 -0.1218  0.0582
26625W        W43472   0.544   9.197   3.820 -0.0382 -0.2750 -0.2595
26626W        W43473   5.671   1.001   2.121  0.0579 -0.0306 -0.1189
26627W        W43474   2.058   2.640  11.841 -0.2100  0.0546  0.2021
26628W        W43475  17.315  19.270  14.723  0.1714  0.2091  0.3579
26629W        W43476  17.022   0.705  10.566 -0.2611 -0.0371  0.0500
26630W        W43477   2.822   4.457   2.393  0.2561 -0.0001  0.4581
26631W        W43478   0.644   2.980  10.683  0.3069  0.0465 -0.0335
26632W        W43479   3.123  10.472  11.465 -0.0845 -0.2147 -0.1750
26633W        W43480  10.387   9.202  11.701  0.1008  0.0553 -0.0819
26634W        W43481  12.590   5.265   2.400 -0.1128  0.2637 -0.0262
26635W        W43482  11.383   6.993   0.256  0.2810 -0.0421  0.2384
26636W        W43483   4.263   5.375   5.026 -0.1672 -0.1349 -0.2258
26637W        W43484   4.845   2.621  12.384  0.0255 -0.0353 -0.2143
26638W        W43485   9.052   5.420  13.154  0.0617 -0.2582  0.0826
26639W        W43486  15.250   8.017  11.819 -0.0066 -0.0936 -0.0730
26640W        W43487  19.169  14.418   4.683  0.0324  0.0475  0.1258
26641W        W43488   7.466  10.876   4.010  0.2601  0.0332 -0.0057
26642W        W43489   9.163   6.976  12.004  0.1964  0.1059  0.1074
26643W        W43490  13.646   4.579   3.576  0.0279 -0.2407 -0.4595
26644W        W43491  13.976   9.739   1.010  0.1023 -0.0387  0.2238
26645W        W43492  12.013  11.709   1.939  0.0340  0.2657 -0.0772
26646W        W43493   2.224   3.857   3.927  0.1703  0.1798  0.3099
26647W        W43494   0.530  13.693   3.072 -0.3149 -0.2263  0.0201
26648W        W43495   6.857  14.874  14.161 -0.1398  0.0778  0.2056
26649W        W43496   4.378   9.986   3.262 -0.3953 -0.0037 -0.3249
26650W        W43497  14.868  16.156   4.846 -0.2610  0.0303 -0.2850
26651W        W43498  16.550   1.416  12.682  0.1638  0.2301  0.2444
26652W        W43499   5.403  15.252   1.674 -0.1256 -0.1981  0.3073
26653W        W43500   2.865  14.112   0.487  0.1013 -0.0050  0.0576
26654W        W43501   3.663  16.396   5.034  0.1779 -0.0085 -0.3346
26655W        W43502  12.538  12.621   1.993 -0.0404 -0.1508  0.1180
26656W        W43503   4.395  17.387  12.647  0.1778 -0.0988 -0.0796
26657W        W43504  16.839  10.171   2.231 -0.1284 -0.0855  0.1042
26658W        W43505  13.205  13.085   3.545 -0.1488  0.2076  0.1583
26659W        W43506  15.841  13.362   3.481  0.0377 -0.3206  0.1545
26660W        W43507  10.333   1.780   9.940  0.0997 -0.0383 -0.0905
26661W        W43508  10.025   3.228   3.957 -0.2693 -0.2194 -0.2217
26662W        W43509  10.354  18.081  10.903 -0.0465 -0.3065 -0.0917
26663W        W43510  17.992  17.391  14.940 -0.3237  0.1345  0.0555
26664W        W43511   4.170   4.303   2.337 -0.2141  0.2435 -0.0524
26665W        W43512  18.915   3.842   2.623  0.0989  0.0572  0.0788
26666W        W43513  17.624  18.285  13.095  0.3927 -0.2998 -0.0541
26667W        W43514   7.270  16.425   0.116  0.2630 -0.1347  0.0492
26668W        W43515   9.729  18.467   0.749  0.1318 -0.0265 -0.0929
26669W        W43516   3.530   3.480  14.894 -0.0950 -0.1768 -0.2395
26670W        W43517   9.690  14.075  13.693 -0.2659 -0.0959 -0.0339
26671W        W43518   0.958  14.030  13.324  0.0440  0.1560  0.2021
26672W        W43519  15.354  11.655   2.658 -0.2481  0.3288 -0.1747
26673W        W43520   1.424   2.408   4.573 -0.0069  0.1793 -0.0112
26674W        W43521   2.217  11.413  10.850 -0.2176 -0.0982 -0.1910
26675W        W43522   3.309  12.618   2.435 -0.0115  0.0248  0.1752
26676W        W43523  10.353   2.009  14.241 -0.0700 -0.2656  0.2620
26677W        W43524  17.859  12.093   2.767 -0.0064  0.0457  0.3128
26678W        W43525  15.451   7.488   4.246  0.0897  0.0980  0.1359
26679W        W43526   1.524   0.900   5.128  0.2581 -0.3554  0.3777
26680W        W43527  11.607   7.594   3.239 -0.1546  0.0852 -0.0079
26681W        W43528   0.849   7.739   1.583  0.1663  0.0739 -0.2015
26682W        W43529  15.333  17.919   0.685 -0.1045 -0.1283  0.1600
26683W        W43530  11.016  11.151   1.856  0.0220 -0.0260  0.1803
26684W        W43531   2.547   0.975  10.428 -0.0799  0.0364  0.1332
26685W        W43532   5.068  14.147   9.565  0.0673  0.1644 -0.3306
26686W        W43533  14.748  18.519  12.765  0.2556 -0.0492 -0.3032
26687W        W43534   8.455  11.357   1.974  0.0607 -0.1014  0.0571
26688W        W43535  15.743   7.458  12.642 -0.0562  0.1153  0.1045
26689W        W43536  16.573  12.012   3.768  0.1200  0.0184 -0.2733
26690W        W43537   1.559  15.765  12.164 -0.1197 -0.1497 -0.0257
26691W        W43538   0.782  16.167   4.173  0.0946  0.2665 -0.2041
26692W        W43539  18.461  14.093   1.017  0.2930 -0.1096 -0.0281
26693W        W43540   5.293   9.379  11.661  0.3827 -0.1845 -0.2277
26694W        W43541  12.789  18.968   3.555 -0.2081  0.2791  0.0234
26695W        W43542  14.009   0.705   2.589 -0.1439  0.2791 -0.0855
26696W        W43543   1.025   1.651   2.716 -0.0354  0.2726 -0.1281
26697W        W43544   2.455   7.363   4.648 -0.0709 -0.0635 -0.0399
26698W        W43545   2.649   8.741  11.107 -0.0418 -0.1489  0.1574
26699W        W43546   7.877   9.566   2.584 -0.1943 -0.0996 -0.1483
26700W        W43547   1.589  14.984   3.205  0.2043  0.0867 -0.0964
26701W        W43548  15.594   4.055  13.723 -0.0828 -0.1509  0.1679
26702W        W43549   4.407  16.890   1.586 -0.0116 -0.1655  0.1939
26703W        W43550   5.010  15.695   5.424  0.0211  0.1045  0.1965
26704W        W43551  16.816   8.722   4.494  0.0588 -0.1311  0.0132
26705W        W43552   3.546  17.725  13.575  0.0281  0.1977  0.0059
26706W        W43553  13.625   7.153   2.225  0.1363 -0.1207 -0.0682
26707W        W43554  11.134  18.219   3.824 -0.2466  0.1215  0.0792
26708W        W43555  13.506   0.852   3.358 -0.0420  0.0194 -0.1807
26709W        W43556  11.435  14.682   3.435  0.0159  0.0619  0.0358
26710W        W43557  15.646   8.372  12.626 -0.0461 -0.1406  0.1401
26711W        W43558  17.305   0.024  14.170  0.0983  0.1867 -0.0061
26712W        W43559  12.860   4.453  10.617 -0.1179  0.2353  0.3323
26713W        W43560   2.511   1.754   3.793  0.1578  0.0060  0.1572
26714W        W43561   9.143   4.606  13.050 -0.0675 -0.1187  0.0526
26715W        W43562  13.320  16.507  13.652 -0.0209  0.2428 -0.0686
26716W        W43563  15.818  18.103  12.507  0.2824  0.1848 -0.1569
26717W        W43564   9.975   8.064  11.482 -0.2871  0.0332  0.0832
26718W        W43565  15.349  18.960  13.352  0.0595 -0.3474  0.1155
26719W        W43566  18.091   2.836  11.076  0.2035 -0.0540 -0.1280
26720W        W43567   2.898   2.343  11.175  0.0955  0.1722 -0.1961
26721W        W43568  19.020   4.810   3.449 -0.1939 -0.0239  0.2031
26722W        W43569   1.015   1.210   2.380 -0.1935  0.0140  0.0947
26723W        W43570  17.751  17.449  12.774  0.4863 -0.0025  0.2210
26724W        W43571   2.998  15.812   3.841 -0.0054  0.1527  0.3203
26725W        W43572   5.279  17.670   4.052  0.2421 -0.1636  0.1535
26726W        W43573   7.233   2.772   0.043 -0.0875 -0.2291 -0.0484
26727W        W43574  18.302   2.020  14.620  0.0679 -0.2202  0.0321
26728W        W43575   8.879  11.022   4.751  0.0393  0.1596 -0.1330
26729W        W43576   2.950   9.729  14.687  0.1382  0.0912  0.0452
26730W        W43577  11.931   0.531   4.205  0.2088 -0.2724 -0.0208
26731W        W43578   3.778   0.825  13.536  0.2427  0.0672 -0.0384
26732W        W43579   2.216  11.014  14.886 -0.1728  0.1668 -0.0748
26733W        W43580  10.799   8.624   1.778  0.0985 -0.0746 -0.1493
26734W        W43581   3.633   6.985  12.027  0.2036  0.0345 -0.0557
26735W        W43582  16.236  10.869  11.879 -0.3028 -0.0839  0.0237
26736W        W43583  13.881  10.301   1.838  0.1538  0.1028 -0.2328
26737W        W43584  10.478  15.660  13.571  0.3065 -0.2963  0.0724
26738W        W43585  13.295   6.013  11.145  0.0075  0.0009 -0.2700
26739W        W43586   3.497  15.927   1.796 -0.1386  0.1021 -0.0268
26740W        W43587  18.910  12.801  12.027 -0.1663  0.1653 -0.0059
26741W        W43588   2.932  11.288  14.776  0.2891 -0.0917 -0.2627
26742W        W43589   7.432  10.562  11.761 -0.1649 -0.3278  0.2196
26743W        W43590  11.077   6.936  14.842  0.1341 -0.0095 -0.2521
26744W        W43591   8.060   1.015  10.645  0.0860  0.2175  0.1068
26745W        W43592  14.274   7.311  11.259 -0.0264 -0.0361 -0.0521
26746W        W43593   6.162   3.847  14.468  0.0571 -0.4495  0.3146
26747W        W43594   9.839   0.686   2.222  0.0449 -0.0756 -0.1592
26748W        W43595  17.962  14.363  11.984  0.3493 -0.3597  0.0410
26749W        W43596  18.070   0.610  13.828 -0.2930 -0.3266  0.1144
26750W        W43597   7.218   1.835  10.350  0.2182  0.4506 -0.1651
26751W        W43598   9.375  15.397   2.264 -0.0031 -0.1486  0.2019
26752W        W43599  15.538   2.804   2.022  0.0220  0.0976  0.0542
26753W        W43600   2.677  16.851  10.434  0.1508  0.0602 -0.3371
26754W        W43601  10.682   1.800   0.644  0.1023  0.1923  0.0893
26755W        W43602   9.442   3.291  10.982 -0.1389 -0.0366  0.1329
26756W        W43603   8.965   8.146   1.795 -0.3325 -0.0081  0.0330
26757W        W43604  14.971  12.931  12.478 -0.2130  0.2028  0.0971
26758W        W43605   0.835  18.683  12.216 -0.0349  0.0273  0.0067
26759W        W43606  11.023  19.045  14.359  0.0854 -0.0642  0.1158
26760W        W43607   7.739  18.862  10.980  0.2085 -0.2073  0.0605
26761W        W43608   6.124  10.767   2.222 -0.2511 -0.1289 -0.0662
26762W        W43609  13.085   8.092   2.666 -0.0800 -0.1200  0.0625
26763W        W43610  12.025   9.649  14.995  0.0202 -0.2045  0.1168
26764W        W43611  16.982  15.503  11.607  0.1601  0.1300 -0.1141
26765W        W43612  12.812  10.197   2.653 -0.1323  0.1760  0.1698
26766W        W43613  17.279  12.019  10.822  0.1908  0.0224 -0.4017
26767W        W43614  18.648  17.052   1.715 -0.3001  0.1723 -0.0466
26768W        W43615   0.543   3.253   1.953  0.0467  0.0302 -0.1095
26769W        W43616   3.401   8.064  11.318 -0.1701 -0.0909  0.1179
26770W        W43617  15.362  11.978   1.533  0.0988  0.1847 -0.1003
26771W        W43618   3.106  15.364  12.539 -0.0351  0.1902  0.1690
26772W        W43619  17.940   2.317  12.479  0.1846  0.2501  0.0964
26773W        W43620   2.744  17.693   4.010 -0.1223 -0.1750 -0.0241
26774W        W43621   3.514  13.575   2.773 -0.0310  0.2203  0.1315
26775W        W43622  18.221   3.955   1.525  0.0346  0.1837  0.0577
26776W        W43623   8.012   2.189   4.894  0.6329  0.4537 -0.1142
26777W        W43624   8.889   0.760   0.957 -0.1886 -0.1734 -0.0255
26778W        W43625  18.980  17.413  14.865 -0.1757  0.0423  0.3080
26779W        W43626   4.706   4.395  10.356  0.2472 -0.1699  0.0503
26780W        W43627  14.600   7.807  13.284 -0.1449 -0.1328 -0.0529
26781W        W43628   8.818  16.388   1.690  0.0839  0.3207 -0.0403
26782W        W43629  11.163  13.234   3.902 -0.2548 -0.2465 -0.0742
26783W        W43630  11.429  10.014  12.797 -0.0850 -0.0054  0.0216
26784W        W43631  13.083   6.537   5.164  0.0312  0.2521 -0.0466
26785W        W43632  11.765   6.610  10.529 -0.1065  0.0687 -0.1613
26786W        W43633  15.792   0.593   1.639  0.2308 -0.1133  0.2311
26787W        W43634  16.864  11.534  12.855 -0.0300  0.2275 -0.0349
26788W        W43635  14.391  11.293  10.985 -0.1926 -0.1956  0.1834
26789W        W43636  10.941   0.863   1.131  0.0510 -0.0934  0.4893
26790W        W43637  16.397  12.850   4.067  0.0608 -0.2472 -0.3262
26791W        W43638   3.894  12.278  14.524  0.0736  0.4305 -0.2898
26792W        W43639  16.111  17.833  12.249  0.1483 -0.3087  0.1226
26793W        W43640  15.816   8.503  13.924  0.1737  0.2700  0.0110
26794W        W43641   3.175  14.982  14.984 -0.0032  0.2240  0.1277
26795W        W43642   6.308  18.679   0.967 -0.2463  0.3088  0.3135
26796W        W43643   3.505  18.107   5.218  0.0492 -0.3037  0.1358
26797W        W43644   6.068  19.170   0.871 -0.2030  0.1135  0.0652
26798W        W43645  17.873   9.171   2.535  0.5471  0.2686  0.2600
26799W        W43646  13.594  18.228   2.204  0.0624 -0.2774 -0.2642
26800W        W43647   2.897   7.208  11.061 -0.1529  0.0881 -0.0082
26801W        W43648   3.740   2.731  11.642  0.1206 -0.0228 -0.1007
26802W        W43649   2.731   0.013  11.335  0.0656 -0.0320 -0.0670
26803W        W43650  19.052   1.434   0.298 -0.0916  0.0226 -0.1447
26804W        W43651  17.736   0.823   4.145 -0.1967  0.2953  0.0169
26805W        W43652  12.049   3.220   3.161  0.1515 -0.1400 -0.0209
26806W        W43653  14.682   5.131  11.176 -0.0326 -0.1818 -0.0377
26807W        W43654   0.411  12.885   3.598  0.1988  0.2353  0.1008
26808W        W43655   8.406   5.312   2.991  0.0069  0.1495 -0.3449
26809W        W43656  17.929   6.482  14.720 -0.0534  0.1224 -0.0111
26810W        W43657   0.771  11.482  10.669 -0.1375  0.3480 -0.2704
26811W        W43658  15.326   6.393   4.653 -0.2875 -0.0081 -0.1564
26812W        W43659  15.765   5.236   1.061 -0.1584  0.1499  0.0657
26813W        W43660   9.890   7.688  10.745  0.1775 -0.2611  0.0681
26814W        W43661  14.775   9.952  12.048 -0.4122  0.0976 -0.1067
26815W        W43662   6.805  17.446   2.686  0.0512  0.1053 -0.0125
26816W        W43663  13.999   1.147  13.455 -0.1050  0.1088 -0.3510
26817W        W43664   2.302   8.346  11.979  0.2708  0.0534  0.1434
26818W        W43665  10.611  18.061   5.645 -0.0613 -0.1254 -0.1956
26819W        W43666   0.564   2.067   0.830  0.0986  0.0860 -0.1465
26820W        W43667  17.202   2.697  14.265  0.0436 -0.1929 -0.1310
26821W        W43668   2.379   6.403   1.151 -0.1983  0.1595  0.0400
26822W        W43669   0.186  10.629   4.006 -0.0951 -0.0126  0.2049
26823W        W43670  13.427  14.395   2.040 -0.0204  0.0872  0.2410
26824W        W43671   4.900   2.478   0.631 -0.1246 -0.0579 -0.4203
26825W        W43672   3.156   2.381   5.877  0.2063 -0.1347 -0.0670
26826W        W43673   6.561  16.252   3.658 -0.0402  0.2151 -0.1062
26827W        W43674   9.429   4.387   4.359 -0.1827  0.1362  0.0194
26828W        W43675   9.533  16.037  12.128 -0.2835  0.0746 -0.2387
26829W        W43676  17.685  15.139  12.582  0.2899  0.0186 -0.0026
26830W        W43677   7.696  11.314   3.945  0.1497  0.0795  0.1091
26831W        W43678  15.590  15.535   1.193  0.1028  0.2535 -0.1621
26832W        W43679   3.094   7.612   4.124  0.0250 -0.2143  0.0923
26833W        W43680   8.962   2.466  13.908 -0.3614 -0.1060 -0.0193
26834W        W43681   4.020   9.271   2.294 -0.0157  0.0168 -0.1383
26835W        W43682  11.527  12.161  11.552  0.0645  0.0241  0.0546
26836W        W43683  14.730  17.532  13.393 -0.0853  0.1907  0.3125
26837W        W43684  17.040  15.851   1.767  0.3655 -0.0023  0.3017
26838W        W43685  13.807   9.216   3.023  0.1426 -0.2129  0.1648
26839W        W43686   8.849   1.047   3.842 -0.1020 -0.0058  0.0197
26840W        W43687   5.138  18.079   0.405  0.0536  0.0112 -0.0360
26841W        W43688   9.605   2.134  14.658  0.1874  0.0114 -0.0718
26842W        W43689  11.976   6.267   4.979  0.0241 -0.0310  0.1979
26843W        W43690   2.680   8.605   5.588 -0.0683  0.0750  0.0951
26844W        W43691   3.106  12.261  12.748 -0.1576  0.2093  0.1579
26845W        W43692  15.867   5.116  13.124  0.2001  0.1412  0.1963
26846W        W43693  17.713   2.886  14.378 -0.3567 -0.0883  0.1177
26847W        W43694  16.512  19.208   0.282  0.1554 -0.0042  0.0538
26848W        W43695   9.690   2.675   1.812  0.2340 -0.0384  0.0872
26849W        W43696   9.549  12.502   5.237 -0.0954 -0.1065 -0.0321
26850W        W43697  16.652   6.442   4.687 -0.1797 -0.1969 -0.2219
26851W        W43698  13.309  18.281  14.673 -0.1011  0.1947  0.1387
26852W        W43699   2.887  11.200   0.591  0.1918  0.0015 -0.1353
26853W        W43700   5.083   5.508  13.565 -0.3387  0.2296 -0.1379
26854W        W43701  15.299   3.921   4.878 -0.0680 -0.1588  0.0469
26855W        W43702  13.615  15.572   4.613  0.1543 -0.2002 -0.0164
26856W        W43703   0.582  16.240   3.705  0.1375 -0.0135 -0.0390
26857W        W43704   3.910  16.532  13.037 -0.1165  0.1071  0.2515
26858W        W43705   6.637   6.409   3.881  0.2074  0.2469 -0.2823
26859W        W43706   8.724  14.642   3.937 -0.1191 -0.4176 -0.1215
26860W        W43707   1.594  10.040  10.279  0.0192  0.1165 -0.1096
26861W        W43708   3.150  10.247  14.111  0.0050  0.0393  0.0557
26862W        W43709  15.256   5.777   1.638  0.0674 -0.1365  0.2151
26863W        W43710  10.146   8.571  12.188  0.0064 -0.0312  0.3688
26864W        W43711  15.093  18.212   1.430  0.1099  0.1028  0.1952
26865W        W43712   3.969  15.184  11.655  0.0243  0.1093 -0.0047
26866W        W43713  16.321  18.395   3.926  0.1475  0.0304  0.1012
26867W        W43714  18.091  14.428  10.761 -0.1662 -0.2554  0.1856
26868W        W43715   9.215  11.624  11.452  0.0945  0.0724 -0.2815
26869W        W43716  10.611   0.363   1.656  0.0077 -0.1937 -0.2026
26870W        W43717   3.150  13.630   0.265  0.0711 -0.0592 -0.2343
26871W        W43718   8.555  18.039  11.932  0.0312 -0.1920 -0.2395
26872W        W43719  13.333  15.152  13.894  0.2220 -0.2039 -0.2043
26873W        W43720   5.041  16.096  14.365  0.4546 -0.2974 -0.0177
26874W        W43721   1.999  13.494  10.509 -0.1724 -0.3270 -0.1324
26875W        W43722  16.747   2.191  13.228 -0.1378 -0.0101 -0.4154
26876W        W43723   7.979  14.793  13.445  0.1204  0.4350  0.2263
26877W        W43724   8.769   3.922   4.765 -0.3679 -0.0667  0.4194
26878W        W43725   0.141  10.351  12.324 -0.0169  0.2098 -0.3533
26879W        W43726   7.790   9.409   0.408 -0.3309 -0.0392  0.1896
26880W        W43727   3.894   1.536   4.229 -0.0318  0.1051  0.0444
26881W        W43728   3.404  17.066   9.946 -0.0191 -0.1798 -0.0253
26882W        W43729  13.723   9.577   4.071 -0.1254 -0.0218  0.1666
26883W        W43730  12.133  17.417   1.795 -0.2131  0.2258  0.0064
26884W        W43731   9.700   2.049   2.714 -0.0861 -0.1122 -0.1881
26885W        W43732   3.173   0.773   0.767  0.0015  0.0613  0.0531
26886W        W43733   2.378  19.075  14.293  0.1054  0.3357 -0.0365
26887W        W43734  10.048  14.058  10.341 -0.0151  0.0817  0.2280
26888W        W43735   6.148   8.379  10.305 -0.1911 -0.1434 -0.2701
26889W        W43736  11.865   6.690  13.845 -0.0667  0.1512 -0.3248
26890W        W43737  13.743  15.912   0.891 -0.0090 -0.2632 -0.0849
26891W        W43738  12.670   7.865  11.521 -0.1206  0.0519 -0.1111
26892W        W43739   8.567   6.142  11.819  0.0325  0.0132 -0.4854
26893W        W43740  19.199  13.021   0.678  0.3222  0.1837  0.0091
26894W        W43741  11.491   2.130   3.881  0.0788 -0.2086  0.1624
26895W        W43742  14.041   3.676  12.491  0.2659 -0.0158 -0.0623
26896W        W43743  16.298  18.476   2.462  0.2042  0.1266  0.0014
26897W        W43744  15.510  12.747  11.068 -0.1888  0.1739  0.0798
26898W        W43745  10.555  18.761   4.130  0.0955 -0.0883  0.1535
26899W        W43746   8.818  14.073   4.634 -0.1741 -0.2630  0.1788
26900W        W43747  13.069  14.729  14.592 -0.0985 -0.0889 -0.2633
26901W        W43748   7.088   3.065  11.903 -0.1650  0.0120 -0.1293
26902W        W43749  10.827   2.488   2.827  0.4065 -0.0415  0.3174
26903W        W43750   4.894   5.704  14.981  0.2625  0.0063 -0.1848
26904W        W43751  17.803  15.738   0.189 -0.1941 -0.0208  0.1710
26905W        W43752   9.712   0.232   5.861 -0.0788  0.0465 -0.1408
26906W        W43753  10.571   5.759  12.579 -0.0840  0.2626 -0.1457
26907W        W43754   7.102   1.903   0.507 -0.0100  0.2416 -0.1745
26908W        W43755  16.081   6.976  12.579 -0.0156  0.2041  0.1094
26909W        W43756  19.200  19.230   2.510  0.2009  0.1458 -0.2905
26910W        W43757   5.363   2.983   0.748  0.0888 -0.1841  0.0893
26911W        W43758   6.287   3.652  11.965 -0.1313 -0.1036  0.1350
26912W        W43759   0.089   5.068   3.849  0.2290 -0.3809  0.0819
26913W        W43760  17.305  11.474   4.438 -0.0028 -0.1770  0.1719
26914W        W43761  13.063  16.184  14.037  0.0238  0.1629  0.2955
26915W        W43762  15.231   3.993  11.711  0.0147 -0.1654  0.1336
26916W        W43763   5.909   4.874  12.975  0.3647  0.1423  0.2120
26917W        W43764   7.904   7.160  10.468  0.0543 -0.1686  0.2364
26918W        W43765   1.658  17.319   4.285  0.2950 -0.2899 -0.1399
26919W        W43766  18.242   0.300  13.248  0.1604  0.1496 -0.0380
26920W        W43767   1.095   5.088  10.402 -0.0866  0.2319 -0.0774
26921W        W43768   6.469   3.083   4.822 -0.5737  0.3289 -0.1744
26922W        W43769   4.196  12.700  14.468  0.0139 -0.1751  0.0196
26923W        W43770   0.647   2.382   1.972 -0.0687  0.2708 -0.4541
26924W        W43771  16.445   1.236   0.633  0.2922 -0.0984 -0.1217
26925W        W43772  10.790  14.795  10.805  0.2501 -0.2023 -0.1069
26926W        W43773   4.765   8.243   2.083 -0.0273  0.3720 -0.0081
26927W        W43774   4.138   2.794   3.830 -0.0955  0.2169 -0.2060
26928W        W43775  17.088   3.787   4.159 -0.1165 -0.1223  0.0534
26929W        W43776   9.815   3.650   3.751 -0.0459  0.1206 -0.1187
26930W        W43777  15.837   5.243  14.876  0.0743  0.0931  0.0034
26931W        W43778   6.893   9.092   2.325  0.2378  0.1858 -0.0813
26932W        W43779   3.305   0.334  12.614  0.0575  0.3271 -0.0245
26933W        W43780   4.484   2.614   0.430 -0.0632 -0.1054  0.0190
26934W        W43781  13.124  14.734   1.819 -0.0454  0.3187  0.0749
26935W        W43782   3.019   7.407   2.122 -0.4385  0.3345  0.2965
26936W        W43783   4.617  16.923   0.560 -0.2309  0.3100  0.1681
26937W        W43784   3.024  18.454   1.033  0.2099 -0.1241  0.0038
26938W        W43785  18.014  18.196   5.245  0.1392 -0.1383  0.4050
26939W        W43786   6.190   6.871   0.975 -0.3782  0.0248  0.0270
26940W        W43787   2.375  18.441   0.575  0.1955 -0.1182  0.1332
26941W        W43788  12.066   0.418   1.466  0.0054  0.1849  0.0747
26942W        W43789  14.875   3.642  12.187  0.5673 -0.1387 -0.1039
26943W        W43790   7.589   5.559   3.325 -0.1911 -0.0575  0.3981
26944W        W43791  12.190   2.288  11.958  0.2921  0.1927 -0.0870
26945W        W43792   6.301  16.610  11.441  0.1722  0.0276  0.0874
26946W        W43793   0.423  15.377  11.048  0.1115  0.2350 -0.1648
26947W        W43794  15.015  12.916  10.935  0.1290 -0.4240  0.1600
26948W        W43795   1.946   7.590   0.940  0.0996  0.0915 -0.0250
26949W        W43796  11.535  16.287   4.859 -0.0174  0.0910  0.4196
26950W        W43797  19.116   5.416   1.229 -0.0523  0.1191 -0.2710
26951W        W43798  18.076   5.420   1.337 -0.1872  0.0088 -0.2922
26952W        W43799   8.241   5.748  11.332  0.2675  0.5832 -0.2164
26953W        W43800  16.682   5.615   5.369  0.0155 -0.1388  0.0098
26954W        W43801  10.287  12.160  10.797 -0.0439  0.1156 -0.3038
26955W        W43802   4.408  19.032   1.689  0.1016 -0.1858  0.1227
26956W        W43803  14.438   8.219   2.362 -0.1118 -0.4917 -0.1301
26957W        W43804  18.075   1.576  10.618  0.0803 -0.1152 -0.0618
26958W        W43805   1.968  14.377  14.490 -0.2356  0.4116  0.0490
26959W        W43806   0.781  12.772   2.148  0.0757  0.0560  0.0035
26960W        W43807  10.480  15.621   1.793 -0.1437 -0.1805  0.1317
26961W        W43808   3.324   7.738  13.433  0.0549 -0.0024  0.1359
26962W        W43809  19.194   4.659   9.949 -0.3232 -0.0803 -0.0632
26963W        W43810   2.049   2.918   4.079 -0.2998  0.1120 -0.1700
26964W        W43811   9.659   3.513   4.206 -0.0229 -0.0011 -0.1391
26965W        W43812   3.714   9.446   1.386 -0.3374 -0.0831 -0.0194
26966W        W43813  15.477   4.387  10.648  0.0524 -0.1083 -0.2718
26967W        W43814  12.402  18.656  11.895 -0.0470 -0.3573 -0.0420
26968W        W43815   2.369   0.713  10.010  0.1270  0.0062 -0.0728
26969W        W43816  15.171  10.727  14.660  0.0451 -0.1757 -0.2636
26970W        W43817  10.991  14.450   4.173 -0.0160  0.0489 -0.0848
26971W        W43818   3.994  10.738  13.361 -0.0764  0.0609  0.1370
26972W        W43819  12.148   3.032  10.823  0.1277 -0.2164 -0.0944
26973W        W43820  18.121  12.105   4.373  0.0189 -0.1957  0.4143
26974W        W43821   5.312  18.209   4.181  0.1686 -0.3140  0.1176
26975W        W43822  10.845  11.975   2.517  0.2393  0.1224 -0.2688
26976W        W43823   7.125   6.906   1.573  0.0063  0.0460 -0.1052
26977W        W43824   2.976  14.773   4.263  0.0636 -0.0088  0.0424
26978W        W43825  17.264  13.570   5.357  0.0834 -0.1651 -0.0253
26979W        W43826   4.957  11.419  14.797 -0.0206 -0.0808 -0.0956
26980W        W43827   1.324   1.359  12.733  0.0770 -0.1845 -0.1584
26981W        W43828  13.080  16.959  11.755 -0.0587 -0.1439  0.0372
26982W        W43829  16.516   9.368   3.337 -0.0534  0.3731 -0.1951
26983W        W43830  14.044   9.073  13.803  0.1471  0.2916 -0.0456
26984W        W43831  11.731   5.932   3.596 -0.2348 -0.0659  0.1994
26985W        W43832   5.985  12.232   0.980  0.0594 -0.2268  0.1400
26986W        W43833  14.863  15.859   5.310  0.1012  0.0601  0.1000
26987W        W43834  13.306   9.386   9.971  0.1478  0.0176  0.3120
26988W        W43835   5.519  18.302  14.646 -0.0323  0.0791  0.2813
26989W        W43836  13.873   8.121  14.591  0.3355 -0.1135  0.0300
26990W        W43837  12.089   4.922   3.608 -0.4156  0.0145 -0.0010
26991W        W43838  18.892  11.124   4.796 -0.2651 -0.2570  0.3059
26992W        W43839   6.370   6.054   1.393 -0.1437 -0.1164 -0.0609
26993W        W43840   3.158  16.685   1.539 -0.3972  0.1351  0.1644
26994W        W43841   5.559  17.936   5.453  0.3091  0.0919  0.1708
26995W        W43842  11.977   5.111  11.798  0.4380  0.0421 -0.0376
26996W        W43843   4.153   2.830   4.862 -0.0025  0.0524 -0.1461
26997W        W43844  14.073   2.570   4.338 -0.0674 -0.3661  0.2019
26998W        W43845  10.576   0.661  14.761 -0.0662  0.4036 -0.0624
26999W        W43846  12.224  11.652  13.003  0.2753  0.1485  0.1903
27000W        W43847   9.461   8.214  12.290 -0.0921 -0.0904  0.2358
27001W        W43848   4.567  13.381  12.744 -0.5695 -0.0398 -0.1095
27002W        W43849  19.001   1.500  10.816 -0.0981 -0.1230  0.0284
27003W        W43850   8.604  10.041  10.785 -0.0477 -0.0263  0.0461
27004W        W43851  16.482   1.834  12.442  0.0842 -0.0441  0.1389
27005W        W43852   2.352  14.299   2.370  0.0707 -0.0521  0.0868
27006W        W43853   8.190  17.540  11.298 -0.3253 -0.1252  0.2841
27007W        W43854  15.151   5.733   0.349  0.0549 -0.1422  0.3087
27008W        W43855   2.875  18.453   2.557  0.2767  0.0643  0.0233
27009W        W43856  14.741  13.019   2.377  0.1093 -0.3173  0.0514
27010W        W43857  10.092  15.125   3.525 -0.0647  0.1053 -0.1529
27011W        W43858  13.125   8.492  12.814  0.1816  0.1876  0.2940
27012W        W43859  13.239   1.013   2.769 -0.1573  0.3479 -0.0319
27013W        W43860  18.302  10.610   3.273 -0.0551 -0.2107 -0.4025
27014W        W43861  15.608  18.567  14.496  0.1464 -0.1299 -0.3275
27015W        W43862   4.122  12.027  11.335 -0.0544  0.2468  0.0416
27016W        W43863   0.216  10.848  11.636 -0.2687 -0.2500  0.1862
27017W        W43864   7.196  19.166  13.827  0.0781 -0.3334 -0.0324
27018W        W43865   7.509   6.826   1.949  0.0194 -0.0770 -0.0688
27019W        W43866  13.576  17.034   2.168  0.1218  0.1331  0.0150
27020W        W43867  11.250  15.843   2.997  0.3371  0.0320 -0.2417
27021W        W43868  15.382   2.992   0.307 -0.1175 -0.2927  0.0929
27022W        W43869   7.108   8.841   0.151  0.1084 -0.0341  0.0393
27023W        W43870  18.533   3.262   4.156 -0.0186 -0.0509  0.1189
27024W        W43871  11.117  15.571  11.212  0.2259 -0.1144 -0.3701
27025W        W43872   7.541   6.312  12.102 -0.1082  0.0703 -0.1094
27026W        W43873  13.757   6.561  13.783  0.0132 -0.0461 -0.0997
27027W        W43874  13.292  15.525   4.044 -0.0134 -0.2571  0.0226
27028W        W43875   9.875  10.173  10.890  0.0687  0.1122 -0.0137
27029W        W43876   6.758  11.439  11.209  0.0353  0.0123  0.2671
27030W        W43877   0.419   6.572   4.003 -0.1076  0.3408  0.1488
27031W        W43878  17.867   3.679  15.018  0.2138  0.0800  0.2963
27032W        W43879  13.562  18.927   3.069 -0.3266  0.0663 -0.1593
27033W        W43880   2.321  10.245   4.376 -0.1356  0.0644  0.2245
27034W        W43881   5.149  15.044  11.746 -0.1766  0.0235  0.1936
27035W        W43882   3.122  13.223   2.946 -0.2570  0.2189 -0.3324
27036W        W43883   8.073   4.936   1.485  0.2338 -0.1020 -0.1116
27037W        W43884   9.922   9.974   3.161  0.2309  0.5559  0.3881
27038W        W43885   8.645  10.302   0.787  0.0789  0.0924 -0.0316
27039W        W43886  17.438  18.363  12.412 -0.0419  0.3525  0.1717
27040W        W43887   9.532  17.617  13.026 -0.0388 -0.2471 -0.0364
27041W        W43888   6.572   0.249  13.395  0.0376  0.0741 -0.0214
27042W        W43889  17.337  13.761   1.697  0.4812  0.0242 -0.1225
27043W        W43890   6.104  18.692   2.291  0.4392  0.1137  0.1223
27044W        W43891  12.146   5.239  10.381  0.1196  0.1351 -0.1142
27045W        W43892  10.397   3.476  13.628 -0.1243  0.0753  0.0418
27046W        W43893   6.621   4.063  10.178  0.0272  0.4470 -0.1916
27047W        W43894  10.539  10.824  10.919  0.1131 -0.2082  0.1026
27048W        W43895  10.170  12.618  13.776  0.0376  0.2039 -0.0016
27049W        W43896  12.392  18.400   4.267 -0.0466 -0.0753  0.0996
27050W        W43897   0.069  10.627   3.242 -0.2751  0.0606  0.3336
27051W        W43898  18.385  18.642  13.352 -0.1495  0.3164 -0.0089
27052W        W43899   4.735   1.252   3.714  0.0920  0.0986 -0.0533
27053W        W43900   2.314   2.557   4.407  0.1550 -0.1514 -0.3745
27054W        W43901   6.446  19.065   3.386 -0.1705 -0.1306 -0.1496
27055W        W43902   7.328  10.324  13.216 -0.0571 -0.0810  0.3041
27056W        W43903  11.627   0.414  13.679  0.2220  0.1110  0.0392
27057W        W43904   4.025   3.827   2.212  0.0017  0.0111  0.1649
27058W        W43905  18.277   1.229   0.495 -0.0060  0.0665  0.1854
27059W        W43906  13.820  17.927   1.344  0.0813 -0.1539 -0.1061
27060W        W43907  11.318  14.982  13.633 -0.1259  0.1090 -0.0531
27061W        W43908   4.313   8.306   2.355 -0.2019  0.0502  0.3721
27062W        W43909   7.277   3.729   2.885 -0.2452 -0.0612 -0.1566
27063W        W43910  19.152  16.927  14.857  0.0578 -0.3504 -0.1902
27064W        W43911  13.453   3.765   0.081  0.3379  0.0241 -0.0149
27065W        W43912  17.587  10.793   3.726 -0.0065 -0.0012  0.1805
27066W        W43913  17.764   1.146  13.509  0.0763  0.1119 -0.2202
27067W        W43914   6.953   3.550   2.287  0.0857 -0.1725 -0.1807
27068W        W43915  14.308   2.065  14.316 -0.0027 -0.0384  0.1637
27069W        W43916   0.466   1.856   5.484  0.3737  0.0135  0.1106
27070W        W43917   1.492   8.289  13.754 -0.0568 -0.0768 -0.1726
27071W        W43918   8.806   4.138   2.889  0.0175 -0.0580 -0.1027
27072W        W43919  15.343  12.259  11.167  0.1239 -0.1814  0.0202
27073W        W43920   1.179   2.179   3.336 -0.0833 -0.2144  0.0530
27074W        W43921   5.884  13.094  12.548  0.0793 -0.0401  0.1958
27075W        W43922   4.352   6.103  11.670  0.1163  0.0273 -0.0306
27076W        W43923   2.799  16.843   0.752  0.0672 -0.0890 -0.1637
27077W        W43924   5.075   0.402   4.065 -0.1679  0.0810  0.0908
27078W        W43925  16.376  16.048   2.723 -0.0545  0.1226 -0.1237
27079W        W43926   9.371   2.543  13.659 -0.2624 -0.2199  0.1153
27080W        W43927  18.362   4.746   2.614 -0.1401  0.2769  0.3089
27081W        W43928   6.893   1.962   3.740  0.3214 -0.0317  0.1518
27082W        W43929   6.637   2.302  10.339  0.0647  0.0610 -0.1290
27083W        W43930  14.418   8.106  12.281  0.2641 -0.2227  0.1192
27084W        W43931  10.787   6.995  13.259 -0.1672  0.2637  0.0518
27085W        W43932  15.307   7.091  14.245 -0.1605  0.0738 -0.2440
27086W        W43933   1.649   5.624   4.286 -0.1796 -0.0385  0.0380
27087W        W43934   0.925   3.939   3.118 -0.1134 -0.1952  0.1427
27088W        W43935  18.372  18.550  11.949 -0.0398 -0.3535  0.3702
27089W        W43936  10.265   0.366   0.977 -0.0600 -0.0182  0.2363
27090W        W43937   0.390   1.135  13.506  0.0893  0.0556  0.1486
27091W        W43938   5.149   5.442  12.794  0.1070 -0.1238 -0.0278
27092W        W43939  11.884  10.819   4.846 -0.2006  0.1728 -0.2526
27093W        W43940  10.035  19.169   0.177  0.1744  0.6900 -0.1312
27094W        W43941   7.108   6.086  12.402 -0.0466  0.3239 -0.0511
27095W        W43942   6.389   0.942   5.319 -0.2256  0.1748  0.1217
27096W        W43943  17.746   0.292   2.181 -0.2068  0.0479  0.0034
27097W        W43944  12.125  12.907  11.748 -0.1095  0.0557 -0.0346
27098W        W43945  17.465   5.234   3.227  0.0821 -0.1063 -0.1193
27099W        W43946   3.641   3.419   0.833 -0.1926  0.1816 -0.0564
27100W        W43947   4.864   3.482  12.755 -0.3164  0.4111 -0.2018
27101W        W43948  10.160   2.749   4.296  0.0117 -0.3448 -0.2616
27102W        W43949  12.974   9.631  11.691  0.1295 -0.1786 -0.1165
27103W        W43950   0.998  10.387  13.377  0.4672  0.2010  0.1029
27104W        W43951  12.369   2.196   4.458  0.1599  0.0553 -0.2071
27105W        W43952  18.984  17.186  14.434 -0.1777 -0.1699  0.1364
27106W        W43953  10.292   3.192  14.998 -0.0428 -0.1133  0.2232
27107W        W43954  16.117  16.985   4.901  0.3031 -0.1189 -0.1970
27108W        W43955   0.202  15.919   3.532 -0.1508  0.2118 -0.0084
27109W        W43956   6.454   1.804   2.543 -0.1656  0.3938 -0.4717
27110W        W43957  13.987   8.612   2.587  0.5991  0.1757  0.4773
27111W        W43958  15.386  16.605  11.616  0.4568 -0.0830  0.3035
27112W        W43959  14.346   4.179   4.791 -0.1107  0.0181 -0.1794
27113W        W43960   8.897  15.361  10.698  0.2840  0.0950 -0.0288
27114W        W43961   9.160  17.720  11.780 -0.2488  0.1027 -0.1325
27115W        W43962  18.100   0.603  12.067 -0.3535  0.0763  0.1484
27116W        W43963   2.936  10.247   2.118  0.2836  0.1587 -0.3180
27117W        W43964   8.131   2.881   2.333 -0.0977  0.4435  0.3225
27118W        W43965   2.531  12.615  12.281  0.2317  0.2140 -0.0247
27119W        W43966  14.379   4.571  14.831  0.1005 -0.1025  0.0733
27120W        W43967   7.632   4.899   0.004 -0.3124  0.3881  0.1268
27121W        W43968   1.072   0.280   2.541  0.0657 -0.2347 -0.0213
27122W        W43969   1.042  14.592  12.710 -0.0327 -0.0589  0.1706
27123W        W43970   4.997  16.232   5.244  0.1231 -0.3177  0.1103
27124W        W43971   0.164  16.932   4.099  0.1599 -0.0448 -0.2915
27125W        W43972   7.909   4.413  13.410  0.2117  0.1123  0.0128
27126W        W43973  12.154  14.030  13.221  0.0226  0.0801  0.2242
27127W        W43974   9.950  12.320  14.812  0.5198 -0.1848 -0.3315
27128W        W43975   8.817  10.261  10.418  0.1895  0.1501 -0.0382
27129W        W43976   7.937  13.036   3.488  0.1375 -0.0918  0.2927
27130W        W43977  15.708   6.345  11.249 -0.1055 -0.2230  0.2232
27131W        W43978   3.039   2.668   2.146 -0.0771  0.1983  0.0307
27132W        W43979   6.044   0.071  10.495 -0.1283 -0.0992  0.4492
27133W        W43980   4.332  16.697  13.458 -0.0183 -0.2614  0.0512
27134W        W43981   0.235   4.989   4.771  0.1187  0.0016  0.0019
27135W        W43982  17.267   5.383  12.957 -0.3331  0.0561  0.0217
27136W        W43983  10.821   9.032  11.395  0.2844  0.1993  0.0672
27137W        W43984   4.933   3.485   2.004 -0.1605 -0.2608  0.1144
27138W        W43985   7.670   8.755   0.249 -0.0839  0.0887  0.2292
27139W        W43986  11.409   0.891  12.531  0.1450  0.0408 -0.4763
27140W        W43987  18.509   7.034  11.207  0.2363 -0.0254  0.0642
27141W        W43988   7.701   5.722  11.639 -0.1763  0.0078 -0.3364
27142W        W43989   9.813   9.184   3.289  0.1335 -0.2791 -0.0731
27143W        W43990  10.752   4.366  12.150  0.0280  0.2172  0.0632
27144W        W43991  16.509   6.331  11.145  0.3047  0.1667  0.0802
27145W        W43992  15.153   8.717   3.776  0.3602  0.1433 -0.0952
27146W        W43993  12.784  16.629  14.764  0.0885  0.0773  0.0541
27147W        W43994  17.145   2.106  13.997  0.0884 -0.0260  0.0155
27148W        W43995  15.593   2.789   5.167  0.0306  0.2688 -0.1365
27149W        W43996   1.754  18.429  10.537  0.1565 -0.1802 -0.0237
27150W        W43997  13.940  14.897  12.037  0.0085 -0.2654 -0.1506
27151W        W43998   0.896  15.046   0.311  0.1185  0.0548 -0.2087
27152W        W43999  16.652  15.923   4.787  0.1101 -0.0626  0.0502
27153W        W44000  14.819   3.604  13.058  0.1500  0.0236 -0.2046
27154W        W44001   6.113  14.152   2.308 -0.3605  0.5952 -0.2138
27155W        W44002  12.746   9.913  12.055 -0.2678  0.1088  0.1090
27156W        W44003   4.532  17.674   3.744 -0.1856  0.0005 -0.2178
27157W        W44004  14.720  10.979  13.943 -0.4313  0.0462  0.0480
27158W        W44005  12.190  15.195  11.360  0.0851  0.1996 -0.0726
27159W        W44006   5.501   7.289   4.991 -0.0569  0.0257 -0.0728
27160W        W44007  15.613  13.539  14.295 -0.3440 -0.0069  0.3258
27161W        W44008   9.152   2.034  11.934 -0.0852  0.2534  0.0678
27162W        W44009  10.239   1.177  13.493 -0.0062 -0.1491 -0.0262
27163W        W44010   6.088  12.703   3.876 -0.0178 -0.2763  0.2480
27164W        W44011  11.523   6.215  10.614 -0.3482 -0.1555  0.0006
27165W        W44012   6.877   9.123   0.535  0.0303  0.1608  0.1078
27166W        W44013   2.585  14.864   1.497  0.1927  0.0580 -0.3549
27167W        W44014  14.217   2.123  13.390  0.0023  0.1738 -0.0195
27168W        W44015   1.564  10.833   4.205  0.0755  0.0920 -0.1865
27169W        W44016  18.532   2.555  12.456  0.2414  0.2559  0.0136
27170W        W44017  17.738  12.881   4.026 -0.1419 -0.3656 -0.1274
27171W        W44018   6.505  13.380   0.184 -0.2075 -0.3014 -0.0308
27172W        W44019   6.391   3.225   0.083  0.3671  0.2587 -0.1849
27173W        W44020   5.255  11.378  13.135 -0.1466 -0.2070  0.2295
27174W        W44021   7.085  17.316  14.321  0.1735  0.1320 -0.0501
27175W        W44022  10.135   8.732   2.646 -0.3022  0.1778  0.0797
27176W        W44023  17.322  10.723  14.306 -0.0236  0.1291  0.0363
27177W        W44024   6.564   6.243   3.383  0.1375  0.1203 -0.0261
27178W        W44025   6.289   9.316  12.736 -0.1452 -0.0387  0.2349
27179W        W44026  12.040   4.128   0.579  0.0424 -0.1702  0.2412
27180W        W44027  12.406   8.928   4.308  0.1195 -0.1058  0.0027
27181W        W44028  16.033   5.016   3.382  0.0505 -0.0535  0.0679
27182W        W44029   9.679   1.249  13.416 -0.2572  0.0480 -0.2112
27183W        W44030  10.803   1.419   3.358 -0.1352 -0.0129 -0.0181
27184W        W44031  10.176   2.900   4.879 -0.3502  0.2324 -0.4178
27185W        W44032  14.716  15.714   3.704  0.2465  0.0031 -0.1692
27186W        W44033  10.173  18.062   1.007 -0.0463 -0.0533 -0.1612
27187W        W44034   1.220  12.125  13.232  0.1437 -0.1620 -0.3153
27188W        W44035  11.896  10.629   2.084  0.4623 -0.5184 -0.1228
27189W        W44036  17.159  13.436   3.770 -0.1623 -0.0137 -0.0820
27190W        W44037   7.633   7.553  11.912  0.2871  0.2117  0.0904
27191W        W44038  12.588  14.902  10.558 -0.0475 -0.1435  0.1233
27192W        W44039  10.392   2.250   2.904 -0.3667  0.0620  0.1853
27193W        W44040   1.876   4.298  14.161 -0.1677 -0.2518 -0.1422
27194W        W44041   3.022  17.660   0.558  0.1249 -0.0907 -0.0452
27195W        W44042   1.608  11.094  13.099 -0.1321  0.0238  0.4794
27196W        W44043   3.292   5.492   4.549  0.0607  0.1433  0.0471
27197W        W44044  17.828   8.181  13.913 -0.2064  0.0006  0.0542
27198W        W44045   9.253  17.994  12.548 -0.2155  0.0959  0.0050
27199W        W44046  19.157  11.258  11.448 -0.3160 -0.0855 -0.4031
27200W        W44047  13.806   1.656  14.344 -0.0412 -0.1107 -0.0199
27201W        W44048   5.144   0.131  10.763  0.2693  0.1653  0.1642
27202W        W44049   8.900   8.970  11.503 -0.3125 -0.0883 -0.2051
27203W        W44050  19.133   9.393   4.793  0.0668  0.1473 -0.0752
27204W        W44051  10.807   0.460  11.880 -0.0195  0.0328  0.0336
27205W        W44052  12.219  11.782   4.940  0.2344  0.2685  0.1730
27206W        W44053   4.519  12.276  14.048  0.2767  0.0465  0.1550
27207W        W44054   5.818   6.865  12.500  0.0387 -0.0540  0.0195
27208W        W44055  12.797  18.047   1.746 -0.0150  0.1941  0.1129
27209W        W44056   5.106  14.935   1.848 -0.0779  0.0410 -0.1002
27210W        W44057   2.036  17.480  10.793 -0.1594  0.2694 -0.0654
27211W        W44058   3.278   1.361  13.556  0.0334  0.0609  0.2138
27212W        W44059  15.374  11.983  10.252 -0.1443  0.0295  0.0749
27213W        W44060   6.886  12.671  13.950  0.6568 -0.0637 -0.0272
27214W        W44061  15.590   5.175   4.495  0.0774 -0.2593  0.0542
27215W        W44062   1.665  14.097  11.984  0.1823 -0.2245 -0.0207
27216W        W44063   2.408   6.729   2.573 -0.1591 -0.0440 -0.0942
27217W        W44064   1.035  13.628  12.519  0.0764  0.3313  0.1957
27218W        W44065   6.123   0.128   2.410  0.1520  0.0812  0.2191
27219W        W44066  12.362  17.471  13.369  0.0102  0.1956  0.1424
27220W        W44067  12.788   6.135  13.956  0.0486 -0.2427  0.2376
27221W        W44068   6.302   9.852  14.776  0.1809 -0.0840 -0.1180
27222W        W44069   9.321   9.137   0.384 -0.0507  0.0196 -0.0091
27223W        W44070  11.987   7.441   1.438 -0.0562 -0.1117  0.0555
27224W        W44071  19.015   9.862  13.147  0.2212  0.0192 -0.0663
27225W        W44072   1.985   9.254  11.877  0.0935 -0.2167 -0.1165
27226W        W44073   8.688   0.036  14.779 -0.2175 -0.2953 -0.0576
27227W        W44074  16.831   3.148   2.444 -0.1736  0.1627 -0.4770
27228W        W44075   2.359  11.052   1.846  0.2494  0.0944  0.0879
27229W        W44076  15.571   0.081  11.557  0.1226 -0.3075 -0.1818
27230W        W44077  16.440   8.750  11.097  0.2983 -0.1583 -0.2101
27231W        W44078   3.035  11.915  11.052  0.0159 -0.1477  0.3188
27232W        W44079  13.593  18.541   2.714  0.0028 -0.0603 -0.2315
27233W        W44080   9.864  19.151  12.870  0.2416  0.2375 -0.1670
27234W        W44081   1.431  18.135   4.096 -0.0425  0.0552 -0.2138
27235W        W44082  10.481   5.765   2.128  0.3593 -0.0783  0.3257
27236W        W44083   9.423  10.406  10.802 -0.1643  0.2762 -0.0794
27237W        W44084  15.743   3.650   2.168  0.1124  0.4488  0.0236
27238W        W44085   4.493   9.017   4.288 -0.1309 -0.1633 -0.1280
27239W        W44086  16.729   4.180  11.664 -0.2803  0.0106 -0.0136
27240W        W44087  18.594  19.180  12.661 -0.1961  0.4748  0.2903
27241W        W44088   2.288   3.619  13.156  0.1404 -0.0502  0.2057
27242W        W44089   0.639  10.373  12.960  0.0243 -0.1078 -0.0647
27243W        W44090   1.473  10.025  14.426  0.0545 -0.0984 -0.1827
27244W        W44091   8.648   3.512  12.953 -0.0239 -0.4419 -0.0845
27245W        W44092  11.359   5.778   0.501  0.1486 -0.2789  0.1067
27246W        W44093   8.821  15.780  12.618  0.1636  0.1898 -0.0755
27247W        W44094   2.383  11.354   2.435 -0.0231  0.3890  0.2322
27248W        W44095  10.336   8.453  13.223 -0.1370  0.0645  0.0605
27249W        W44096  10.571  17.343  14.918  0.3098  0.0252  0.3321
27250W        W44097   1.757   9.742  10.662 -0.0779  0.1686 -0.1426
27251W        W44098  12.131  14.752   0.412  0.0588  0.1122  0.3993
27252W        W44099  16.249   3.485  13.924  0.0058 -0.3150  0.1162
27253W        W44100   1.361   6.499   0.250 -0.1045 -0.0536 -0.0241
27254W        W44101   6.061  12.900  12.033  0.2032 -0.0592 -0.1715
27255W        W44102   1.011  11.160  12.975 -0.3539 -0.5316  0.1860
27256W        W44103   0.343  14.095  14.080  0.2284  0.2022 -0.2380
27257W        W44104  16.415   0.121   1.214 -0.1948  0.1208  0.1951
27258W        W44105  18.203  10.257  12.853  0.0999  0.0207  0.0790
27259W        W44106  15.741   1.674   0.071  0.4290  0.0535 -0.3077
27260W        W44107  12.485   1.140  13.315  0.2994 -0.0084 -0.1002
27261W        W44108   4.899  10.607   2.846  0.0007  0.2597  0.1573
27262W        W44109  14.958  18.543   4.680  0.2781 -0.2285 -0.0618
27263W        W44110  14.185   3.858   0.801 -0.4686  0.0485 -0.2825
27264W        W44111   3.666   6.490  14.116  0.3481 -0.2168  0.0574
27265W        W44112  12.705  12.181   2.370 -0.0082 -0.0665  0.0738
27266W        W44113  10.534  14.489   4.000  0.1928 -0.1384  0.1906
27267W        W44114  17.789  17.138  11.583  0.0254 -0.2647  0.1273
27268W        W44115   2.708   0.730   4.806 -0.0921 -0.1274  0.0027
27269W        W44116  17.543   5.686  12.007 -0.0668  0.0123 -0.2086
27270W        W44117   0.517  17.151  14.715 -0.1954  0.2738  0.3477
27271W        W44118   8.659  11.609   1.388 -0.1689  0.0679  0.4706
27272W        W44119  17.919  17.938  11.402 -0.0308 -0.1038 -0.0927
27273W        W44120   7.913  10.728  14.612 -0.0264  0.0194 -0.0645
27274W        W44121   2.137  11.817   0.099 -0.1654 -0.0283  0.0588
27275W        W44122   5.801   1.790  13.943 -0.0729 -0.0080 -0.0284
27276W        W44123   1.680  10.110  13.258 -0.0115 -0.1891 -0.0202
27277W        W44124  13.437  13.123   1.370  0.1315 -0.2519  0.1540
27278W        W44125   5.518   7.971  11.649  0.3134  0.1087  0.0740
27279W        W44126   7.683  11.872  13.674 -0.3243  0.1213  0.0902
27280W        W44127   1.137  13.669  13.054  0.2390  0.0550 -0.2071
27281W        W44128  11.505  14.466  12.435 -0.2000 -0.0031  0.1487
27282W        W44129  12.898  17.048  14.410  0.0049  0.1386 -0.0928
27283W        W44130  13.790   1.803   0.782 -0.1870  0.2135  0.0852
27284W        W44131  15.372   8.049   4.437 -0.2405 -0.1253  0.0735
27285W        W44132   8.895  18.952  12.871  0.5359 -0.0536 -0.0661
27286W        W44133   7.774  10.463   4.138  0.0124 -0.0505  0.0713
27287W        W44134  14.290   2.778  13.362  0.0623 -0.0426  0.0788
27288W        W44135   7.570   4.872  12.174  0.1181  0.2480 -0.0122
27289W        W44136  11.048   9.126   1.669  0.0650  0.1811  0.2494
27290W        W44137   9.009  10.757   1.262 -0.0595 -0.5310  0.1977
27291W        W44138   5.770   9.443   0.295  0.1786 -0.0240  0.2169
27292W        W44139   2.390  16.653   2.079 -0.0095  0.0075 -0.2074
27293W        W44140   5.716   4.178   2.979 -0.0828 -0.1387 -0.0175
27294W        W44141   7.502   1.888  12.641  0.0153  0.2013  0.1139
27295W        W44142  14.810   1.141   4.460 -0.0717 -0.0615 -0.1720
27296W        W44143   5.188  13.976   3.252  0.2934  0.0575 -0.0878
27297W        W44144  11.883   0.898   3.792 -0.1140 -0.2514  0.3160
27298W        W44145  13.608  12.105  11.006  0.0586  0.2525 -0.0976
27299W        W44146   8.132   3.451  12.873  0.2299 -0.0287 -0.0389
27300W        W44147   5.202  14.661   3.434  0.3805  0.1731  0.0997
27301W        W44148   2.922  11.014   4.711 -0.2000 -0.2626 -0.1893
27302W        W44149  18.951  15.173   4.040 -0.0532 -0.1272 -0.5339
27303W        W44150   6.093  14.119  13.003 -0.0834 -0.3741  0.0078
27304W        W44151  16.860   4.083  12.663  0.1983 -0.0231  0.3031
27305W        W44152  15.995  14.589   4.818  0.2172 -0.1001 -0.1808
27306W        W44153   7.291  12.457  13.334  0.1227  0.0815  0.1444
27307W        W44154  12.497   4.201  11.914  0.2056  0.1265 -0.0179
27308W        W44155   9.096  16.317   4.813 -0.2777 -0.0506 -0.2663
27309W        W44156   5.645  11.746   9.749 -0.1371 -0.3989  0.1299
27310W        W44157   8.325  11.786  11.042 -0.2333 -0.0519  0.0954
27311W        W44158   0.798   2.984  13.311  0.0407 -0.0723 -0.3406
27312W        W44159  11.907  14.616  11.257  0.1753 -0.1207 -0.0115
27313W        W44160  15.000  11.419  10.965 -0.1085 -0.0360 -0.2251
27314W        W44161  14.197  14.584   3.356 -0.4364 -0.0489 -0.2214
27315W        W44162   5.089   3.893   0.337 -0.0380  0.1600 -0.2760
27316W        W44163   3.659  13.843   4.913 -0.2553  0.5584 -0.5361
27317W        W44164   2.892   7.968   3.354 -0.2311  0.0255  0.4626
27318W        W44165  11.599  11.952  12.564 -0.1217  0.0244 -0.0893
27319W        W44166   0.654   4.569  14.760 -0.0202  0.2041  0.1621
27320W        W44167  14.204   4.107   0.121 -0.0956  0.2217 -0.2720
27321W        W44168  13.819  15.602  14.429 -0.2532  0.2162  0.1557
27322W        W44169   6.611   8.777   3.916  0.0568 -0.1828 -0.2561
27323W        W44170   9.511   9.721   0.298 -0.4935 -0.0303 -0.0866
27324W        W44171   8.732   4.051  14.650 -0.0890 -0.0026  0.3059
27325W        W44172  13.066   7.917   1.717 -0.1560  0.2426  0.1782
27326W        W44173  12.048   5.823  12.326 -0.3868 -0.2907 -0.1680
27327W        W44174   3.198   9.075   5.552 -0.0679 -0.1096  0.0918
27328W        W44175   6.438  11.586  11.999 -0.2491  0.0207 -0.0255
27329W        W44176  16.761  13.262  12.456  0.0522 -0.1887  0.0011
27330W        W44177  14.095  16.353   3.738 -0.1058  0.1649 -0.0400
27331W        W44178   6.645  13.958  11.552 -0.1525 -0.0929 -0.1149
27332W        W44179  12.389   2.344  14.338  0.0040 -0.1829  0.0348
27333W        W44180   3.919   7.687  14.881  0.1221 -0.5574 -0.4478
27334W        W44181   4.305   7.401   3.929 -0.2840  0.1442 -0.0423
27335W        W44182  13.195  15.411   0.143 -0.3451 -0.1902  0.0352
27336W        W44183   0.030  18.556   4.582  0.2857  0.2206  0.0752
27337W        W44184  18.783  14.699   0.117 -0.2796  0.3133 -0.4376
27338W        W44185  16.466   7.439   0.470  0.0765 -0.2435 -0.0056
27339W        W44186   5.192  13.283   1.255  0.0518  0.0952 -0.0687
27340W        W44187  19.160   6.742   1.531 -0.2144  0.0097  0.1759
27341W        W44188  15.473   2.716   1.272  0.0093 -0.2334 -0.0558
27342W        W44189   1.581   6.600   1.874  0.0812 -0.3924 -0.1319
27343W        W44190   7.052   6.238   3.099 -0.1231 -0.0526 -0.0763
27344W        W44191  15.051  17.220   1.799  0.0261 -0.2232  0.1868
27345W        W44192  17.364   8.422  10.842 -0.0185  0.4330 -0.1261
27346W        W44193  16.551   9.373   1.571 -0.0514 -0.0512  0.0845
27347W        W44194   1.979  12.955  11.317  0.0557 -0.2398 -0.1424
27348W        W44195   4.416   2.414   4.852  0.1097 -0.1412  0.2493
27349W        W44196   5.660  16.168   0.045 -0.0245  0.0027 -0.2715
27350W        W44197   6.731  16.177   2.463  0.1564  0.5230  0.0421
27351W        W44198  12.200   6.566   1.453  0.2435 -0.2144 -0.3285
27352W        W44199  18.994  12.406   1.472  0.0037  0.1430  0.0717
27353W        W44200  19.244   2.031  14.428 -0.1461  0.0365  0.0779
27354W        W44201  10.374  16.146  13.836  0.4037  0.1901  0.0621
27355W        W44202   0.226   6.676   2.310 -0.1519 -0.2927 -0.0338
27356W        W44203  16.319   8.278   1.672 -0.1936  0.2152  0.0142
27357W        W44204   0.215  17.516  11.947 -0.0234  0.1274  0.1174
27358W        W44205  10.699   1.142  13.881  0.1072 -0.0412  0.1873
27359W        W44206   2.394   7.847   3.431 -0.2425  0.1113  0.1814
27360W        W44207  16.057   4.278   5.106  0.1062 -0.2734 -0.2336
27361W        W44208   8.056  16.139   5.348 -0.0426  0.0177  0.0768
27362W        W44209   4.008  16.537   2.853  0.1138 -0.1891  0.0864
27363W        W44210  17.075  12.325   3.472  0.2444 -0.0883 -0.0647
27364W        W44211  11.718   0.534   0.620 -0.0859 -0.4041 -0.1015
27365W        W44212   4.282  12.825   4.029 -0.2215  0.0347 -0.4052
27366W        W44213   9.449  13.592   2.816  0.0876 -0.3239 -0.0730
27367W        W44214   8.362   6.491   1.046 -0.3538  0.0324 -0.0790
27368W        W44215   6.291   6.066   2.034  0.2155  0.1606  0.2249
27369W        W44216   4.587   0.854  12.452  0.3777  0.2009 -0.0868
27370W        W44217  11.983  14.421   4.117 -0.0127  0.2530 -0.2028
27371W        W44218  13.604  13.786   0.230  0.0718 -0.1165  0.0115
27372W        W44219  19.057  16.872  13.519 -0.1057  0.3522  0.0860
27373W        W44220   3.446  17.486  10.242 -0.1358 -0.0676  0.1517
27374W        W44221   6.522  12.930   5.218 -0.0472 -0.2061 -0.2254
27375W        W44222  13.504  15.977   4.071 -0.0291  0.0585 -0.0242
27376W        W44223   2.856   8.588  12.021 -0.0344 -0.0554 -0.1376
27377W        W44224   9.591  12.143   0.116  0.0125 -0.0446 -0.1628
27378W        W44225   7.843  11.093   2.778  0.0076  0.2320 -0.2235
27379W        W44226   5.516   4.757  10.782  0.0803  0.0165  0.1293
27380W        W44227   4.488  12.385  11.207 -0.1671  0.2594  0.0825
27381W        W44228   5.259  13.986   0.647 -0.0687 -0.2764  0.0995
27382W        W44229  18.021  15.441  11.642 -0.1463 -0.0426 -0.0415
27383W        W44230   3.503  12.103  11.004  0.1678  0.4299 -0.0923
27384W        W44231   5.422   9.819   1.603 -0.0511  0.1639  0.1542
27385W        W44232  10.500  17.832   4.341  0.0011 -0.3251 -0.2092
27386W        W44233   8.460  16.147   9.744 -0.0825 -0.2886  0.0713
27387W        W44234  17.415  18.877  11.151 -0.2121 -0.3401 -0.1454
27388W        W44235   2.987  17.782  14.370 -0.1708  0.1219 -0.0577
27389W        W44236  16.915   1.455   5.746 -0.1968 -0.4039 -0.0365
27390W        W44237   2.300   3.986   5.002  0.1055  0.2136  0.1185
27391W        W44238  11.560   1.799   2.727 -0.0774 -0.0678 -0.0239
27392W        W44239  14.469  11.390  14.954  0.0679 -0.0519  0.0675
27393W        W44240  14.369   6.783  12.555  0.1513  0.1557  0.0785
27394W        W44241   8.090   0.676   2.654 -0.0943 -0.1930 -0.0224
27395W        W44242  15.949  16.344   0.953 -0.2861 -0.1510  0.0220
27396W        W44243   2.665   6.237   9.714  0.2460  0.0768 -0.0435
27397W        W44244   6.220   9.521   5.147  0.0302 -0.1140 -0.0370
27398W        W44245  15.751  11.494   2.330  0.1664  0.2579 -0.1205
27399W        W44246   0.901   2.143  14.867 -0.3793  0.1521  0.0510
27400W        W44247   0.026   0.780   3.621  0.2011  0.0521 -0.3644
27401W        W44248   2.706   5.310   1.915  0.0192  0.4180 -0.4821
27402W        W44249   3.062  15.779   3.302  0.1556 -0.3324 -0.2001
27403W        W44250  11.396   7.773   1.597 -0.0931 -0.3393  0.1456
27404W        W44251  14.277   8.328   3.564  0.0049  0.1870 -0.1069
27405W        W44252   0.428   1.720   2.649  0.3531 -0.1358 -0.0509
27406W        W44253   9.762  13.754   3.178 -0.1448 -0.0011  0.2566
27407W        W44254  11.573  12.634   1.468  0.2887  0.1414 -0.1804
27408W        W44255   3.182  15.264  11.536 -0.1097  0.0960 -0.1888
27409W        W44256   0.909  12.306  11.796  0.0004  0.1066  0.1632
27410W        W44257   6.406  16.744   3.673 -0.3609 -0.0030 -0.1326
27411W        W44258  18.562   2.532  13.678 -0.0676 -0.1030 -0.0209
27412W        W44259  15.190   1.348   3.746 -0.2079  0.0149 -0.1843
27413W        W44260   5.838   3.300  14.279  0.0491 -0.1626  0.0886
27414W        W44261  10.982   0.448   2.400  0.2227 -0.0402  0.2213
27415W        W44262  12.808   9.066   3.982 -0.3085 -0.1153 -0.0532
27416W        W44263   3.483  12.252  10.195  0.0827  0.0067 -0.2273
27417W        W44264  15.245   0.308   3.318  0.0942  0.1597 -0.0049
27418W        W44265  14.673  14.644  13.484  0.6212  0.0300  0.0286
27419W        W44266  14.771  14.187   0.606 -0.0417  0.1052  0.3697
27420W        W44267   1.906   6.340   4.773 -0.0893  0.0798 -0.0243
27421W        W44268   9.729   7.731   1.910  0.1346 -0.0766 -0.0422
27422W        W44269  13.416  14.181   2.966  0.2199  0.0382  0.2218
27423W        W44270  16.892   6.769   2.160 -0.0715  0.0083 -0.1311
27424W        W44271   8.091  15.366  11.528 -0.1447 -0.1831  0.2452
27425W        W44272  17.081  19.162   1.156 -0.1579 -0.0936  0.0793
27426W        W44273  13.896   1.408  13.857  0.0397  0.1631 -0.1217
27427W        W44274  12.127   1.208   0.015  0.0772  0.0184  0.0811
27428W        W44275  11.974  11.236  12.616 -0.2677 -0.3610  0.0487
27429W        W44276  17.517  11.138   1.800  0.2392 -0.1254  0.0864
27430W        W44277   6.783   0.101  12.890  0.1015 -0.0935  0.1407
27431W        W44278  12.468  14.135  12.813  0.0710 -0.0203  0.0682
27432W        W44279  16.938   1.842   2.356 -0.2914 -0.0670 -0.0325
27433W        W44280  18.676  17.069   3.501  0.0131 -0.2603  0.0501
27434W        W44281  15.513  11.717   0.998  0.1616 -0.0284 -0.1274
27435W        W44282  19.073  11.399  14.142  0.2337  0.1264  0.1637
27436W        W44283   0.598  17.699   0.733  0.0725  0.0559  0.1249
27437W        W44284   0.033   6.198   3.081 -0.5812  0.1152 -0.1541
27438W        W44285  12.614   4.781  14.052 -0.0417  0.1545 -0.3966
27439W        W44286   8.885  13.218   9.182 -0.2049 -0.2383  0.0488
27440W        W44287   8.896   3.516  10.998 -0.2792  0.0489 -0.1200
27441W        W44288   5.754  18.179   1.045  0.1066 -0.3722 -0.3364
27442W        W44289  14.012  13.928  13.573 -0.1672 -0.2951 -0.1997
27443W        W44290   4.862   6.305   0.656 -0.1588  0.0919 -0.0466
27444W        W44291  14.270   9.129   3.216 -0.4307 -0.2760  0.3398
27445W        W44292  11.360   8.946  12.500  0.0259 -0.1729  0.2116
27446W        W44293   3.636   1.583  10.594 -0.1181  0.2068  0.0161
27447W        W44294   0.011   4.712  13.749  0.0297  0.1377 -0.3009
27448W        W44295   7.566   6.051   4.354  0.0739 -0.0656  0.0213
27449W        W44296   3.128  10.021   0.987 -0.0418  0.1256 -0.0395
27450W        W44297   4.322  14.651  12.371 -0.1213  0.1247  0.0713
27451W        W44298   4.409  15.648   0.716  0.1361  0.1517  0.2034
27452W        W44299   6.811   0.548   0.178 -0.2082  0.2361 -0.0777
27453W        W44300  13.459  12.111  13.600 -0.0081 -0.1098 -0.2581
27454W        W44301  10.018   4.584  12.301  0.0576 -0.1043 -0.0249
27455W        W44302   5.399   7.643   0.441  0.3423 -0.1955 -0.0395
27456W        W44303  17.698   8.491   4.591  0.0447  0.1220  0.3731
27457W        W44304   3.438  14.471  12.258 -0.0197 -0.0497  0.0134
27458W        W44305   5.566   1.595   4.579 -0.3211 -0.1448 -0.2392
27459W        W44306  13.825   7.420  12.565  0.2588  0.0830 -0.0279
27460W        W44307   4.222   1.030   4.387 -0.2325 -0.0582  0.0535
27461W        W44308   0.561  10.724   1.589  0.0605 -0.0132 -0.2758
27462W        W44309   0.612   9.950   4.688  0.0804  0.1760 -0.2370
27463W        W44310  16.384  10.413   1.203 -0.4100 -0.1940  0.1251
27464W        W44311   7.023   2.315   1.237  0.0835 -0.1101  0.2440
27465W        W44312   3.173   3.259   0.388 -0.0375  0.1002  0.2289
27466W        W44313  15.066  18.685   0.436 -0.0099 -0.1313 -0.4047
27467W        W44314   2.181  14.679  13.340  0.1087 -0.1239 -0.0711
27468W        W44315  13.426   3.806   2.235 -0.2709 -0.2634  0.1902
27469W        W44316   8.749   2.710   9.090 -0.2798 -0.0526 -0.1275
27470W        W44317   2.550   6.696   1.989 -0.0610  0.4282 -0.0505
27471W        W44318   8.852   1.753  12.281 -0.0671 -0.4337  0.0795
27472W        W44319  13.548   0.168   3.920  0.1232 -0.1705 -0.3405
27473W        W44320   5.158  16.561  11.531 -0.1889 -0.1624  0.3174
27474W        W44321   0.141  15.036   0.820 -0.0875 -0.1870 -0.0584
27475W        W44322  14.053  14.647   2.808 -0.1673  0.1905 -0.4056
27476W        W44323  15.804  16.116   1.331 -0.2280  0.2435  0.1010
27477W        W44324  10.314   4.515   1.073 -0.2601 -0.1626  0.2285
27478W        W44325   9.920   1.181   4.404  0.0251  0.1800 -0.0237
27479W        W44326   3.546  17.477  11.673  0.1347  0.2588 -0.3567
27480W        W44327  13.856  14.881  11.519  0.6002  0.0516  0.0289
27481W        W44328   5.843  18.383  12.880  0.0824  0.0749 -0.0341
27482W        W44329  18.276   2.795   2.649 -0.1246  0.2861  0.1981
27483W        W44330   1.377   4.314   1.104  0.0703  0.2167 -0.1042
27484W        W44331  11.299   2.796  11.825  0.0896 -0.3180  0.2878
27485W        W44332   6.827   9.345  13.042 -0.0428 -0.0701 -0.0751
27486W        W44333  12.338   6.169  10.774 -0.0268 -0.2486 -0.0396
27487W        W44334  14.531  11.285  14.387 -0.1853  0.0653  0.2037
27488W        W44335  19.250   2.905  11.316  0.0185 -0.2403  0.1012
27489W        W44336   6.712  11.552  10.650 -0.1485  0.0833 -0.0390
27490W        W44337  11.921  17.503  13.788  0.2036  0.2601  0.1424
27491W        W44338  10.435  10.087   0.178  0.2081  0.2637  0.0878
27492W        W44339   8.306   5.407  10.396 -0.1157 -0.0097 -0.0124
27493W        W44340   3.813  13.416  13.355 -0.0821  0.1106 -0.1999
27494W        W44341  17.555   2.243  11.139 -0.0749 -0.2398 -0.0163
27495W        W44342  14.602  12.226  11.888 -0.0439 -0.1056 -0.1199
27496W        W44343  15.361  18.975   4.808  0.0314  0.2984 -0.2323
27497W        W44344   6.332   0.760  13.358  0.1466  0.0821 -0.2177
27498W        W44345  18.843   5.933   1.292 -0.1806  0.0271 -0.0932
27499W        W44346   5.567  18.909  14.014  0.1351 -0.1532  0.0303
27500W        W44347   4.905   8.707   4.447 -0.0787 -0.2165 -0.0260
27501W        W44348   2.149  15.212   2.388 -0.1880  0.0449  0.0649
27502W        W44349   0.899   0.127   3.792 -0.0255  0.1709 -0.2602
27503W        W44350   1.016   8.577   2.781  0.3481 -0.0156  0.0718
27504W        W44351   8.611  11.176   3.595 -0.2648  0.0764 -0.2793
27505W        W44352  15.982  14.814  14.706  0.1583  0.0414 -0.0049
27506W        W44353   2.427   5.702  11.971  0.5346  0.0775 -0.3462
27507W        W44354  10.600  16.778   3.518 -0.3096 -0.2155 -0.1633
27508W        W44355   8.189   4.457  12.229 -0.0072  0.1693  0.2417
27509W        W44356  19.130  17.567   2.079 -0.0938  0.2775  0.0922
27510W        W44357  17.813  19.101   4.744  0.0723  0.1239 -0.0263
27511W        W44358  10.819   1.672  13.132 -0.0088  0.4929 -0.0283
27512W        W44359   5.587  17.656   2.805  0.3894 -0.0587 -0.0160
27513W        W44360  11.358  17.533  12.977  0.2707 -0.0145 -0.0714
27514W        W44361   6.325  11.742  10.326 -0.2754  0.1298 -0.1476
27515W        W44362   8.067  18.318   3.855 -0.0816  0.0059  0.3819
27516W        W44363  14.675   9.130   0.936  0.0000 -0.2480  0.2230
27517W        W44364   0.478   2.497   1.466  0.0123 -0.0795 -0.1101
27518W        W44365  16.828   5.551   0.858  0.0515  0.3433  0.0069
27519W        W44366  10.615   7.094  10.604 -0.0216 -0.0098 -0.0412
27520W        W44367  12.226   3.795  11.799  0.0570 -0.0282  0.1118
27521W        W44368   5.314   3.367   5.129 -0.0930 -0.0975  0.1062
27522W        W44369   3.160   1.743  14.693  0.1710  0.2781 -0.1128
27523W        W44370   7.639  12.809   4.028 -0.0508 -0.0167  0.0115
27524W        W44371   9.741   3.502  11.363 -0.0289  0.0527  0.3298
27525W        W44372   0.655   4.290  13.009  0.2032  0.1205 -0.0690
27526W        W44373  14.434  18.739  14.152  0.1366 -0.1797 -0.1769
27527W        W44374  12.976  10.319   4.337  0.0778 -0.0648 -0.3540
27528W        W44375   3.877  10.952   4.996  0.2401  0.0812 -0.1268
27529W        W44376   2.441  14.917   4.181  0.1570  0.1861 -0.0652
27530W        W44377  12.595  17.236   5.278 -0.0289  0.1145  0.0502
27531W        W44378  19.048  12.786  13.142  0.2027 -0.1080 -0.0344
27532W        W44379  17.687  11.193   5.458  0.1001 -0.2036 -0.1807
27533W        W44380   4.000  10.249  12.951  0.0977  0.1067 -0.1595
27534W        W44381  17.905   8.794   1.679 -0.0332 -0.2219  0.0559
27535W        W44382   7.257  14.523   0.158 -0.1577  0.0124  0.2330
27536W        W44383  19.207  18.474  12.382 -0.0905  0.0770 -0.3343
27537W        W44384  11.208   1.321   1.120 -0.0085  0.1380  0.2520
27538W        W44385  13.462   3.308  14.717 -0.1016  0.0379 -0.3052
27539W        W44386  10.496  14.157   2.588 -0.5123 -0.1219 -0.0597
27540W        W44387  10.100  15.416   2.991  0.1012 -0.1788  0.1502
27541W        W44388   9.177  14.922   2.494 -0.2153  0.0267  0.0491
27542W        W44389   5.712   2.310  14.653  0.2807 -0.0967  0.0419
27543W        W44390   7.371  19.065  14.275 -0.1471  0.3739 -0.2856
27544W        W44391  14.328  16.112   5.030  0.1687  0.2191  0.1266
27545W        W44392   0.707  15.858  13.264  0.1737  0.1288 -0.1631
27546W        W44393   0.426  15.849  12.347  0.2851  0.1506  0.0820
27547W        W44394  14.310   5.464   2.785 -0.0926  0.2385 -0.0767
27548W        W44395   8.224  13.121   1.790  0.1250  0.0286 -0.1786
27549W        W44396  17.712  10.337  11.178  0.2042 -0.0761  0.1707
27550W        W44397   8.114   3.701   0.339 -0.0532 -0.1687 -0.0526
27551W        W44398  14.493   7.919  11.783 -0.1548 -0.0386 -0.1745
27552W        W44399  14.199  17.802   2.868  0.1322  0.1360  0.1057
27553W        W44400   4.368  17.784   5.051  0.1180  0.0297  0.0062
27554W        W44401  19.090  11.356   2.863  0.0941 -0.1112 -0.1767
27555W        W44402  18.960  14.843   0.726 -0.0409  0.3114 -0.1534
27556W        W44403  14.011   0.491  12.647  0.5857 -0.2809 -0.0129
27557W        W44404   9.125   3.909  13.673  0.1599 -0.0544 -0.1778
27558W        W44405   4.397  18.782   3.785  0.0285 -0.0204 -0.0962
27559W        W44406   9.944   9.636  10.840  0.3490  0.2642 -0.0934
27560W        W44407   1.793  12.959  12.381 -0.3127  0.0028  0.1012
27561W        W44408  11.833  14.341   1.186 -0.0820 -0.0889  0.1653
27562W        W44409  10.551   5.656  14.784  0.1154 -0.1732  0.0303
27563W        W44410  15.232  16.788   5.660  0.2075 -0.0850 -0.0341
27564W        W44411  17.969   8.169   2.264  0.0641 -0.0221 -0.0037
27565W        W44412   1.361   0.143   0.937 -0.1561 -0.0825  0.3882
27566W        W44413   5.330   3.418  13.485 -0.0032  0.1185  0.2216
27567W        W44414  10.980   9.601  12.897  0.0641  0.2414 -0.0662
27568W        W44415   8.061  18.639   0.606  0.0780  0.0892 -0.3231
27569W        W44416   8.272  18.315   0.995  0.0202 -0.1584 -0.0533
27570W        W44417  12.366   6.704  10.766 -0.0086 -0.0961  0.0716
27571W        W44418  10.432   9.066  13.349 -0.0098  0.1559  0.2048
27572W        W44419  11.829   6.694   1.012  0.1540 -0.0461  0.0902
27573W        W44420   9.487  14.418   2.168 -0.3515  0.0583  0.0197
27574W        W44421  12.269   2.387   0.741  0.0189 -0.2263  0.2158
27575W        W44422   9.498   7.478   2.267  0.2253 -0.2675 -0.2307
27576W        W44423  11.281   0.590   2.989  0.3122 -0.1799  0.0348
27577W        W44424  12.604  14.329  11.353 -0.1220 -0.2078 -0.4084
27578W        W44425   2.904  14.362   9.959  0.1862 -0.0787  0.0012
27579W        W44426   9.014   4.873   5.077  0.0881  0.1988 -0.3553
27580W        W44427  16.535  11.123   3.890 -0.5292  0.0522  0.0827
27581W        W44428   9.901   0.490  11.065 -0.0907  0.2317  0.1839
27582W        W44429   8.248  17.969   4.385 -0.0328  0.2075  0.1301
27583W        W44430   3.315   7.769   0.795  0.1054  0.2889  0.1815
27584W        W44431  17.163  11.266  13.952 -0.1309 -0.1498  0.1313
27585W        W44432   4.382  17.461   2.445 -0.1813 -0.0904 -0.2332
27586W        W44433   6.014   9.651  12.017  0.1154  0.0439  0.0080
27587W        W44434   1.593   8.899   3.602  0.0720 -0.3538 -0.2479
27588W        W44435  11.137   5.325   1.645 -0.0643  0.1009 -0.2013
27589W        W44436   5.355  14.254   2.299 -0.1822  0.0431 -0.0209
27590W        W44437  10.563  17.029   1.663 -0.1909  0.0470 -0.0300
27591W        W44438  12.448   6.785   2.365  0.1108  0.0893  0.1779
27592W        W44439   6.809   9.809   2.330 -0.0191 -0.1714 -0.0620
27593W        W44440  11.949   1.898   4.651  0.4361  0.0749  0.0918
27594W        W44441   9.800  16.248   3.574  0.1312 -0.3278 -0.1384
27595W        W44442   9.806   6.192  10.986  0.0221 -0.2936  0.1062
27596W        W44443  11.328   1.727  11.676 -0.1330 -0.3158  0.0517
27597W        W44444   2.441   5.680   2.197  0.3098  0.3583 -0.2523
27598W        W44445   3.457  18.056  14.054  0.1500 -0.0749  0.2006
27599W        W44446   1.340  11.068  14.467 -0.0322  0.2057 -0.1065
27600W        W44447  11.132   5.331  12.344  0.2381 -0.0209  0.3117
27601W        W44448   1.289  12.561   0.260 -0.3890  0.1224 -0.0705
27602W        W44449  17.809  11.529   4.166 -0.2254 -0.2737 -0.0568
27603W        W44450  10.378   1.383  11.608 -0.0277 -0.0664  0.1961
27604W        W44451   3.339   2.071  11.235  0.0316  0.0572  0.0905
27605W        W44452   6.798   6.691   3.262  0.0678 -0.4305  0.1599
27606W        W44453   4.916  18.242  15.020 -0.4225  0.1778  0.0437
27607W        W44454  14.561   7.044   3.565 -0.0733  0.2392  0.0554
27608W        W44455   9.007   4.867   3.715  0.1431 -0.1180  0.0295
27609W        W44456  10.152  11.096   4.400  0.0704 -0.1383 -0.4248
27610W        W44457  11.587   5.371  13.228  0.0469 -0.2261 -0.3080
27611W        W44458   2.052  10.349  13.060  0.0600  0.3163 -0.3273
27612W        W44459  19.205   8.345  14.112 -0.1406  0.2149  0.2930
27613W        W44460   3.187  16.848   2.423  0.1980 -0.0455  0.0149
27614W        W44461  17.312  18.883   1.547 -0.0059 -0.0111 -0.1469
27615W        W44462   3.944  14.094   2.205  0.0771  0.1137  0.0557
27616W        W44463   2.647   5.751   4.612  0.2724  0.1116  0.0463
27617W        W44464   4.026  13.173   4.399 -0.0669 -0.3422  0.1187
27618W        W44465   3.289   1.717   0.697  0.1973  0.2464  0.1422
27619W        W44466  14.341  17.589   4.063  0.0099  0.1305  0.0339
27620W        W44467  11.865  10.102   2.021  0.1141  0.3199 -0.1097
27621W        W44468  14.643  15.985   3.278 -0.2857 -0.0153 -0.1456
27622W        W44469  11.909   1.605   0.344 -0.1538  0.0984  0.2252
27623W        W44470   2.081   4.642   1.313  0.0456 -0.0491 -0.1110
27624W        W44471   2.762  12.238   2.251 -0.1113 -0.1179  0.0776
27625W        W44472   3.373  16.762   1.100  0.2216  0.2203  0.0954
27626W        W44473  12.532   0.890  13.814 -0.2692  0.1272  0.0865
27627W        W44474  12.629   7.661   2.076  0.0454  0.0534 -0.1011
27628W        W44475  16.572   3.545  11.490  0.2391 -0.0171  0.0956
27629W        W44476  10.767  16.567   2.961  0.3015  0.0539  0.2446
27630W        W44477  10.018   3.252   4.463 -0.2174 -0.3803  0.1657
27631W        W44478  16.007   1.386   1.345 -0.1669 -0.2151 -0.2907
27632W        W44479  16.787  18.425   2.335 -0.0920  0.2692 -0.4487
27633W        W44480   5.208   9.578  10.755 -0.3881 -0.0999  0.0469
27634W        W44481  11.956  11.473   4.102 -0.1000 -0.1049  0.0326
27635W        W44482   5.471   9.139  12.417 -0.1214  0.1422 -0.3906
27636W        W44483  11.513  19.050   2.369 -0.1467 -0.0233 -0.0645
27637W        W44484  16.158  18.899   3.040  0.1405 -0.4247  0.3005
27638W        W44485  16.857   3.698   0.420  0.0137 -0.0522 -0.0163
27639W        W44486  14.294  12.652  10.529 -0.0376  0.0875 -0.1766
27640W        W44487  10.416   6.552  10.189  0.0520  0.1064 -0.2719
27641W        W44488   3.023   8.817  12.450  0.0336 -0.0042  0.1271
27642W        W44489  17.511   2.631  12.829  0.1247 -0.3504 -0.0789
27643W        W44490   3.889  12.121   0.412  0.3829 -0.2921  0.0256
27644W        W44491  10.955  15.543   3.885 -0.1782  0.2337 -0.0315
27645W        W44492   9.403  18.184  11.642 -0.3264  0.1539 -0.1336
27646W        W44493   8.313   4.964   0.788  0.4217  0.0917 -0.0700
27647W        W44494  18.414  10.523  14.238 -0.0004 -0.0016  0.2703
27648W        W44495   7.007   5.034   5.028  0.1066 -0.0759 -0.0114
27649W        W44496   5.952   9.583   4.198  0.0419  0.0894 -0.0470
27650W        W44497   5.079  13.579  12.763 -0.1006  0.2076 -0.1084
27651W        W44498   1.866  17.837  14.974  0.1087  0.0662  0.0925
27652W        W44499  15.533   1.566  12.899  0.2675 -0.0827 -0.0993
27653W        W44500   1.602   5.179  10.914 -0.2003 -0.2933  0.0095
27654W        W44501   4.261  14.212   0.529  0.0883  0.2990 -0.0208
27655W        W44502  16.215   8.836  14.511  0.2507 -0.1836  0.0251
27656W        W44503   6.238   3.425   2.691  0.0016 -0.2291  0.0351
27657W        W44504  13.848   0.568   3.112  0.2611  0.0679  0.1668
27658W        W44505  16.043  10.136   3.042 -0.0656  0.0198  0.2117
27659W        W44506  11.241   8.653   2.712 -0.0135  0.1179  0.3780
27660W        W44507  17.933  11.252  12.210  0.0564 -0.1794  0.3874
27661W        W44508  15.425  12.543  11.705  0.2253 -0.0987  0.2447
27662W        W44509  16.276  17.328  10.743 -0.0477  0.1049 -0.1159
27663W        W44510  17.054   0.759   0.681 -0.0662  0.1404 -0.1893
27664W        W44511  18.329  19.249   3.567  0.1679  0.1781 -0.0090
27665W        W44512  11.028   8.390   4.296  0.0708  0.1613  0.1591
27666W        W44513   2.154   4.249   5.571 -0.2055  0.1313  0.0634
27667W        W44514   5.517  16.309  13.289  0.0153 -0.1318 -0.0490
27668W        W44515  14.074   1.379   1.601  0.3233 -0.0134  0.0650
27669W        W44516  11.291   3.026   1.721  0.2278 -0.0262 -0.2078
27670W        W44517  16.231  15.668  11.091 -0.1253  0.1691  0.2614
27671W        W44518  11.589   0.096   1.464  0.0037 -0.1305 -0.2313
27672W        W44519  14.672  16.442  14.827 -0.2174 -0.1501  0.0891
27673W        W44520   0.214   2.029   1.222  0.1399 -0.1314  0.1814
27674W        W44521   8.743   4.259  13.038  0.2103 -0.2413 -0.4468
27675W        W44522  18.398   2.078   0.136  0.2378 -0.1198  0.0311
27676W        W44523  13.361  16.303   3.203  0.1351  0.2917  0.6521
27677W        W44524   8.023  15.813   1.311  0.2208 -0.1627 -0.0604
27678W        W44525  16.021  12.028   0.144  0.1297  0.4219  0.0932
27679W        W44526   1.558  18.995  12.448 -0.0166  0.1967  0.1613
27680W        W44527  12.503  13.363  11.903  0.3155  0.2281 -0.2345
27681W        W44528   6.154  11.682  11.448 -0.0108 -0.1949 -0.0657
27682W        W44529   2.854   2.573  14.218  0.0035 -0.0173 -0.4679
27683W        W44530   4.422  11.110   3.830  0.0895  0.0003  0.1148
27684W        W44531  11.767   4.659  12.180  0.2474  0.0590  0.0968
27685W        W44532   1.496  14.511   0.933 -0.1698  0.1491 -0.0450
27686W        W44533   2.951   4.527   0.929 -0.4677  0.1413 -0.1211
27687W        W44534   0.702   1.246   2.784 -0.1137  0.1820 -0.0271
27688W        W44535  13.503  15.000   4.642  0.2154 -0.1854  0.0566
27689W        W44536  13.351   7.406   0.930 -0.0567 -0.0290 -0.1967
27690W        W44537  15.059   0.489   3.780 -0.2481  0.1511  0.1285
27691W        W44538   0.817   1.250  13.747 -0.2245 -0.2054  0.2321
27692W        W44539  12.241   8.406  12.707 -0.2764 -0.3771  0.0812
27693W        W44540   3.367   4.314   0.696 -0.0711 -0.1056 -0.0946
27694W        W44541   7.786  17.918   2.436  0.0545  0.0556  0.2688
27695W        W44542   5.669   6.035  14.853 -0.1395 -0.1360  0.0542
27696W        W44543  10.306   0.539  11.380  0.2372  0.0571  0.2498
27697W        W44544   6.617  18.963   1.530 -0.1950  0.3193 -0.1126
27698W        W44545  15.705  10.120   4.666 -0.0350  0.0330 -0.3020
27699W        W44546   8.940   9.487  14.440  0.0330  0.1504 -0.0593
27700W        W44547   7.669  18.131  13.292 -0.2269  0.4895  0.1312
27701W        W44548   9.102   7.329   4.205 -0.1552  0.0381 -0.3059
27702W        W44549  11.041   9.911  14.712 -0.1496  0.1940  0.0595
27703W        W44550  10.729   5.428  12.906 -0.0401 -0.2279  0.1272
27704W        W44551  16.811  18.209   0.786  0.2106  0.0859  0.3799
27705W        W44552   9.956   0.273   3.494  0.1612  0.1150 -0.2933
27706W        W44553   6.369  13.147  13.246 -0.0066  0.3106  0.4014
27707W        W44554   9.390  12.041   5.521  0.1011  0.1506 -0.1477
27708W        W44555  18.171   6.400   2.419  0.2011 -0.2357  0.0944
27709W        W44556  16.398  14.764  11.000  0.0549 -0.0757 -0.0220
27710W        W44557   0.551  17.049  11.695 -0.1039 -0.2260  0.1629
27711W        W44558   1.891  11.802  14.366  0.0834  0.0277  0.0049
27712W        W44559  15.094   0.379  12.774 -0.3451  0.2398 -0.0675
27713W        W44560  13.544  17.816  14.722  0.1979  0.2101 -0.3299
27714W        W44561  15.408  10.858  14.032 -0.1763 -0.1581  0.1708
27715W        W44562  19.060  16.516  13.118  0.2495 -0.1174  0.0041
27716W        W44563   5.912   1.910  14.390 -0.1695 -0.1715 -0.1719
27717W        W44564  18.661   2.395  12.002 -0.0083  0.2321  0.1146
27718W        W44565  16.484   5.087   0.133  0.1489 -0.1106 -0.1787
27719W        W44566   6.733   3.677  13.906 -0.1215  0.1985  0.0432
27720W        W44567  16.760   3.646   3.707  0.0696  0.1520  0.0660
27721W        W44568  16.749   2.549   1.742 -0.0426  0.1360  0.1319
27722W        W44569  15.628  11.885  12.333  0.1221  0.0683  0.1329
27723W        W44570  11.977   8.089  12.346 -0.1909 -0.0595 -0.0565
27724W        W44571   4.868   6.270   4.470 -0.2752  0.2038 -0.1275
27725W        W44572   5.449   4.035  14.571 -0.0336  0.0401  0.3761
27726W        W44573  17.001  13.294   4.528 -0.0167  0.1125  0.0826
27727W        W44574   0.526  12.586  13.707 -0.0375  0.0607  0.0214
27728W        W44575   9.093  17.894   1.054  0.1629 -0.0328  0.0881
27729W        W44576  14.124   8.042   0.526 -0.1659  0.1406  0.0585
27730W        W44577   8.983  14.691   4.735 -0.6039 -0.1169 -0.2130
27731W        W44578   9.722   8.867   0.481  0.0441  0.1523 -0.1154
27732W        W44579  10.643  15.499   1.351 -0.2022 -0.1732 -0.1835
27733W        W44580  17.142   5.768  11.659 -0.0921 -0.1756 -0.1020
27734W        W44581  14.789   2.173  14.277  0.0840 -0.0125  0.1912
27735W        W44582   5.799   6.962  14.151 -0.0341  0.2132 -0.0969
27736W        W44583  18.811   1.997   4.493 -0.1517  0.0602  0.0761
27737W        W44584   5.954  10.645  12.750 -0.0722 -0.0915  0.1578
27738W        W44585  16.073  12.853  14.358  0.2244 -0.1091 -0.0547
27739W        W44586  19.040  17.081   2.192 -0.2585  0.0490 -0.3510
27740W        W44587   0.156   9.863  11.503 -0.5313 -0.0076  0.1063
27741W        W44588   8.687  18.612  13.198 -0.0020  0.1620  0.0203
27742W        W44589   4.997  18.678   0.372  0.1418 -0.0543 -0.1723
27743W        W44590   5.943   1.749   3.496 -0.0532 -0.1291 -0.0950
27744W        W44591  11.045   9.582   0.414  0.0256 -0.1042  0.0666
27745W        W44592   6.487  15.035  14.961  0.2315 -0.2255  0.2758
27746W        W44593   6.560   2.556   0.586 -0.2636 -0.1772 -0.0907
27747W        W44594   1.778  10.874  10.888 -0.1950  0.4558 -0.0621
27748W        W44595  12.453  11.659   0.476  0.0819  0.0570 -0.1004
27749W        W44596   3.537   5.053   4.848 -0.1076  0.2107  0.0112
27750W        W44597  11.382  14.672  10.825 -0.3161  0.2211  0.1217
27751W        W44598   2.595  12.791   3.925 -0.0584  0.3293 -0.1910
27752W        W44599   4.326   5.482   2.173 -0.0384 -0.0316 -0.2548
27753W        W44600  15.894  18.490   3.708 -0.5888  0.0889  0.2747
27754W        W44601   9.444   3.691  11.781  0.0116  0.1087  0.4284
27755W        W44602   1.151   3.678   0.048 -0.3254  0.0087  0.0288
27756W        W44603  18.834  15.734   1.252  0.0750 -0.0137  0.1279
27757W        W44604  14.856   3.066  10.907  0.0082 -0.0659 -0.0464
27758W        W44605   7.064   8.871   3.632  0.0189  0.1236 -0.2704
27759W        W44606   7.995   0.906  13.671 -0.3425 -0.0984 -0.2456
27760W        W44607  12.394  19.083  14.807 -0.3056 -0.1383 -0.0412
27761W        W44608  16.562   3.107   2.023 -0.1698  0.2484  0.1311
27762W        W44609   6.813  11.677  13.716 -0.0379  0.2396  0.0598
27763W        W44610   0.375  11.615  13.367 -0.1352  0.0582  0.3328
27764W        W44611  18.217  16.628  10.394  0.0344  0.0607 -0.1013
27765W        W44612  13.510   6.467   2.779 -0.0323 -0.0507 -0.1212
27766W        W44613   4.153  17.047   4.604 -0.0753 -0.1865 -0.1713
27767W        W44614  13.163  15.413   4.520  0.0950  0.5700  0.1467
27768W        W44615  15.335  10.652   2.662  0.1319  0.2230 -0.0150
27769W        W44616  11.863   7.350  11.757 -0.2720 -0.1228  0.1470
27770W        W44617  10.098   7.986   1.697  0.0683  0.4083  0.0246
27771W        W44618  12.943   4.557   0.852  0.3884 -0.4623  0.0835
27772W        W44619   1.398   9.337  12.846  0.1759 -0.0356 -0.2624
27773W        W44620   2.174   9.574   3.944 -0.3620  0.1427  0.2458
27774W        W44621  15.060  16.254   0.657 -0.0235 -0.3341 -0.0599
27775W        W44622   8.298   0.870   3.483 -0.0424  0.0714 -0.3512
27776W        W44623  16.105  18.439  12.919  0.1669 -0.2474 -0.0922
27777W        W44624   2.695   6.020  11.659 -0.0155  0.0256 -0.2278
27778W        W44625   4.298  18.481  12.885 -0.0483  0.1020 -0.0241
27779W        W44626   2.203  12.863  12.738  0.2530 -0.4194 -0.1995
27780W        W44627   0.460  12.235   0.033  0.1126 -0.1675 -0.3148
27781W        W44628  19.074   0.874  10.248  0.1767  0.0338 -0.1492
27782W        W44629  10.557   5.979  14.049  0.3649 -0.0535  0.3598
27783W        W44630   0.688  14.816   1.519  0.2654 -0.0362 -0.2765
27784W        W44631  14.030   8.468  12.896 -0.0570 -0.0318 -0.0678
27785W        W44632   1.191   4.604   0.786  0.1442  0.0152  0.4130
27786W        W44633   1.686   7.585  12.554 -0.0084 -0.2376  0.1215
27787W        W44634   3.984   1.639   9.551  0.2234  0.2741 -0.1933
27788W        W44635  18.640   4.840  11.107 -0.0244  0.0828 -0.0165
27789W        W44636  15.255   6.197   3.016  0.1259 -0.0145 -0.0685
27790W        W44637  12.357  10.241  12.375 -0.0498 -0.1743  0.1701
27791W        W44638   3.762  16.531  11.074  0.0439 -0.0827  0.0762
27792W        W44639  13.128   1.738  11.269  0.0867  0.0206  0.0699
27793W        W44640   6.682  10.246  14.799  0.1679 -0.2228  0.1625
27794W        W44641   3.754  12.519  14.092  0.2484 -0.1839  0.0426
27795W        W44642  15.320  16.157  12.451 -0.2549 -0.3115  0.0895
27796W        W44643   3.332   8.302   0.870 -0.2153 -0.2421 -0.0337
27797W        W44644   7.954  16.840   2.027 -0.2389  0.1644  0.0493
27798W        W44645  19.169  18.785   0.756  0.0093 -0.0850 -0.1578
27799W        W44646   8.586  16.332  14.919 -0.1441  0.0961 -0.2301
27800W        W44647   4.545  13.655   1.957 -0.1997  0.0842  0.0666
27801W        W44648  19.115  13.793   1.635  0.1471  0.0369 -0.1482
27802W        W44649   7.650  13.907  11.517 -0.0039  0.1689 -0.1169
27803W        W44650  12.142  15.651  10.263 -0.0817  0.0779  0.1359
27804W        W44651  15.424   5.942  14.530 -0.1740 -0.1717 -0.1672
27805W        W44652   8.245   4.271   0.368 -0.2324  0.0516  0.0442
27806W        W44653  11.608   6.685   2.221 -0.0091 -0.1435  0.1258
27807W        W44654   1.355  13.627   2.727 -0.0200 -0.1689 -0.1282
27808W        W44655   4.024  17.396  13.604 -0.0091 -0.0343 -0.2102
27809W        W44656   9.652   2.429   3.178  0.2135 -0.0685 -0.0902
27810W        W44657   4.768   4.210  10.859  0.1175 -0.1342 -0.1116
27811W        W44658  11.947  18.896   2.582 -0.1106 -0.0898  0.2066
27812W        W44659   9.291   6.650   0.676 -0.1997 -0.2286 -0.1782
27813W        W44660   9.497   1.154   4.688  0.2733  0.0775 -0.0128
27814W        W44661  19.274  14.194   2.480  0.0187 -0.0190  0.0189
27815W        W44662  18.338  15.914   2.672  0.0482  0.0022  0.2070
27816W        W44663  15.164   0.347   9.819 -0.4485 -0.2858  0.1811
27817W        W44664   5.499  13.050   4.506  0.0029  0.3419  0.2731
27818W        W44665   0.556   9.078   1.580 -0.1189  0.1641  0.0953
27819W        W44666   8.769  12.012  10.835 -0.1260 -0.1968 -0.3403
27820W        W44667  18.540  12.530  12.360 -0.0674 -0.3859  0.2853
27821W        W44668   5.040  10.314   4.485 -0.0777 -0.0312  0.2653
27822W        W44669   7.828  12.381   0.981  0.1549  0.0116  0.2490
27823W        W44670  10.621  13.170   1.632 -0.0675 -0.2902  0.0004
27824W        W44671  14.072   7.706   4.128 -0.1112  0.0621 -0.1720
27825W        W44672  18.559  14.829   4.064  0.2858  0.0308  0.0946
27826W        W44673  11.521  13.933   1.093 -0.0814  0.0992 -0.2608
27827W        W44674   7.525  17.721   4.179  0.1039  0.0185 -0.0900
27828W        W44675  15.454  15.646  14.067  0.1706  0.4559  0.0244
27829W        W44676  17.964  15.171   2.824  0.0549 -0.0035 -0.0801
27830W        W44677  17.446  11.419   1.433  0.1315 -0.0324  0.2295
27831W        W44678  19.058   9.414  11.024 -0.0248  0.1322  0.0103
27832W        W44679   0.829  18.457  12.673 -0.0046  0.0152  0.0262
27833W        W44680  17.365   4.424  12.745  0.1415 -0.0982  0.1517
27834W        W44681   1.479  10.005   4.679 -0.4717  0.2618  0.1112
27835W        W44682   9.854  16.109  14.889  0.1109  0.0469 -0.1037
27836W        W44683  17.635  14.940   1.414 -0.1677  0.0981  0.0977
27837W        W44684   0.071  17.743   3.825  0.1731 -0.1084  0.2155
27838W        W44685  12.604   5.319   0.271  0.2041  0.0406 -0.1796
27839W        W44686   9.149  13.118   4.875 -0.0243  0.0739  0.0788
27840W        W44687   3.282   6.485   3.325 -0.3241  0.0059  0.1675
27841W        W44688   2.621   4.683   3.177  0.0555 -0.0174 -0.2952
27842W        W44689  13.405   6.215  14.570  0.0367 -0.2029  0.2585
27843W        W44690   5.620   1.777   5.662 -0.1026 -0.1655  0.0912
27844W        W44691   7.488   0.545   3.978 -0.2455 -0.2255 -0.0100
27845W        W44692   6.883  14.780  11.110 -0.1565 -0.0200  0.0650
27846W        W44693   2.557   8.678  12.475  0.1716 -0.0525 -0.1163
27847W        W44694   4.184   2.577  13.000  0.0714 -0.1110  0.0721
27848W        W44695   4.507   2.110   5.246 -0.2478  0.0158 -0.1460
27849W        W44696   1.205  11.347   1.754 -0.2153  0.1155  0.1657
27850W        W44697  15.221  11.344  11.407 -0.2065 -0.1003 -0.2842
27851W        W44698  10.014  11.859   0.020  0.1949 -0.2881  0.2406
27852W        W44699   4.137   3.865   5.566  0.2077 -0.1689  0.0235
27853W        W44700  11.200   4.449  13.779  0.1560  0.0810  0.1710
27854W        W44701  13.872  12.479   3.549  0.0040 -0.1058  0.0729
27855W        W44702  14.265  11.195  12.187  0.0109 -0.0984 -0.0377
27856W        W44703   9.274  10.098   4.775  0.0895  0.2021  0.0584
27857W        W44704   0.790   4.542  12.566  0.3086 -0.1121  0.0834
27858W        W44705   9.276   5.782  11.272 -0.0593 -0.0134  0.0003
27859W        W44706   6.119   0.929  11.017  0.0015  0.2406  0.0448
27860W        W44707  11.447   7.646  10.072  0.3204  0.1013  0.1700
27861W        W44708   5.476  18.151   2.803  0.0147 -0.0319 -0.0331
27862W        W44709   2.779   3.044   3.643  0.3304 -0.2740 -0.3984
27863W        W44710   1.205  10.517   4.099 -0.0187  0.1594 -0.1107
27864W        W44711   8.936  18.636  12.023 -0.1032  0.0077  0.1306
27865W        W44712  16.198  12.965   4.978 -0.0418  0.2860 -0.0306
27866W        W44713  12.163   4.538  14.833  0.2347  0.1697 -0.0350
27867W        W44714   5.465   5.775   0.857 -0.0574  0.0997  0.0765
27868W        W44715  15.742  10.089   5.174  0.1721  0.0677 -0.0267
27869W        W44716  10.610  15.745   5.279 -0.1828 -0.3033  0.2768
27870W        W44717   2.129  18.725   0.943 -0.0913  0.1635  0.3054
27871W        W44718   7.469   5.291  14.610 -0.0545 -0.3005 -0.0166
27872W        W44719   2.755  14.118  12.419  0.0201  0.0524 -0.1473
27873W        W44720  11.660   4.033   6.077  0.2160  0.0686  0.0827
27874W        W44721   3.936   7.201  14.526  0.4373 -0.1564 -0.1444
27875W        W44722   2.987  16.107  13.135 -0.0295  0.0056 -0.0096
27876W        W44723  12.670   2.939  14.738  0.1327 -0.1231  0.1336
27877W        W44724   9.929   6.394   3.309 -0.1283 -0.0556 -0.2377
27878W        W44725   2.293  13.157  12.136 -0.3993  0.1406  0.3836
27879W        W44726  13.929  14.201   4.729 -0.1062 -0.1000 -0.1848
27880W        W44727  18.525   9.243  10.710  0.0564  0.2728 -0.0517
27881W        W44728  18.648  10.543  13.746 -0.0107  0.0638 -0.2949
27882W        W44729   8.694  14.945   4.296 -0.0712 -0.2746  0.0317
27883W        W44730   4.381   7.582  12.496 -0.2959  0.1644  0.1861
27884W        W44731   9.877  11.057  10.460  0.2699 -0.1489  0.1037
27885W        W44732   7.000   8.502  12.063 -0.1791 -0.0192  0.3164
27886W        W44733   3.414  15.004   1.953 -0.0057  0.0953 -0.2588
27887W        W44734   0.619   7.597  10.369 -0.2379  0.1207  0.1285
27888W        W44735   0.401   2.535  10.795  0.1447  0.3671  0.0199
27889W        W44736   5.941   1.577  12.717 -0.1130  0.3795  0.1165
27890W        W44737  15.073  10.857   2.093 -0.1116  0.0854 -0.3844
27891W        W44738   7.830  15.728  12.473  0.6406  0.1980 -0.0953
27892W        W44739  14.642  13.500  14.405  0.0759 -0.0893  0.1121
27893W        W44740  14.081   1.896   3.422 -0.0598  0.0483  0.0807
27894W        W44741  18.829  15.678   4.887 -0.0738  0.2468 -0.1439
27895W        W44742  18.385   3.378   0.036 -0.1881  0.1059  0.2906
27896W        W44743   6.570   2.477  11.453 -0.0896 -0.2109  0.1374
27897W        W44744  18.095   6.567  13.620 -0.2092  0.2120 -0.1486
27898W        W44745   8.164   4.460   3.999 -0.1843  0.0117  0.2857
27899W        W44746   2.854   2.225  12.652  0.0330 -0.0993 -0.2513
27900W        W44747  18.907  16.258  11.832  0.0708  0.3484 -0.3515
27901W        W44748   0.714   1.592   1.288  0.0823 -0.1729 -0.4437
27902W        W44749  16.516   1.158  13.665 -0.0238  0.2200  0.0712
27903W        W44750  13.051   4.582  11.320 -0.1186 -0.2566 -0.1359
27904W        W44751  12.808   4.471   2.700 -0.0269  0.0043  0.0448
27905W        W44752   0.981   4.904   2.177  0.0726 -0.2761  0.2427
27906W        W44753  14.137  15.610   4.363 -0.0234  0.1491  0.0866
27907W        W44754   8.426  18.522  12.656  0.0775  0.1265  0.1881
27908W        W44755   3.530  13.814  14.391  0.1486  0.1275  0.1693
27909W        W44756  15.067   9.571  12.015  0.0369  0.4325  0.0312
27910W        W44757   9.454   3.762   2.084 -0.0825 -0.4043  0.2783
27911W        W44758  12.246  17.869   0.619  0.0280 -0.1720 -0.0017
27912W        W44759   6.350  13.077  13.750  0.1274 -0.1479 -0.3030
27913W        W44760  17.198   4.113  13.388 -0.1771  0.0622  0.0734
27914W        W44761  15.619  14.588  12.791 -0.2236 -0.1048 -0.0941
27915W        W44762  11.883  16.165  10.622 -0.0224 -0.0706  0.0040
27916W        W44763   2.493   2.070   2.652 -0.1539 -0.1360  0.1154
27917W        W44764   6.388   1.428   1.147  0.2053  0.2304 -0.1435
27918W        W44765  17.920  10.184  13.373  0.3026 -0.3323 -0.3594
27919W        W44766  14.039   0.652   2.101  0.3311 -0.1307 -0.0268
27920W        W44767   0.840   7.217   0.346  0.4766  0.2641  0.2184
27921W        W44768  11.464  12.083  12.094 -0.1323 -0.0396  0.1428
27922W        W44769  15.305   1.792  12.496 -0.0121 -0.0908  0.1882
27923W        W44770  17.635  13.780   4.588 -0.2214 -0.2384  0.1326
27924W        W44771   5.410  16.473   4.968 -0.0579 -0.1443  0.1481
27925W        W44772   3.903   7.693   1.858 -0.1548 -0.1243  0.0674
27926W        W44773   7.457  10.634  10.802  0.0831  0.2500  0.1143
27927W        W44774   8.462  13.412   0.826 -0.1890 -0.2006 -0.0314
27928W        W44775   2.505   7.229  12.161 -0.0365  0.1975  0.1480
27929W        W44776   2.302   8.512  10.776 -0.0973  0.2105  0.0877
27930W        W44777   3.704  17.618  14.954  0.1164 -0.1127 -0.2841
27931W        W44778   6.283  11.868  14.557  0.2330  0.0990  0.1234
27932W        W44779  18.965   1.402   4.858  0.2759 -0.0970 -0.0945
27933W        W44780  10.210  14.579  12.205 -0.1634 -0.0497 -0.2747
27934W        W44781  15.158  17.921   3.850 -0.0177  0.2073 -0.0957
27935W        W44782   0.160  14.212   4.333  0.0472 -0.0019  0.2308
27936W        W44783  11.662  15.135   5.496  0.1225  0.0520  0.0213
27937W        W44784  18.627  14.563  11.273  0.0062 -0.1664  0.2728
27938W        W44785   7.460   5.186  12.804  0.0040  0.0084 -0.1231
27939W        W44786   7.677   9.550  11.491 -0.3678  0.0976 -0.2471
27940W        W44787  14.715  18.857   1.361 -0.2842  0.1527  0.2358
27941W        W44788  17.480  17.688  10.783 -0.3156  0.0996  0.1223
27942W        W44789   5.653  15.800   2.576  0.0021 -0.0737  0.1808
27943W        W44790   7.099   0.446   5.431  0.1818 -0.0020 -0.1231
27944W        W44791  19.206  15.694   5.244 -0.3297 -0.0839  0.1017
27945W        W44792  18.505   2.329  14.170 -0.3074  0.2643 -0.0092
27946W        W44793   5.964  15.212   4.820  0.1199  0.0952 -0.2585
27947W        W44794  10.275  16.126   3.544  0.0895 -0.0337  0.0310
27948W        W44795   4.646  15.832   1.815 -0.0866 -0.0674 -0.1537
27949W        W44796   4.721   2.878   4.825 -0.0936  0.1459  0.0786
27950W        W44797  10.308   1.396   3.179 -0.3402  0.0604  0.0067
27951W        W44798   9.088  16.802   1.805  0.2778 -0.0960  0.1100
27952W        W44799   0.101   1.174   9.952  0.0255 -0.2027  0.0001
27953W        W44800   1.000  14.336   3.001  0.2453  0.2393  0.0511
27954W        W44801   3.273   8.337  14.681  0.2795  0.0029 -0.1857
27955W        W44802   1.695  17.474  13.863 -0.1419 -0.0757 -0.1157
27956W        W44803   4.100  13.213  13.718  0.1197  0.1506  0.1947
27957W        W44804  10.922   2.148   2.113 -0.0917 -0.0769  0.1202
27958W        W44805   9.057  14.313  11.883 -0.0326 -0.2398 -0.2221
27959W        W44806   6.939   3.746  12.666 -0.1973 -0.2062 -0.3009
27960W        W44807   7.648   3.823   1.881 -0.1468 -0.0394 -0.1836
27961W        W44808  12.781   2.327   0.819 -0.3645  0.0881  0.0585
27962W        W44809   2.049  10.133  10.518 -0.1744  0.1833 -0.3536
27963W        W44810   8.716  15.046  10.376  0.2819 -0.1137 -0.2151
27964W        W44811  10.350   2.814   2.202  0.0794 -0.2403 -0.1632
27965W        W44812  11.837  18.806   4.657  0.2114 -0.2712  0.0526
27966W        W44813  17.790  18.600   3.181 -0.2721 -0.0377  0.1200
27967W        W44814   3.860  12.001   1.418  0.5555 -0.1396  0.2539
27968W        W44815  11.832  14.169  13.610 -0.0117  0.3438  0.2304
27969W        W44816   9.670   7.119   4.305 -0.2118 -0.1191 -0.0872
27970W        W44817  14.411   2.286  11.300 -0.5064 -0.0473 -0.1316
27971W        W44818   1.512   7.088  11.193  0.0295 -0.1290 -0.1591
27972W        W44819   1.191   1.755  11.766 -0.1724  0.0452  0.1764
27973W        W44820  17.174   4.363   4.153 -0.0557  0.3126 -0.0402
27974W        W44821  15.956  10.967   4.463 -0.0628 -0.2341 -0.0920
27975W        W44822  15.355  14.298   1.549  0.1669  0.0277 -0.0712
27976W        W44823   3.101  12.619   0.003 -0.0138 -0.1762 -0.1928
27977W        W44824   2.535  15.480  10.471  0.3720  0.2439  0.1504
27978W        W44825   6.591   3.134   2.422 -0.0006  0.1101  0.4123
27979W        W44826  19.219  10.360   4.432  0.0023 -0.1310 -0.0751
27980W        W44827   9.348  13.998   2.401 -0.1057 -0.3643 -0.1054
27981W        W44828  17.447   4.159   2.361 -0.1185 -0.0143 -0.1578
27982W        W44829   0.365  15.647  14.676 -0.0559  0.1392  0.2230
27983W        W44830  11.099  12.238  12.483  0.0822 -0.0490  0.0922
27984W        W44831   6.889  17.932  11.191 -0.0652  0.0596  0.1759
27985W        W44832   3.409   0.028   4.628  0.0487  0.0119  0.0420
27986W        W44833  17.650   1.055  14.483 -0.0897 -0.0526 -0.0007
27987W        W44834   8.922   3.315  13.350 -0.2646  0.4596 -0.2643
27988W        W44835  17.488   4.608   1.224 -0.0827 -0.1697 -0.2444
27989W        W44836  18.525  15.717   4.498  0.4887  0.0929 -0.3116
27990W        W44837   1.474   5.277  13.490 -0.0138  0.2742  0.0847
27991W        W44838   6.928  18.410  10.968  0.1203  0.0915 -0.2966
27992W        W44839   3.490   5.551   2.269 -0.0412 -0.0091 -0.2625
27993W        W44840   2.334   2.041   1.146 -0.1274  0.0533 -0.2483
27994W        W44841   9.460  18.865   4.736 -0.0775  0.0068 -0.2695
27995W        W44842   4.053  15.373   1.031  0.0929  0.0106 -0.0800
27996W        W44843  15.724   7.117  13.500 -0.3175 -0.1801  0.0912
27997W        W44844  19.167  14.859  14.521  0.1910  0.2166  0.0965
27998W        W44845  18.616   6.680   1.973 -0.0716  0.2319  0.2356
27999W        W44846  19.036  13.827   4.700  0.0815  0.2572  0.1954
28000W        W44847   8.751  17.851   4.353 -0.1661 -0.0395  0.0035
28001W        W44848   4.071   6.563   4.500  0.2103  0.4121 -0.0741
28002W        W44849   5.341  11.103   9.254 -0.0564 -0.3289  0.0601
28003W        W44850  14.661  12.610   5.613 -0.1972 -0.1037 -0.2302
28004W        W44851  14.098  17.392  12.462 -0.1074 -0.0573 -0.4388
28005W        W44852   2.763   3.364   2.423  0.2860 -0.0461 -0.1608
28006W        W44853   6.974  12.963   2.296  0.2075  0.2395 -0.0862
28007W        W44854   8.151   3.163  14.819  0.4289 -0.1028 -0.2492
28008W        W44855   3.347  17.554  13.066  0.0645 -0.1149 -0.1221
28009W        W44856  17.934  16.456   3.462  0.1422 -0.1732  0.0628
28010W        W44857   2.840   7.694   4.541  0.2667  0.0006 -0.0212
28011W        W44858  18.356   0.776  14.672 -0.0719 -0.0181 -0.2147
28012W        W44859   2.331   1.609   2.843  0.1056 -0.0101  0.2798
28013W        W44860   4.134   4.530  13.203  0.1115 -0.0927 -0.5267
28014W        W44861   2.191  19.024   3.454 -0.1164  0.2347 -0.0677
28015W        W44862   5.806   4.324  10.913 -0.0779 -0.0921 -0.1474
28016W        W44863  17.645  16.694   4.925  0.1509 -0.3018  0.0754
28017W        W44864  19.095   1.863  13.170  0.0700  0.0592  0.0196
28018W        W44865   2.794  10.751  10.034 -0.1785 -0.1471 -0.3088
28019W        W44866   3.317   6.009  13.381  0.0588 -0.1247  0.3885
28020W        W44867  11.847   3.266  11.171 -0.4002 -0.0263  0.0042
28021W        W44868   5.090   9.745  13.596 -0.0611  0.0636 -0.3111
28022W        W44869  16.417   2.858   4.096 -0.2032 -0.1483  0.2324
28023W        W44870  11.269   7.127   4.873  0.0923  0.3339 -0.1238
28024W        W44871  19.146  16.936  11.207  0.0853  0.0263  0.1321
28025W        W44872  15.008  19.106   2.578 -0.0820  0.0454  0.0536
28026W        W44873  16.246  11.638   3.238  0.0035  0.1809 -0.1697
28027W        W44874  18.722  14.975  14.338 -0.3443 -0.1769  0.2165
28028W        W44875  13.326  10.741   5.518 -0.3293 -0.3571  0.0033
28029W        W44876   5.828   5.857  11.552  0.1000 -0.1428  0.1223
28030W        W44877   1.571   3.974  12.444 -0.5879 -0.2129  0.2557
28031W        W44878   7.659  12.134  13.221 -0.0253  0.0234  0.2159
28032W        W44879  19.084   6.064   5.350 -0.1230  0.3540 -0.2282
28033W        W44880  16.098  16.742  10.128 -0.3773 -0.0159 -0.1235
28034W        W44881   9.443  13.198  14.851 -0.2277 -0.1571  0.0590
28035W        W44882  14.945  13.928   3.488 -0.2333  0.0506 -0.0499
28036W        W44883   3.107  18.935   5.335 -0.1398 -0.0652  0.2093
28037W        W44884   0.327   6.455   1.894 -0.0667  0.2114  0.4467
28038W        W44885   5.153   3.201  13.031  0.4285 -0.0384  0.0212
28039W        W44886   7.093  16.343  10.475 -0.3977  0.0220 -0.0478
28040W        W44887  11.343   3.196   1.246  0.0175 -0.3421  0.0126
28041W        W44888   6.457  18.306  14.731  0.4256  0.3764  0.1395
28042W        W44889  18.666   8.528   3.757  0.2089  0.0678  0.0773
28043W        W44890   9.169  19.274   1.829 -0.0350 -0.0885  0.1049
28044W        W44891  16.409   2.163  14.534  0.1375  0.1268 -0.0322
28045W        W44892  11.571  17.361   4.904 -0.0710  0.0936  0.4767
28046W        W44893   3.994   6.156   3.734  0.0167  0.2058 -0.3406
28047W        W44894   8.367   4.161   3.122 -0.0306 -0.1896 -0.0183
28048W        W44895  16.600  12.884   3.482  0.1976  0.1269 -0.0758
28049W        W44896   9.157  10.550  13.852 -0.3210 -0.2410  0.0653
28050W        W44897  19.271  17.048  13.029 -0.0086  0.1551 -0.1363
28051W        W44898   6.013  16.902   4.419  0.1868  0.0340  0.1758
28052W        W44899  18.589   0.502  13.609  0.0295  0.1196  0.2536
28053W        W44900   3.138  16.062   0.131 -0.0555 -0.2638  0.1909
28054W        W44901   1.691  10.642  14.090  0.2770  0.1421 -0.2524
28055W        W44902   7.394   3.998  12.738  0.2009 -0.2498 -0.1142
28056W        W44903  11.302   5.438   5.115  0.1714 -0.1048 -0.0328
28057W        W44904   3.486  13.001  12.110 -0.0590 -0.1882 -0.0750
28058W        W44905   1.114  18.876  12.628  0.2130  0.2804 -0.1412
28059W        W44906  14.084   7.961  13.241 -0.2400 -0.2817  0.0533
28060W        W44907   2.544  14.965  10.435  0.1103  0.0690 -0.2847
28061W        W44908  16.505  11.085   4.899  0.2766 -0.1299 -0.0685
28062W        W44909  13.905   8.784  12.389  0.2275 -0.0906 -0.2077
28063W        W44910   6.598  16.590   4.473 -0.2993 -0.0688  0.2434
28064W        W44911   3.044  11.865   3.032 -0.0898  0.2852 -0.0047
28065W        W44912   1.881   4.732   5.467 -0.0886 -0.2063  0.3022
28066W        W44913   2.430   1.855   1.673 -0.0467  0.1820 -0.0348
28067W        W44914  12.554  11.382   5.168 -0.2055 -0.2834  0.5590
28068W        W44915  12.070   2.316  14.851  0.1229  0.1102 -0.0555
28069W        W44916  11.469  15.936  11.929 -0.0185  0.1370  0.0364
28070W        W44917   8.716  10.088   4.859 -0.2978  0.0647 -0.1825
28071W        W44918  13.298  15.533  10.807 -0.1749  0.0809  0.1543
28072W        W44919  15.946   6.338  10.774  0.0563 -0.0383  0.1221
28073W        W44920   6.126  11.509  12.402 -0.1626 -0.0897  0.0594
28074W        W44921   3.816   0.280   0.110  0.1539 -0.0403  0.2526
28075W        W44922  18.316  13.728   0.032 -0.0693 -0.2721  0.0580
28076W        W44923  11.947   4.410   5.391 -0.2473  0.0055  0.2219
28077W        W44924   3.564   6.463   4.634  0.2018 -0.1674  0.0784
28078W        W44925   9.696   0.777  11.416 -0.3247  0.4277  0.0709
28079W        W44926   5.343  15.890  13.528  0.1104  0.1546 -0.1044
28080W        W44927  18.341   2.597  10.714 -0.4039 -0.2530 -0.2796
28081W        W44928   9.190   1.419  10.762 -0.1741  0.0458 -0.0544
28082W        W44929   5.664  11.701  11.346 -0.0541 -0.0558  0.0422
28083W        W44930   8.961   1.302   4.569  0.1678  0.0318  0.1226
28084W        W44931  10.672   6.996  14.559 -0.1347 -0.1367 -0.1126
28085W        W44932   8.636   2.090  14.553 -0.1502 -0.0212  0.1147
28086W        W44933   8.523   3.025  10.726 -0.0445  0.0604 -0.0136
28087W        W44934  19.053   3.800  14.828  0.2927 -0.2747  0.0505
28088W        W44935   9.361  16.291  14.777  0.3755  0.1459  0.4716
28089W        W44936   8.555   9.049   0.622  0.0234 -0.0627 -0.2900
28090W        W44937   5.218  15.291  12.435 -0.0821  0.1895 -0.4962
28091W        W44938   2.375  10.408   1.496 -0.0999  0.3298 -0.1378
28092W        W44939   0.794   9.957  10.426 -0.1721 -0.2226 -0.0149
28093W        W44940   5.965  13.307  10.912  0.0007 -0.1054  0.0739
28094W        W44941   7.470  16.036   2.971 -0.0612 -0.2534 -0.1284
28095W        W44942  13.602   2.661   4.442  0.1855 -0.0036  0.0059
28096W        W44943   4.109  12.506  14.894 -0.0140  0.1419 -0.0808
28097W        W44944   8.437  15.501   3.604 -0.1024  0.0680 -0.0906
28098W        W44945   6.608   7.295  14.698  0.0392 -0.2114  0.0604
28099W        W44946   0.048   3.895  13.384  0.0884 -0.2853 -0.1496
28100W        W44947  17.855   5.826  14.832  0.2171 -0.0075  0.2215
28101W        W44948   8.744  17.020   1.519 -0.0061  0.0049 -0.0306
28102W        W44949   6.402  17.062   1.454 -0.1249  0.2070  0.2227
28103W        W44950  17.811   2.653   1.140  0.2732 -0.1785 -0.1270
28104W        W44951   7.861  12.759  13.933  0.1720 -0.2253  0.0636
28105W        W44952   7.622  14.364  12.680 -0.0275 -0.1250 -0.2730
28106W        W44953  11.429  14.941  12.124 -0.0570  0.0660  0.0621
28107W        W44954   5.894   3.413  12.307  0.1553  0.1699  0.0959
28108W        W44955  17.169   4.816  13.579 -0.1620  0.0984 -0.1314
28109W        W44956   0.212  17.212   0.129 -0.0299 -0.0126  0.1846
28110W        W44957   0.953  13.088  12.319 -0.1217 -0.3485 -0.1231
28111W        W44958  18.942  10.697   2.321 -0.0277 -0.0865 -0.1705
28112W        W44959   0.749   3.255  11.574  0.0516 -0.0280  0.3619
28113W        W44960   0.207   3.680   4.091  0.2664  0.2730  0.0235
28114W        W44961  19.195  17.461  13.277 -0.1515  0.0931  0.4105
28115W        W44962   9.912   9.132  10.840  0.1007  0.1959  0.1144
28116W        W44963  12.980   9.401  13.822 -0.0821  0.0774 -0.0079
28117W        W44964  16.666  14.889   0.186  0.2694  0.1012 -0.0754
28118W        W44965  10.043  18.867  13.255  0.0618  0.1147  0.3491
28119W        W44966   0.230   6.674   4.423  0.0246  0.0090 -0.0344
28120W        W44967  18.984   2.444  14.377  0.3575  0.0355  0.1510
28121W        W44968   0.295   4.745  10.833 -0.1976 -0.0555  0.2529
28122W        W44969   4.961  17.820  14.766  0.2861 -0.1725  0.2902
28123W        W44970   4.241  16.102   1.670 -0.1885  0.1437 -0.3291
28124W        W44971   9.118  10.911   3.907  0.1327 -0.3589 -0.2425
28125W        W44972  11.406  10.922   3.021 -0.0012 -0.0762  0.0556
28126W        W44973   4.195   9.437  14.283 -0.1586  0.2742 -0.0496
28127W        W44974   7.608  11.106  13.635 -0.0938 -0.0641  0.0347
28128W        W44975   3.611  17.747   4.003 -0.1385  0.2142  0.1011
28129W        W44976  14.546  14.247   0.083 -0.1735 -0.0494 -0.0963
28130W        W44977   7.420   7.434  10.402  0.0002 -0.1778  0.1312
28131W        W44978  15.915   9.844  13.510 -0.0103 -0.2186  0.1374
28132W        W44979   7.811  19.015   1.475 -0.2561 -0.1416 -0.2008
28133W        W44980   3.555  17.109   4.051 -0.4607 -0.0456  0.1281
28134W        W44981  13.405   5.877   2.944 -0.0444 -0.0045 -0.2685
28135W        W44982  18.871  17.269   0.707  0.1569  0.1525 -0.1620
28136W        W44983  17.128  15.902   4.570 -0.2769 -0.0073 -0.0830
28137W        W44984   8.644   7.178  12.080 -0.1650 -0.2487 -0.0792
28138W        W44985   4.120  14.680  10.329 -0.0538  0.0866  0.0739
28139W        W44986  10.152   4.454   0.555 -0.1761  0.4693  0.2696
28140W        W44987   3.336  11.459  12.471  0.0420  0.3159  0.1015
28141W        W44988  14.639   3.251  10.468  0.3711  0.1434  0.0968
28142W        W44989   6.368  12.838  12.568 -0.0584 -0.3495  0.0600
28143W        W44990  14.428   1.808   4.410 -0.1690  0.2489  0.1024
28144W        W44991   6.058  18.008  14.661 -0.1009 -0.1801  0.2608
28145W        W44992   0.200  16.120  14.603 -0.1459 -0.0097 -0.2136
28146W        W44993   1.803   2.550  14.883 -0.0323 -0.1084  0.2674
28147W        W44994   0.384   0.150   3.549  0.1194 -0.2780 -0.0314
28148W        W44995  10.661  12.144   1.084 -0.0335  0.1704  0.0700
28149W        W44996   6.983   3.691   3.936  0.1431 -0.2594  0.0166
28150W        W44997   8.854  10.867   0.309  0.0952 -0.1557 -0.2355
28151W        W44998  11.225   8.205   1.728  0.2168  0.2392  0.1331
28152W        W44999  15.741   1.675  11.637  0.1253  0.0768 -0.2397
28153W        W45000  14.706  10.405  11.028 -0.3021  0.0309 -0.2627
28154W        W45001   0.865  10.851   3.750  0.1338 -0.1355 -0.0857
28155W        W45002  18.742   1.142   3.246  0.3705  0.1679  0.1577
28156W        W45003  18.816  10.078   3.647 -0.0954 -0.0572 -0.1905
28157W        W45004  15.458  14.678  10.820  0.0722 -0.1968 -0.0888
28158W        W45005  15.261   8.818   2.049  0.2275  0.0184  0.0181
28159W        W45006  14.323   3.058   1.507  0.1737  0.1683 -0.1097
28160W        W45007   9.923  18.779   1.620 -0.0638  0.1902 -0.2207
28161W        W45008  16.828   7.317   0.119  0.3693 -0.0070 -0.2240
28162W        W45009   6.140   2.486  11.698 -0.1158 -0.0170 -0.0393
28163W        W45010   2.448  13.430   2.111  0.0866  0.0925 -0.0144
28164W        W45011  13.817  10.116  11.782  0.1976  0.1482  0.0933
28165W        W45012   8.777  11.824   4.841 -0.2741  0.0237 -0.0826
28166W        W45013  18.654  10.166  12.790 -0.2280  0.0686 -0.1046
28167W        W45014  11.142  12.110  14.606 -0.0512  0.0611  0.0785
28168W        W45015   6.747   6.340  14.846 -0.1071  0.5473 -0.0397
28169W        W45016  10.282   1.250   1.233 -0.1179  0.1893 -0.1391
28170W        W45017  13.212   0.152   4.373  0.1932 -0.1042  0.0296
28171W        W45018  17.774   2.337   3.246 -0.0785  0.2988 -0.2471
28172W        W45019  18.560   9.282   1.027  0.0079  0.1000 -0.1241
28173W        W45020   8.058   4.911   2.754  0.0017 -0.1454  0.1166
28174W        W45021   5.124  10.321  12.925  0.0448  0.1989  0.2134
28175W        W45022  14.500   5.708   1.853  0.0509  0.3228 -0.3340
28176W        W45023  12.639  14.164   5.366  0.0229 -0.3819 -0.1763
28177W        W45024   3.068  18.067   2.326 -0.3070 -0.0508 -0.0753
28178W        W45025  16.870   1.915  12.072 -0.0408  0.3053  0.1466
28179W        W45026  14.658   9.948  11.136 -0.0200  0.0283  0.0898
28180W        W45027   6.754   5.775  14.377 -0.1777  0.3136  0.1373
28181W        W45028   9.475   9.554   2.465 -0.0803 -0.3277  0.3191
28182W        W45029  14.020  13.526   0.389  0.1169  0.1920 -0.0370
28183W        W45030   7.096  11.749  14.874 -0.3540  0.0551  0.0358
28184W        W45031   2.342  14.742  10.904  0.1005  0.1178  0.0918
28185W        W45032   6.605  12.068   2.831  0.1155 -0.0975  0.0019
28186W        W45033  13.659   2.295   1.735 -0.2996 -0.1381 -0.0771
28187W        W45034  11.234  15.058   4.209  0.1427 -0.2867  0.0302
28188W        W45035   8.176  15.252  14.269 -0.0363 -0.0295  0.1682
28189W        W45036  11.322   0.478  14.079 -0.0352  0.1397  0.1985
28190W        W45037   8.508   8.432   4.006  0.0836 -0.0088 -0.1559
28191W        W45038   1.413   5.304  13.977  0.0254  0.0018  0.2751
28192W        W45039  11.984  18.444  11.501 -0.2547  0.0161  0.1005
28193W        W45040   3.633  16.623   4.133 -0.2482  0.0255 -0.1906
28194W        W45041   1.373  15.542   4.219 -0.1878 -0.1151 -0.1035
28195W        W45042   1.803  17.278   1.139  0.0142 -0.0058 -0.0366
28196W        W45043  10.442   3.437   4.191  0.2580 -0.0732  0.3799
28197W        W45044  11.751   8.287  11.908 -0.4184 -0.0769 -0.0020
28198W        W45045  13.255   4.245  13.608  0.1485 -0.2196  0.1382
28199W        W45046   5.588  13.007   1.506  0.0034  0.0714  0.0337
28200W        W45047  15.076  10.819  13.641 -0.2152  0.0701 -0.4832
28201W        W45048   7.822   0.026   9.519  0.0690  0.0465  0.1178
28202W        W45049   8.198  13.035   3.914  0.0978 -0.0114 -0.0962
28203W        W45050  11.092  16.613   1.911 -0.0575 -0.0515  0.1722
28204W        W45051  14.828  13.736   0.877  0.1228 -0.0177  0.0167
28205W        W45052  10.787  12.062   1.625 -0.4427  0.0614  0.4654
28206W        W45053   1.746   2.802   4.514  0.0252 -0.0852 -0.3189
28207W        W45054   8.933   6.298  14.695  0.0779  0.1018 -0.0742
28208W        W45055  17.309  12.273  13.294 -0.0864 -0.0784  0.1564
28209W        W45056  12.627   3.491  10.711 -0.0953  0.3722 -0.0563
28210W        W45057  17.214   9.721  14.682  0.1844  0.1098  0.0965
28211W        W45058  16.995   7.253   3.227  0.1353  0.2230  0.0008
28212W        W45059   7.308  17.189  10.709 -0.2105  0.1135 -0.0604
28213W        W45060  12.634   8.124   1.836 -0.2657  0.3160 -0.3391
28214W        W45061  13.812   6.341  14.256  0.0371  0.0913 -0.3137
28215W        W45062   5.485   2.503   3.782  0.2450 -0.1283 -0.1607
28216W        W45063   3.140  18.551  12.435  0.1838 -0.1241 -0.1159
28217W        W45064   0.760  12.970  13.651  0.3269 -0.0719  0.0670
28218W        W45065  11.801   9.813  12.428  0.0812 -0.1747 -0.0041
28219W        W45066  15.801   8.117  11.325  0.2862 -0.0373  0.3423
28220W        W45067  18.361   4.021  12.613 -0.1453  0.3106 -0.0256
28221W        W45068  13.755  10.469   3.601  0.2388 -0.1469  0.0984
28222W        W45069   6.502   8.964   2.679 -0.1448  0.2455  0.0276
28223W        W45070   0.910  18.899   3.994 -0.0421 -0.1446  0.1601
28224W        W45071   5.854  13.913   0.550  0.0213 -0.1330 -0.0210
28225W        W45072   2.145   8.277   4.222  0.1509 -0.1302  0.0638
28226W        W45073   0.883  10.113  11.328  0.0940  0.2506  0.3099
28227W        W45074  10.787  14.676   1.233 -0.1314  0.1798  0.2452
28228W        W45075  13.333  16.369  10.243 -0.0137 -0.3452  0.1298
28229W        W45076  18.967  13.511   3.845  0.0184 -0.2312 -0.0610
28230W        W45077  11.281  16.770  12.267  0.2280 -0.0270 -0.1041
28231W        W45078   8.472  19.060   2.858  0.2650 -0.2421 -0.0955
28232W        W45079  14.630   6.008  10.766  0.2722  0.0559  0.1496
28233W        W45080  17.478  12.163  14.887 -0.1226  0.0354  0.0160
28234W        W45081   4.451   8.450  10.506  0.0680  0.1162  0.2737
28235W        W45082   7.329  14.436  12.300 -0.1610  0.1049  0.1641
28236W        W45083   8.310  13.492   2.088 -0.3953  0.0158  0.2619
28237W        W45084  10.724  13.957   3.073 -0.0494  0.1125  0.1062
28238W        W45085   1.936   4.175  12.722  0.0460  0.0276  0.1008
28239W        W45086   5.111   8.477  13.079 -0.1633  0.1710 -0.0372
28240W        W45087   0.412  18.473  13.411  0.0156 -0.2451 -0.0288
28241W        W45088  14.355   4.118  14.683  0.1549 -0.1957 -0.0674
28242W        W45089  13.253  15.908   3.600 -0.2436  0.1370 -0.0731
28243W        W45090   2.787   4.494   3.673  0.0999  0.2474  0.0550
28244W        W45091  15.742   3.941   3.560 -0.1676 -0.0243  0.1856
28245W        W45092  13.118  15.393  10.351 -0.3342 -0.2728  0.1608
28246W        W45093  17.865   4.280  12.439  0.0239 -0.1065  0.1374
28247W        W45094   8.863  12.454   4.306 -0.0322 -0.3288  0.0545
28248W        W45095   8.571  18.136   3.991  0.2045 -0.0762 -0.2612
28249W        W45096  14.562   8.800   3.557 -0.1795 -0.3466 -0.2956
28250W        W45097   6.674  17.531  14.089 -0.2639  0.2636  0.2805
28251W        W45098   5.680  11.387   0.369 -0.1304  0.0443 -0.1625
28252W        W45099   2.946   7.573  14.511  0.0014 -0.1172 -0.0827
28253W        W45100   2.370  11.882  14.112  0.1734  0.2131  0.1560
28254W        W45101  19.181   7.045  13.000  0.0925 -0.0643  0.2005
28255W        W45102   6.190   1.342   3.907 -0.4763 -0.1517 -0.1683
28256W        W45103  17.435  18.730  13.257 -0.1403  0.2759 -0.1493
28257W        W45104   7.317  10.938  13.274 -0.1411  0.1237  0.0029
28258W        W45105   4.558  15.936   5.420  0.2239 -0.3038 -0.0947
28259W        W45106   3.914   1.634   1.988 -0.0277 -0.1240  0.0753
28260W        W45107   1.265  17.652   2.808 -0.2801  0.2374  0.1231
28261W        W45108  16.559  13.608   0.982 -0.0523  0.1642  0.3208
28262W        W45109  10.376   2.562   0.112 -0.2387  0.0301 -0.3643
28263W        W45110  12.212   5.921  11.338 -0.2576 -0.1633  0.2585
28264W        W45111  14.929   6.334  12.255 -0.0647 -0.1592 -0.0203
28265W        W45112  13.601  13.458   3.640  0.0494  0.2141  0.1223
28266W        W45113   3.293  18.883  12.012  0.3461 -0.0058  0.0247
28267W        W45114   5.672  16.559   4.550  0.0640 -0.0605  0.0191
28268W        W45115  13.678  16.316   1.768 -0.0838  0.0729 -0.3288
28269W        W45116   3.258   6.317   4.289  0.1343 -0.0807 -0.0083
28270W        W45117  15.436  12.312   1.948 -0.0975  0.2786 -0.0786
28271W        W45118   9.580   2.681   5.125 -0.0105 -0.1910  0.0985
28272W        W45119   2.767   1.948  13.143 -0.0478  0.0851  0.2373
28273W        W45120   3.544   0.032  13.349 -0.1376 -0.3904  0.3361
28274W        W45121   3.424   1.634  12.505  0.3122 -0.0500 -0.0220
28275W        W45122   8.030   8.413  12.324  0.0928  0.0602 -0.0088
28276W        W45123  16.267   9.473   4.335 -0.1325  0.0594 -0.3366
28277W        W45124   3.251   8.598   2.116 -0.0648  0.0563  0.2584
28278W        W45125   0.084  17.045   5.558 -0.1833 -0.3156 -0.1410
28279W        W45126  18.682   0.335   3.810  0.3140 -0.4136  0.1534
28280W        W45127  18.676   0.549  14.987  0.0097  0.0083 -0.2415
28281W        W45128   6.303   4.631  12.785  0.1326  0.1642 -0.1246
28282W        W45129   5.467   2.621  13.213  0.2580 -0.3564  0.1213
28283W        W45130   5.050   1.338   0.062 -0.0530 -0.0204 -0.3089
28284W        W45131   5.373   6.523   3.879 -0.2175  0.0195  0.0860
28285W        W45132   4.262  15.420   9.760 -0.1356 -0.2585 -0.0084
28286W        W45133   5.611  19.229   2.561 -0.2290  0.1361 -0.0492
28287W        W45134  17.237   9.813  10.617 -0.2882 -0.0507 -0.2138
28288W        W45135  10.591  11.849  11.655 -0.1219  0.1466 -0.0934
28289W        W45136  10.971  18.363  12.927  0.0470  0.1220  0.2218
28290W        W45137   5.401  18.701   4.872 -0.2098 -0.1529 -0.0800
28291W        W45138  11.597   3.878   2.733  0.1575  0.3463 -0.1643
28292W        W45139  19.276  12.607  13.943  0.0601 -0.0620 -0.2019
28293W        W45140  11.912   2.142   3.082  0.0379  0.1705  0.1175
28294W        W45141  10.033   8.282   1.293  0.0446  0.0837 -0.0204
28295W        W45142   1.930   4.326   4.470  0.3431  0.0399 -0.1096
28296W        W45143  14.904  12.597  13.477  0.1130 -0.1586 -0.1084
28297W        W45144   2.023   1.639   1.122 -0.0523 -0.1681  0.0920
28298W        W45145   0.221   6.418   3.498  0.0471 -0.1134 -0.1022
28299W        W45146  14.699   5.533   5.464 -0.1120 -0.0131 -0.0707
28300W        W45147  17.891  12.770   2.395 -0.0795 -0.0017 -0.1538
28301W        W45148   8.776   9.126  13.246  0.1054 -0.0783 -0.3491
28302W        W45149  10.677  17.282   2.136 -0.2453 -0.1511 -0.0724
28303W        W45150   9.998  11.539   4.949  0.0215 -0.0794  0.0036
28304W        W45151  10.490   0.789   1.402 -0.0762  0.1724  0.1380
28305W        W45152   2.460   7.509  10.415 -0.0094 -0.2574  0.3178
28306W        W45153   7.361   1.853  11.590 -0.1985 -0.2879  0.0964
28307W        W45154  14.071   7.519  14.040  0.2871 -0.0047  0.4375
28308W        W45155  15.792   1.804   4.332 -0.1272  0.0971  0.2534
28309W        W45156  10.536   9.743   0.550 -0.0477  0.0180 -0.0952
28310W        W45157   9.303  13.523   3.345 -0.2366  0.2986 -0.1018
28311W        W45158   2.613  15.230   2.601  0.1281 -0.0835 -0.4175
28312W        W45159   1.989   6.450  10.412 -0.1971 -0.0226 -0.0309
28313W        W45160  18.369   6.548  11.353 -0.3809 -0.4792 -0.1808
28314W        W45161   9.847   5.839  12.284 -0.3099  0.1777  0.1087
28315W        W45162   4.154  13.643   2.323 -0.0291  0.1507  0.0026
28316W        W45163   1.338  16.842   3.049 -0.1403  0.1453 -0.1103
28317W        W45164   8.633   1.810   1.858  0.1770 -0.1187 -0.1632
28318W        W45165  16.735   9.102   1.103 -0.2472 -0.0390 -0.2965
28319W        W45166   1.675   2.976  11.942  0.1995 -0.2744 -0.3750
28320W        W45167  18.155  16.338  13.394  0.0486 -0.1803  0.0062
28321W        W45168   0.728   4.108   1.727 -0.0087 -0.1832  0.2545
28322W        W45169  16.279   9.625   3.859 -0.1464 -0.4437 -0.0774
28323W        W45170   1.266  17.975   4.570  0.2152 -0.0101 -0.0241
28324W        W45171  10.641  12.658   2.497 -0.1493 -0.1619  0.0102
28325W        W45172   1.123  10.460  12.449 -0.2061  0.2960  0.1315
28326W        W45173   0.529   5.196  11.060  0.4345  0.2730  0.2092
28327W        W45174   0.785   7.970  14.845 -0.1609  0.4116  0.0506
28328W        W45175  13.792   2.757   3.000 -0.1453  0.0502 -0.0161
28329W        W45176   7.133  14.069   4.038  0.2657  0.1587  0.2348
28330W        W45177  12.022  19.154   1.254  0.0389  0.1449  0.0964
28331W        W45178   0.439   8.024   3.601  0.0929  0.0151 -0.1836
28332W        W45179   5.781  17.049  13.883 -0.0372  0.1749 -0.1720
28333W        W45180  16.954  10.060   0.307  0.4062 -0.2434 -0.3022
28334W        W45181   0.854  16.779   0.526 -0.0123 -0.2746  0.0082
28335W        W45182  13.240   5.764   2.227 -0.1282 -0.6121 -0.0080
28336W        W45183   8.467  14.765   3.061 -0.2551 -0.1169 -0.2241
28337W        W45184   0.687   7.695   3.073 -0.0461 -0.2800  0.1767
28338W        W45185   5.567  17.127  11.592  0.1373  0.2763  0.0891
28339W        W45186   3.665   7.319   2.109 -0.0613 -0.0582 -0.0000
28340W        W45187   3.321   6.442  14.998  0.0941  0.1488 -0.5150
28341W        W45188   8.423   8.054  10.674  0.0351  0.2793 -0.2990
28342W        W45189  10.975  15.667   1.912  0.0900  0.3627  0.0681
28343W        W45190   1.644  16.216  12.398 -0.1879 -0.0806 -0.2900
28344W        W45191   8.750  12.983   4.700  0.1208 -0.1970  0.0498
28345W        W45192   4.779  10.527   1.742  0.1588  0.2689 -0.1785
28346W        W45193   6.513   7.430   0.148  0.1539  0.2647 -0.0729
28347W        W45194   1.467  16.782   3.524 -0.1024 -0.1959  0.3512
28348W        W45195  14.662   6.419  10.356  0.0703 -0.3222 -0.1365
28349W        W45196   4.149   2.256   3.936  0.0154 -0.2446  0.0855
28350W        W45197  18.588  15.994   9.762  0.0084  0.1568 -0.0742
28351W        W45198  14.618   0.104  12.661 -0.2435  0.0870 -0.0347
28352W        W45199   7.771  13.881   3.368  0.1855 -0.2209  0.3102
28353W        W45200   7.373   5.730   0.229 -0.1538 -0.1680  0.3761
28354W        W45201  13.614  14.147  10.956  0.0028  0.0148  0.0440
28355W        W45202  13.076  12.799   3.148 -0.1310  0.0466  0.0668
28356W        W45203   8.522   9.738  14.571  0.0974 -0.2200  0.1153
28357W        W45204  17.947  10.353   2.982  0.0393 -0.1803  0.1861
28358W        W45205   3.054  13.123   4.737 -0.2456  0.2348  0.0302
28359W        W45206   3.977  12.653  12.992 -0.2233  0.0814 -0.0081
28360W        W45207   9.222   2.083   2.946 -0.3605 -0.4218  0.0658
28361W        W45208   2.066  16.593  13.595  0.1799 -0.0585 -0.0433
28362W        W45209  10.920   3.138  13.078 -0.2194 -0.0422 -0.1354
28363W        W45210  12.599   3.913   0.835  0.2129 -0.1137  0.1418
28364W        W45211   1.486  10.538   9.936  0.2430  0.0100  0.1767
28365W        W45212   1.726   2.528  10.514  0.0704  0.0002  0.1104
28366W        W45213   6.512  11.504   2.046  0.0556  0.1839 -0.2218
28367W        W45214   7.771  16.184  13.445 -0.1901 -0.0265  0.0578
28368W        W45215  11.410  19.136  12.005 -0.0529 -0.1894 -0.1077
28369W        W45216   1.845   4.674   2.557 -0.1416 -0.2637  0.0763
28370W        W45217  10.765  19.087   1.662  0.0152  0.0736 -0.0159
28371W        W45218  12.882  16.820   4.844 -0.0121  0.1880 -0.1833
28372W        W45219   4.441   4.647  13.677  0.1277  0.0392  0.2856
28373W        W45220   2.967  14.370  13.244 -0.0010  0.1446  0.0218
28374W        W45221  18.205  15.850  13.465 -0.1586 -0.1891  0.0799
28375W        W45222   7.046   2.062   5.346  0.0439 -0.3344 -0.1873
28376W        W45223  11.922  10.830   3.109 -0.2885 -0.1138 -0.0350
28377W        W45224  14.616  10.939   1.008 -0.0702  0.2093  0.2443
28378W        W45225  14.895   8.796  10.569  0.1000  0.0837 -0.2266
28379W        W45226  18.392  12.076   2.587  0.1861 -0.0462  0.3307
28380W        W45227  10.031   5.292  14.636  0.0525 -0.0215 -0.1675
28381W        W45228  16.110   1.206  13.979 -0.0150 -0.1675  0.2175
28382W        W45229   2.390   1.158  11.528 -0.0934  0.0787  0.1183
28383W        W45230  10.386   7.163   3.497  0.2232  0.5051 -0.0801
28384W        W45231   4.246  13.555   5.076  0.0706  0.3946 -0.0619
28385W        W45232   5.659  15.051  11.489 -0.0913 -0.0376  0.3907
28386W        W45233  16.288   0.581  12.415  0.0894 -0.0741  0.1081
28387W        W45234   3.068   3.171  12.197 -0.0573 -0.1474 -0.1346
28388W        W45235  12.295  18.370   1.819 -0.1844  0.0646  0.0875
28389W        W45236  17.007  10.639   0.547  0.0346 -0.0329  0.1937
28390W        W45237  13.162  17.872   3.096  0.2147  0.3086  0.0916
28391W        W45238  12.158  12.112   1.161 -0.2831  0.1099  0.2134
28392W        W45239   2.202  16.858  12.116  0.3499 -0.1191 -0.0737
28393W        W45240  19.018   5.561   2.643 -0.5026 -0.0332 -0.1997
28394W        W45241   3.486   6.703   4.078 -0.4191 -0.2544  0.1855
28395W        W45242   3.168  12.165  11.828  0.2358  0.3643 -0.0581
28396W        W45243   3.189  16.567   0.100 -0.0313  0.2342 -0.0592
28397W        W45244  13.991  19.061   0.368 -0.1551  0.2846 -0.0973
28398W        W45245   7.006  14.523  13.799 -0.0573 -0.2946  0.2614
28399W        W45246   8.675  14.351   3.266 -0.2733  0.2325 -0.0018
28400W        W45247   9.453   8.139  13.439  0.1560 -0.1170  0.0064
28401W        W45248   2.161   2.958  14.588 -0.1698 -0.4578  0.2052
28402W        W45249   2.916   1.427   0.883  0.0280 -0.0593 -0.0140
28403W        W45250   3.956  15.752   1.777  0.2313 -0.0857 -0.2660
28404W        W45251  15.390   1.465  11.035 -0.0354 -0.0505 -0.2394
28405W        W45252  17.545   7.425   1.898 -0.1214  0.1099 -0.3280
28406W        W45253  16.356   5.389  14.743 -0.1789  0.1817  0.1612
28407W        W45254   2.010  16.804   2.313  0.0484 -0.0214 -0.0337
28408W        W45255   1.225  10.418  14.189  0.2713  0.4925 -0.1843
28409W        W45256  18.212   8.971  10.956 -0.0336 -0.2363 -0.1145
28410W        W45257  17.576  17.036  11.079  0.3035  0.0689 -0.1431
28411W        W45258  15.465  17.921  13.258  0.0244 -0.0425  0.1436
28412W        W45259   6.619  14.104   1.143 -0.0831  0.2080  0.3964
28413W        W45260   6.720   8.259  13.167  0.1512 -0.1864  0.0689
28414W        W45261  18.437  10.801   2.203 -0.0253  0.0948  0.0649
28415W        W45262  14.109  17.164   0.063  0.3144 -0.1848  0.1332
28416W        W45263  15.948   8.732   3.770 -0.1609  0.2986 -0.0013
28417W        W45264  10.883   0.069  10.433 -0.1670  0.1694  0.0481
28418W        W45265   6.006   5.546  13.484 -0.0703  0.0428  0.0936
28419W        W45266  15.435  14.209  13.065 -0.0742  0.1923  0.0235
28420W        W45267   8.762  10.992  13.149 -0.1191 -0.0029  0.3986
28421W        W45268  17.071   5.992   3.774  0.0087 -0.1745  0.1388
28422W        W45269  18.410   8.213   4.083  0.0624 -0.3446  0.4270
28423W        W45270   8.483  10.936  13.943 -0.0711  0.1283  0.4884
28424W        W45271  13.069  16.933  13.873  0.0365 -0.1652  0.0516
28425W        W45272  13.851   8.181   0.998 -0.1062 -0.1144  0.3208
28426W        W45273  14.495   0.576  12.822 -0.0697 -0.0711  0.1341
28427W        W45274  18.131   1.192  14.549  0.1969  0.1847 -0.1990
28428W        W45275  18.201   0.290   3.930  0.4777  0.3303 -0.0735
28429W        W45276   8.058   8.625  11.870  0.1842  0.2092 -0.1279
28430W        W45277   7.638   4.001  14.120 -0.0268 -0.0511  0.1195
28431W        W45278   4.069   2.782   0.167  0.4021  0.1868  0.0325
28432W        W45279   1.398  18.540   5.006 -0.0736 -0.0781 -0.1670
28433W        W45280   7.734   9.965  11.981  0.0135  0.3169 -0.1829
28434W        W45281   6.063   6.544   4.989 -0.0025 -0.3335 -0.5257
28435W        W45282   8.072   6.119  13.507 -0.1666 -0.1365  0.0837
28436W        W45283  11.600  14.767  14.745 -0.0023  0.0135 -0.0089
28437W        W45284  10.524   0.082  12.018  0.2144  0.0714  0.0715
28438W        W45285   8.512   6.125   3.721  0.1326 -0.1242 -0.1694
28439W        W45286   9.403  11.747   1.229 -0.0007 -0.0544  0.0315
28440W        W45287   7.175  11.113   3.686  0.1388  0.0102  0.0569
28441W        W45288  18.157   4.120  14.870  0.0985 -0.2324  0.1034
28442W        W45289  19.038   7.983  13.787  0.2426  0.1344  0.0700
28443W        W45290  11.808  10.914   1.573  0.3938 -0.1498  0.0634
28444W        W45291  16.035  18.779  12.551  0.0124  0.0437  0.1738
28445W        W45292   4.099   1.560  14.727  0.0858  0.3957  0.2477
28446W        W45293   6.575  17.591  10.928  0.1609 -0.1300  0.3559
28447W        W45294  11.885  18.650  13.166  0.2689 -0.2464  0.2504
28448W        W45295   6.358  16.349   2.718 -0.1252 -0.0570  0.4467
28449W        W45296   2.400  16.650  11.316 -0.1382 -0.2884 -0.0002
28450W        W45297   7.828  11.142   0.340  0.2626  0.0305 -0.1253
28451W        W45298   3.883  16.727  14.272 -0.2300  0.0954  0.2480
28452W        W45299  14.482   5.818  14.976  0.1233  0.1143  0.1574
28453W        W45300  15.135   9.943   2.880 -0.1554  0.3145  0.0543
28454W        W45301   0.046   0.008  13.984  0.0248  0.2122  0.0009
28455W        W45302  16.986   1.176  12.597  0.1207  0.1918 -0.1148
28456W        W45303  19.135   6.292  12.252  0.1528 -0.1296  0.2419
28457W        W45304   5.410   6.610  14.073 -0.2612  0.1261 -0.0210
28458W        W45305  10.504   4.414  11.490 -0.0365 -0.1694  0.3217
28459W        W45306  17.746   8.734  11.095 -0.1698 -0.0147 -0.1035
28460W        W45307  14.532  15.305  11.145 -0.0911 -0.3827 -0.1020
28461W        W45308  16.076  18.297   1.698 -0.1290 -0.0475 -0.1907
28462W        W45309   5.013  12.176  11.380 -0.1357 -0.0589 -0.1556
28463W        W45310  13.790  16.788   3.810  0.1718  0.1727  0.0718
28464W        W45311  16.852  13.640   1.809 -0.2443 -0.0533 -0.0130
28465W        W45312  13.653  17.376  11.468 -0.2486 -0.2490 -0.1005
28466W        W45313   1.403  16.598   1.741  0.2329 -0.1000  0.0966
28467W        W45314  14.281   0.424   3.187 -0.0277  0.0070 -0.2830
28468W        W45315   0.295   3.101  11.665 -0.1253 -0.1882  0.0244
28469W        W45316   4.317   7.968  12.140  0.1022 -0.2518  0.0112
28470W        W45317   1.702   7.897  10.638 -0.1742  0.1441 -0.1311
28471W        W45318   8.112  14.619   1.299  0.2880 -0.3322 -0.0785
28472W        W45319  12.346   1.537  12.020  0.2633 -0.2093  0.1933
28473W        W45320  12.512  13.192  12.735  0.3743  0.1973  0.3098
28474W        W45321  13.951  12.849  12.532 -0.0528  0.0014  0.1637
28475W        W45322  10.226   7.979  12.911 -0.0028 -0.0184 -0.1452
28476W        W45323   3.307   8.876  11.079 -0.1080  0.0508  0.0614
28477W        W45324  19.278   0.022   4.559  0.0827 -0.2893  0.0411
28478W        W45325   5.343   7.671   3.257  0.1330 -0.3381  0.0614
28479W        W45326   5.243   5.758  13.921 -0.0252 -0.0784 -0.2367
28480W        W45327   8.241   3.806  11.532  0.0552  0.2338 -0.2697
28481W        W45328   6.319  18.841  13.450 -0.0574 -0.1473 -0.0316
28482W        W45329  19.144   5.824  11.852  0.2439 -0.1202 -0.1518
28483W        W45330   5.736   4.638   3.017  0.0034 -0.0389 -0.1057
28484W        W45331   8.066   8.896   3.396 -0.0695  0.0614 -0.3347
28485W        W45332   5.327  17.495  13.669  0.2785  0.4660 -0.0453
28486W        W45333   1.630   6.478  14.355  0.1050 -0.1394  0.2220
28487W        W45334  13.484  10.274   1.452  0.3533 -0.0104  0.0405
28488W        W45335   9.595  12.340   4.726  0.0146  0.0955  0.0779
28489W        W45336   6.564   9.495  13.857 -0.1096 -0.1877  0.2916
28490W        W45337  14.474   7.799  13.860  0.0257 -0.0833  0.0040
28491W        W45338   2.820  18.508   1.485 -0.0713  0.2062 -0.1660
28492W        W45339   0.145  10.499  12.814  0.0053  0.0678 -0.2089
28493W        W45340  16.078   6.121   1.192 -0.0226 -0.1930 -0.1269
28494W        W45341   7.253   0.853  11.603  0.0640  0.1154  0.0743
28495W        W45342  15.708  16.850  12.403 -0.2974 -0.1952 -0.1482
28496W        W45343  10.718  11.047  12.821  0.2423 -0.0213  0.0204
28497W        W45344  11.646  12.771   1.947  0.1001 -0.1105  0.1956
28498W        W45345   9.110   4.602  10.895 -0.0651 -0.2061 -0.0170
28499W        W45346   0.011  11.822  10.673  0.0363  0.0557  0.0253
28500W        W45347  15.850   0.800  12.265 -0.0228  0.2075 -0.3105
28501W        W45348  11.276   2.212   4.389  0.0939  0.1837  0.1901
28502W        W45349  15.443   6.942   3.168  0.1808  0.1899  0.0592
28503W        W45350  16.067   7.347   4.479  0.0779  0.0870  0.0347
28504W        W45351   9.494  13.556  14.484  0.1811 -0.2993 -0.0526
28505W        W45352   8.634  10.388   1.271  0.0382 -0.3013 -0.1161
28506W        W45353   5.268  16.628  14.159  0.3866 -0.0270 -0.0072
28507W        W45354   5.511   1.273  12.801 -0.0674  0.1547 -0.0434
28508W        W45355   4.326  14.188  12.791  0.1618 -0.4725  0.0256
28509W        W45356   9.262  17.409   3.588  0.2565  0.0403  0.1418
28510W        W45357  10.379  10.334  10.828  0.2105 -0.1676 -0.2117
28511W        W45358   5.748  12.598   3.074 -0.0382  0.0300  0.0468
28512W        W45359  15.474   8.754  12.292  0.0862 -0.4523 -0.0530
28513W        W45360  18.702  10.060   0.739  0.0212 -0.1045 -0.0462
28514W        W45361  11.901   8.479  10.536  0.0416 -0.2698  0.4062
28515W        W45362   9.672   8.559   2.600  0.2726  0.3926 -0.0555
28516W        W45363  10.275   4.039   1.274 -0.0459 -0.1643  0.0620
28517W        W45364  12.377  14.329   0.160  0.0819 -0.0102 -0.0782
28518W        W45365   8.795  15.867  11.528 -0.0170 -0.0949  0.2976
28519W        W45366   4.002   1.956   2.331  0.0182 -0.0735  0.0846
28520W        W45367   8.006   1.952   2.819  0.4182  0.0292 -0.0939
28521W        W45368  11.615   4.612   3.084 -0.1708  0.2630  0.0688
28522W        W45369   2.846  17.417  12.966  0.1336 -0.1184 -0.0512
28523W        W45370   3.164  14.943  11.103 -0.1091 -0.4084 -0.0446
28524W        W45371  16.287   9.557  12.351 -0.2939  0.4503 -0.0666
28525W        W45372  15.528  11.025  10.711 -0.2979 -0.0171 -0.2002
28526W        W45373  18.224  15.420   3.671 -0.1005  0.0232 -0.0011
28527W        W45374  10.868   1.446  11.803  0.0933 -0.1047 -0.3600
28528W        W45375   6.807   3.789  14.911  0.1477  0.0711  0.0326
28529W        W45376  17.850  11.739   4.553  0.0830  0.1888 -0.1174
28530W        W45377   7.427  11.063   4.809 -0.3549 -0.0629 -0.0103
28531W        W45378   9.427   9.424  10.996 -0.1854  0.0784  0.1859
28532W        W45379  14.990   2.207   5.801 -0.1556  0.4103  0.3066
28533W        W45380   8.019   5.804   2.663 -0.0112 -0.1581 -0.2492
28534W        W45381   5.443   9.704  14.103  0.2645 -0.3048  0.1055
28535W        W45382  14.444  14.270  14.600 -0.0965  0.0471  0.2058
28536W        W45383  17.095  13.265  12.127  0.2512 -0.1059 -0.0967
28537W        W45384  14.612   4.461  13.008  0.3687 -0.0059  0.1764
28538W        W45385   4.040   2.153  12.006  0.0139 -0.1548 -0.1196
28539W        W45386   8.707  16.880   0.174  0.3352  0.3141 -0.2521
28540W        W45387  17.487   8.381  11.930  0.1598 -0.1288 -0.3694
28541W        W45388   0.843   2.850   1.977  0.0468  0.0101 -0.1033
28542W        W45389   3.466  15.241  12.887  0.0028  0.0305 -0.0179
28543W        W45390  11.116   3.164  12.440 -0.2468 -0.0907 -0.1151
28544W        W45391   2.719   8.847   4.800 -0.0984 -0.1172 -0.2105
28545W        W45392  12.526  10.485   2.973  0.3362 -0.0501 -0.0835
28546W        W45393   9.560   2.553  11.348  0.0672 -0.0554 -0.1225
28547W        W45394   6.341  17.388  11.593 -0.3342  0.1068  0.1328
28548W        W45395   0.275   4.764   1.688  0.2703  0.0884  0.0608
28549W        W45396   9.286   3.805   4.332  0.2857  0.0595 -0.0733
28550W        W45397   6.021   6.878  13.381  0.0976  0.1737 -0.1183
28551W        W45398  13.976   1.544   5.113 -0.2546 -0.1148 -0.1091
28552W        W45399   1.175  13.035   2.630 -0.2265  0.2432 -0.0558
28553W        W45400  10.751   1.744  13.662 -0.3123  0.2040 -0.0114
28554W        W45401  19.187  14.230  12.092 -0.1480 -0.1045  0.0044
28555W        W45402  13.407   2.689   2.672  0.2033 -0.0622 -0.0842
28556W        W45403   3.956   9.772   3.060  0.1577  0.0632  0.0705
28557W        W45404  17.198  16.641  13.276 -0.0925 -0.0773  0.0098
28558W        W45405   1.385   4.236   4.761  0.0145 -0.0784 -0.1798
28559W        W45406   7.199  13.713   0.727  0.0820 -0.3316  0.4458
28560W        W45407  16.703   0.726   5.134 -0.2941 -0.1207 -0.1610
28561W        W45408   7.113   8.231   2.803 -0.0437 -0.1695 -0.0047
28562W        W45409  16.628  13.676   3.627 -0.1017  0.0067 -0.0998
28563W        W45410  17.929  18.509  12.292 -0.0625  0.0959 -0.2817
28564W        W45411  15.746  11.209   1.277 -0.1000  0.0229  0.0853
28565W        W45412   3.195   2.004  12.311  0.1555  0.0570  0.2576
28566W        W45413  14.793   9.024  12.964  0.1185 -0.1824  0.1037
28567W        W45414   1.549  17.317  10.738 -0.0361  0.0795 -0.1025
28568W        W45415   3.421   5.246  10.662  0.0478 -0.0062  0.0313
28569W        W45416  13.316  15.979  13.308 -0.2315  0.0103  0.1413
28570W        W45417  11.621  12.362  11.135 -0.0814 -0.0473  0.0895
28571W        W45418  13.921   9.314   1.783 -0.0610  0.3255 -0.0307
28572W        W45419   9.487  17.756  10.928 -0.0545  0.1787  0.2542
28573W        W45420   2.730   4.668   4.163 -0.1927 -0.0778  0.1998
28574W        W45421  18.797   2.440   0.068  0.1669  0.0208  0.2757
28575W        W45422  12.013  14.931  11.700  0.1974 -0.0156 -0.0639
28576W        W45423   5.678  15.102   2.080  0.3481  0.1422  0.2126
28577W        W45424   6.149  19.282   4.415 -0.3121 -0.0994  0.0863
28578W        W45425  17.021  17.420  11.138 -0.4090  0.3386  0.0384
28579W        W45426   6.834  12.208  10.612 -0.0993 -0.1003 -0.2493
28580W        W45427  19.163  14.969  13.064  0.1170 -0.2381  0.1237
28581W        W45428  10.108  12.325  13.348  0.2883  0.2856  0.0278
28582W        W45429   0.138   2.050   2.984 -0.3163  0.2488 -0.1583
28583W        W45430  18.454   0.558   5.209 -0.5034  0.1981  0.0209
28584W        W45431   1.789   5.016   1.520 -0.1584  0.3726  0.0066
28585W        W45432  11.793   1.454  12.854  0.4595 -0.0024  0.2848
28586W        W45433   3.432  16.970   3.343  0.1568  0.0675 -0.3789
28587W        W45434  18.955  13.157  12.797  0.0800 -0.0138  0.0739
28588W        W45435   2.243  10.803   3.629 -0.0875 -0.0004 -0.2579
28589W        W45436   6.386   3.932  13.531  0.0032 -0.2024 -0.1847
28590W        W45437  14.322   6.752  14.786 -0.2148  0.0062  0.1249
28591W        W45438   2.911   1.405   2.763 -0.1740 -0.2694  0.1967
28592W        W45439  18.717  12.328  11.835  0.1825 -0.0410  0.0010
28593W        W45440   5.292  12.017  13.964 -0.0382 -0.0810  0.0847
28594W        W45441   9.608   7.813   0.091  0.1680  0.1807 -0.0474
28595W        W45442  13.809   2.888   0.768 -0.1931 -0.2630  0.2344
28596W        W45443   7.888  11.583  12.991 -0.0614 -0.4405  0.2022
28597W        W45444   6.525   6.021  10.457  0.1046  0.1480  0.2135
28598W        W45445  17.110  16.915  14.042  0.1456  0.1042 -0.3550
28599W        W45446   9.917   5.907  13.381  0.2265  0.4235 -0.1615
28600W        W45447  15.587   5.596   4.234  0.4588  0.1317  0.0011
28601W        W45448   5.816   2.850   4.591 -0.0425 -0.0904  0.0052
28602W        W45449  16.559  10.632   2.064 -0.1913  0.2162  0.0470
28603W        W45450   7.995  15.117   0.481 -0.0836 -0.3475  0.1530
28604W        W45451  16.311  15.079   2.269 -0.3260  0.0982 -0.0148
28605W        W45452  12.810   1.833  13.656 -0.3364 -0.1004  0.1616
28606W        W45453  12.501  12.491   1.469 -0.1548  0.4498  0.0693
28607W        W45454  12.049   1.434   3.899  0.0866  0.0118 -0.1987
28608W        W45455  13.830   1.121   5.099  0.0822  0.4305 -0.2698
28609W        W45456  13.839   2.912   4.018 -0.1988 -0.0472  0.1328
28610W        W45457  14.578   7.126  13.140 -0.0494  0.1405  0.4186
28611W        W45458  14.571  16.725  11.300 -0.1040  0.2125 -0.0989
28612W        W45459   1.837  10.147  10.961 -0.0049  0.2901 -0.0970
28613W        W45460   3.237  13.696  10.536  0.0701  0.2581  0.1333
28614W        W45461   4.800  13.962   0.485  0.1682 -0.0801 -0.1532
28615W        W45462   2.027   4.281  14.668  0.0528 -0.2218 -0.0425
28616W        W45463  11.117   3.316   2.539 -0.3040  0.0207  0.5087
28617W        W45464   5.667  13.809  14.904 -0.1511  0.0368 -0.1696
28618W        W45465  19.054   1.264   3.895  0.0252 -0.0406  0.1351
28619W        W45466   4.425   8.288  12.459  0.2077  0.1136 -0.1584
28620W        W45467   0.690   9.277   4.723  0.0910  0.1503 -0.0732
28621W        W45468   9.258   5.243   1.698  0.1749  0.3157  0.3287
28622W        W45469  11.411  13.351  10.713 -0.3168 -0.0282  0.2163
28623W        W45470  15.306  11.609  14.185  0.1262 -0.0849  0.1379
28624W        W45471   3.591  19.271  12.862 -0.0178  0.1078  0.1177
28625W        W45472  18.790   6.652  12.315 -0.3912 -0.0097  0.1916
28626W        W45473   1.874   2.444   9.730 -0.2596 -0.1392 -0.0778
28627W        W45474  14.060   4.912  14.680  0.0289 -0.2225  0.2493
28628W        W45475   8.523  15.794  10.836  0.0098  0.0453 -0.1780
28629W        W45476   9.651  15.479  12.059  0.1212  0.1880  0.0602
28630W        W45477   2.041   6.833   4.004  0.2363  0.1679  0.0266
28631W        W45478  14.749  17.823   4.491 -0.2870 -0.1226 -0.1441
28632W        W45479  15.984  10.231   3.539  0.1064  0.0744  0.2026
28633W        W45480  17.785   6.972   3.254 -0.1502 -0.0972 -0.4535
28634W        W45481  17.341  14.481   4.909  0.6352 -0.2889 -0.2283
28635W        W45482   7.538  17.671  14.662  0.0767  0.1907 -0.0123
28636W        W45483   6.601   0.926   3.020  0.2633  0.0254 -0.0906
28637W        W45484   6.818   2.043   1.813 -0.2733 -0.1543 -0.2132
28638W        W45485   6.653   5.806   2.914  0.1400  0.1147 -0.2916
28639W        W45486  13.774  18.177   3.602  0.5541  0.0175  0.0185
28640W        W45487  16.105   8.070   4.302 -0.1616 -0.0760  0.0204
28641W        W45488   3.286   1.869   1.616 -0.0467  0.2416 -0.1158
28642W        W45489  17.674   0.297   3.963 -0.1245 -0.1797  0.0562
28643W        W45490   1.696  17.374  13.362  0.3954 -0.1210 -0.0960
28644W        W45491   2.286  15.630   3.190 -0.3110 -0.1673  0.0842
28645W        W45492   8.423   0.364  13.290 -0.1231 -0.2087  0.1673
28646W        W45493  16.938   4.669  11.611  0.0278  0.1425  0.0275
28647W        W45494  10.042  10.016   3.632 -0.1577 -0.1463 -0.1262
28648W        W45495  12.526  15.727   3.708 -0.2258  0.1045  0.1736
28649W        W45496   5.552  17.947   3.288  0.3004  0.2426  0.4164
28650W        W45497  12.608  11.244  11.715 -0.0239  0.3283 -0.3263
28651W        W45498   0.455  13.884  13.640 -0.3100  0.0716 -0.0941
28652W        W45499  16.779   0.250   4.956  0.0758 -0.3026 -0.4218
28653W        W45500   5.166   1.922  10.726 -0.1585  0.1313  0.1877
28654W        W45501   1.855   6.028  10.234  0.1329  0.2669 -0.1614
28655W        W45502   6.950  19.135  14.600  0.2097  0.1400 -0.2098
28656W        W45503   8.955   9.609   1.667 -0.1717 -0.0018  0.1935
28657W        W45504  14.149  10.572   3.210  0.2248 -0.4185 -0.2228
28658W        W45505   1.094   5.547  14.233  0.2763 -0.0406  0.0112
28659W        W45506   8.230   4.221   0.923 -0.0859  0.2588  0.1678
28660W        W45507   1.455   0.336   4.725 -0.1096 -0.1172 -0.1191
28661W        W45508  16.326  17.397  14.194 -0.0202 -0.0642  0.0914
28662W        W45509  15.507   1.412   1.044 -0.1267  0.0277 -0.0572
28663W        W45510   6.820   0.591  10.273 -0.1807 -0.0332  0.1302
28664W        W45511   0.870   3.010  12.041 -0.2241 -0.3407 -0.2269
28665W        W45512   2.547   0.778   1.077 -0.3662  0.0923 -0.2249
28666W        W45513   1.588  15.526   4.724 -0.0452  0.3188  0.2928
28667W        W45514  18.287  12.827  14.840  0.1911 -0.0612  0.2275
28668W        W45515   2.076   3.597  11.392 -0.1240  0.2177  0.3127
28669W        W45516   4.976  12.481  13.861 -0.0437 -0.0576 -0.1390
28670W        W45517   3.415   8.256  13.173 -0.1367  0.0824 -0.2558
28671W        W45518  15.133   6.548   3.371 -0.1796  0.1771 -0.0278
28672W        W45519   9.976   5.102  14.174  0.0038 -0.5313 -0.0082
28673W        W45520   3.649  13.395  14.619  0.0528 -0.0602 -0.0496
28674W        W45521  17.823   1.174   4.840 -0.0291 -0.1318 -0.3234
28675W        W45522   8.019  16.158   3.118 -0.1909 -0.0190 -0.0169
28676W        W45523  11.861   5.234  14.405  0.2855  0.3723  0.0027
28677W        W45524  13.602   1.380   0.663  0.2420 -0.1021  0.5078
28678W        W45525   8.407  15.122   3.923  0.1983  0.0531 -0.0745
28679W        W45526   2.912   8.860   2.463 -0.3249  0.3808 -0.0407
28680W        W45527  16.068   6.786  13.785  0.2421 -0.1240 -0.2008
28681W        W45528  17.340  16.323   0.561  0.0244  0.0911  0.2125
28682W        W45529   6.488  18.392  10.505  0.0177  0.1881  0.0722
28683W        W45530  10.616   3.890   4.359 -0.2420 -0.0574 -0.1048
28684W        W45531   7.474   1.368   4.484  0.0259 -0.2776  0.0506
28685W        W45532  18.439   0.444   4.348 -0.1326  0.0404  0.0724
28686W        W45533  13.440  18.029   0.961  0.0035  0.2606 -0.1053
28687W        W45534  10.581   6.126  10.420  0.0808 -0.1479 -0.1447
28688W        W45535   2.483   3.967  13.910  0.1841 -0.3984 -0.0357
28689W        W45536   5.260   2.829   1.442 -0.1900  0.0442  0.0125
28690W        W45537  10.687  11.544  10.075  0.2754 -0.1293 -0.0478
28691W        W45538   1.234   3.185  10.776 -0.0014  0.0327 -0.1001
28692W        W45539  18.100   4.600   4.499  0.0834  0.1638  0.0168
28693W        W45540   2.899   3.962   2.477  0.0257 -0.1243  0.0808
28694W        W45541  11.524   2.173   4.865  0.0702 -0.1305 -0.0686
28695W        W45542   6.531   2.670   2.702  0.0814 -0.0483  0.0019
28696W        W45543  15.579  15.983   2.044 -0.1355 -0.0403 -0.2976
28697W        W45544   5.028   3.824   4.483  0.0765 -0.0114  0.2171
28698W        W45545  11.677  13.094  13.894 -0.2005 -0.0561 -0.3433
28699W        W45546   4.910  18.494   3.814 -0.1576  0.2041 -0.4017
28700W        W45547  11.705  15.737  13.019 -0.2582 -0.4051  0.2730
28701W        W45548   7.997   4.638   0.558  0.1762 -0.0963 -0.1158
28702W        W45549   6.310  13.993   3.673  0.0036 -0.2198 -0.0969
28703W        W45550  12.776   8.533   0.039  0.4325  0.4418  0.2116
28704W        W45551  17.328  10.618  11.920 -0.1116  0.0359  0.0389
28705W        W45552  10.548  18.705   0.954 -0.1010 -0.1039 -0.2601
28706W        W45553  11.304   0.891   0.805 -0.1417 -0.0783 -0.0044
28707W        W45554   9.225  18.812  13.213  0.1650 -0.2400 -0.2696
28708W        W45555   5.243   0.642   2.185  0.0502 -0.0804  0.4280
28709W        W45556   9.631  15.279   3.202 -0.0185  0.0999 -0.0847
28710W        W45557   6.674  18.432   4.749  0.1275 -0.0541 -0.0686
28711W        W45558  12.544   3.338   3.755 -0.1416 -0.1656 -0.2424
28712W        W45559   5.437   8.071   3.582  0.1441  0.0462  0.3051
28713W        W45560  12.313   7.381   5.595 -0.0889  0.0056  0.0401
28714W        W45561  15.845  12.775  13.093 -0.2168 -0.2313 -0.3011
28715W        W45562  17.919  12.440   3.787 -0.2087 -0.0498  0.0653
28716W        W45563   6.924   1.513   4.660 -0.3499 -0.1134  0.0733
28717W        W45564  14.577   3.791   4.105 -0.3746  0.0368  0.0801
28718W        W45565  16.375   1.425   3.044 -0.0672 -0.0590 -0.0754
28719W        W45566  19.025  17.837   0.720 -0.0390  0.0023 -0.1296
28720W        W45567   3.427   1.236   3.327  0.1365 -0.1867  0.0910
28721W        W45568   3.853   7.020   3.815 -0.1338  0.0962  0.1435
28722W        W45569   6.998   8.231   2.230 -0.0156 -0.0200  0.2690
28723W        W45570  13.613  10.560   0.008  0.1319  0.3273 -0.0224
28724W        W45571   9.711  18.615  13.466 -0.1473 -0.2306  0.1682
28725W        W45572  18.513  18.021   1.541  0.2245 -0.2101 -0.0415
28726W        W45573   9.178   6.168   1.476  0.0161 -0.0809  0.1749
28727W        W45574   3.621  11.858  10.521  0.1346  0.2462 -0.0161
28728W        W45575   5.096  15.623  14.422  0.0394  0.0750 -0.0699
28729W        W45576  18.394  13.460  14.648 -0.0361 -0.0208 -0.0686
28730W        W45577   8.089   9.132  14.496 -0.1517 -0.0861 -0.0993
28731W        W45578  13.043  12.490   1.080  0.1293 -0.1023 -0.0127
28732W        W45579  12.208  14.099  14.102  0.5191  0.0276 -0.1650
28733W        W45580   3.755  16.892   1.571  0.0146  0.0912 -0.0507
28734W        W45581  17.374   9.371   2.465  0.1828  0.0973  0.0703
28735W        W45582   8.881   4.944  11.925  0.0215 -0.1677 -0.1083
28736W        W45583   2.851  10.416   1.665  0.1849  0.4687  0.0135
28737W        W45584  18.181  10.824  12.524  0.2130  0.1571 -0.2199
28738W        W45585   8.096  12.686  12.133 -0.0767  0.0751 -0.2633
28739W        W45586   5.643   3.057  13.565  0.1220 -0.1008  0.1216
28740W        W45587   4.128   2.761  10.729  0.1083 -0.3531  0.0625
28741W        W45588   2.782   0.185  12.589  0.2249 -0.0488 -0.1523
28742W        W45589   1.558   3.833  12.944 -0.0008  0.1215  0.3182
28743W        W45590  18.140   9.600   4.004 -0.3309 -0.0874 -0.0041
28744W        W45591   4.549  14.177  13.359 -0.1758 -0.0849 -0.1892
28745W        W45592   4.601  15.041   3.296  0.0242  0.0652  0.0861
28746W        W45593  11.784  17.557  11.442  0.2933 -0.1241  0.2991
28747W        W45594   8.954   4.954  11.217 -0.0735 -0.2667  0.0950
28748W        W45595   4.146   2.734  14.040  0.0252  0.2224  0.3072
28749W        W45596  10.976   0.873  12.829 -0.0153  0.2634  0.3275
28750W        W45597   9.262   8.239  10.426  0.1598  0.0710 -0.0930
28751W        W45598   9.151  14.425  13.441  0.4247 -0.0143 -0.2586
28752W        W45599   8.185  17.496   3.484  0.2587  0.0015 -0.2594
28753W        W45600  17.406   0.003   3.177  0.0586 -0.0669 -0.0163
28754W        W45601  13.871   1.137  11.151  0.4178  0.2612 -0.1521
28755W        W45602   3.862   5.075   5.232  0.0731  0.2731 -0.2195
28756W        W45603   6.375  14.792  13.972  0.0918  0.1682 -0.0314
28757W        W45604   9.146   5.890   1.062 -0.0554 -0.0593 -0.1193
28758W        W45605  18.103   8.175   1.409  0.1491 -0.2124 -0.1388
28759W        W45606   2.578   0.255   0.204  0.3240  0.1433  0.0273
28760W        W45607  13.080   3.309  12.826  0.1369  0.0204 -0.2791
28761W        W45608  15.293  10.579   1.129  0.0944 -0.3573  0.2149
28762W        W45609  13.789  12.895  11.435 -0.0998  0.1527  0.0545
28763W        W45610  14.965   9.237  13.764 -0.0547 -0.4076  0.1212
28764W        W45611  12.988   0.221   2.785 -0.1684  0.0557 -0.0011
28765W        W45612  11.414  18.605  14.471  0.0183 -0.2139 -0.2167
28766W        W45613   1.299  17.795   3.663 -0.1149 -0.2030  0.0504
28767W        W45614   4.156   2.098   1.555  0.0088 -0.0085  0.2332
28768W        W45615  12.856  11.031  12.070  0.0630  0.1297 -0.1793
28769W        W45616  12.189   4.006   1.960 -0.1246 -0.0116 -0.0962
28770W        W45617   3.877  18.170  14.192 -0.4179  0.2484  0.2514
28771W        W45618   0.581   9.674  11.301  0.0303  0.1177 -0.1563
28772W        W45619   0.813   3.848   4.030 -0.3995 -0.1792 -0.2010
28773W        W45620  10.592  19.134   0.260 -0.2026 -0.0890  0.1192
28774W        W45621  10.942   6.568   0.165  0.0404  0.1364 -0.4921
28775W        W45622   5.428  14.206   4.602 -0.2390 -0.0469 -0.0049
28776W        W45623   6.798   4.163  13.687 -0.0871 -0.1244  0.0934
28777W        W45624  18.297   9.374   2.450  0.0559  0.1405  0.0631
28778W        W45625  16.064  12.174  11.935  0.1287  0.2122 -0.1946
28779W        W45626  17.791   0.433   0.196 -0.0637  0.0383 -0.1239
28780W        W45627  11.478  15.146  14.434  0.1263  0.2335  0.3127
28781W        W45628  17.820  15.796  11.378 -0.2947  0.1309 -0.0435
28782W        W45629  13.969  11.350   2.379 -0.2756 -0.3427  0.0086
28783W        W45630  14.166   1.857   2.617  0.1430  0.2050 -0.1579
28784W        W45631   0.878  10.328  10.863  0.3784 -0.2237 -0.2509
28785W        W45632   3.575  10.800   0.543 -0.5126 -0.2083 -0.1751
28786W        W45633   6.437   3.667   9.660 -0.1564 -0.1102 -0.0040
28787W        W45634  15.072  12.152   4.371 -0.1056  0.1564 -0.0379
28788W        W45635   3.694  10.167   0.342  0.0020  0.0224 -0.2823
28789W        W45636   0.201  12.437   1.847 -0.0064 -0.0263 -0.0594
28790W        W45637  12.665  10.215  12.886  0.0083 -0.2391  0.3155
28791W        W45638   8.834   6.624  13.846  0.0337  0.5063 -0.1539
28792W        W45639   8.286   6.666  13.841  0.0587 -0.0522 -0.0279
28793W        W45640  12.753   1.828   3.576  0.0680 -0.1432 -0.1018
28794W        W45641   5.330  16.362   1.070 -0.1232  0.0958  0.0678
28795W        W45642  10.639   4.089   5.376 -0.2041 -0.1588 -0.1627
28796W        W45643  17.808  15.518   2.292  0.0488 -0.2664  0.3055
28797W        W45644   4.781  19.133  14.692 -0.3148  0.1046 -0.2103
28798W        W45645   8.024  18.014   1.294  0.4511  0.0330 -0.0037
28799W        W45646   7.176  18.999  12.105 -0.2792  0.2077  0.0343
28800W        W45647   8.958  15.179  11.142  0.2591 -0.3303 -0.1481
28801W        W45648   5.337  13.956  13.528 -0.0638 -0.0752  0.1063
28802W        W45649   7.858   3.613   3.680 -0.3156 -0.0371 -0.3585
28803W        W45650   0.508   8.930   3.369  0.2187  0.0799 -0.2406
28804W        W45651   6.111  18.428   1.827 -0.4476  0.1206  0.0839
28805W        W45652   9.623  12.451  11.214  0.3117 -0.0432 -0.1129
28806W        W45653  11.563  18.795  13.554 -0.0956 -0.1852 -0.1373
28807W        W45654   9.171  16.634  13.132  0.1826  0.3420  0.1212
28808W        W45655  15.502   4.755   0.072 -0.0484 -0.1140 -0.1839
28809W        W45656   3.910   7.146  10.664 -0.1326 -0.2945 -0.0617
28810W        W45657   4.674  17.952   1.782 -0.2145 -0.2188 -0.1826
28811W        W45658   2.132   9.802   0.340  0.2422 -0.1061  0.0683
28812W        W45659   6.339   3.716   4.588  0.1269 -0.1707  0.4010
28813W        W45660  18.059  14.761  11.115  0.0048 -0.2984  0.0329
28814W        W45661   5.559   0.101  12.448  0.3071 -0.0399  0.1996
28815W        W45662  15.879  10.258  13.812 -0.0191  0.3410 -0.1184
28816W        W45663  11.667   3.576  12.864 -0.0004 -0.2509  0.2746
28817W        W45664   7.782   9.431   5.217  0.0646 -0.0234  0.1179
28818W        W45665   5.958   4.080   0.236 -0.0856  0.2580  0.3051
28819W        W45666   7.755   8.565   0.832  0.1956  0.0069  0.2048
28820W        W45667   5.650  16.637   1.968 -0.1819 -0.1043 -0.0355
28821W        W45668   7.528  18.493   1.652  0.0210  0.2590  0.2057
28822W        W45669   9.877   3.351  14.790 -0.3102 -0.0179  0.1984
28823W        W45670  10.801   8.260   0.942 -0.4052  0.0161  0.0559
28824W        W45671   5.222  15.952   0.283 -0.0547  0.1871  0.1039
28825W        W45672  13.436  12.287   0.658 -0.1155 -0.3516  0.1058
28826W        W45673   9.090  11.114   0.783 -0.0771  0.2847 -0.2659
28827W        W45674   0.496   9.553  13.444 -0.0050  0.1189  0.1089
28828W        W45675   8.606   2.142  13.213  0.1547 -0.2954 -0.0465
28829W        W45676   4.790  19.018   3.476  0.1209  0.0220  0.0974
28830W        W45677  12.775   9.875   4.423  0.1752 -0.2969 -0.3446
28831W        W45678   2.294  11.533   5.402  0.0587  0.1766 -0.0572
28832W        W45679   4.568   9.004  12.422  0.3143  0.2257  0.0547
28833W        W45680   2.505   2.304   0.791 -0.5694 -0.1753 -0.4296
28834W        W45681  13.435  11.317  11.081  0.0533  0.1276  0.0558
28835W        W45682   7.359  10.939  12.479 -0.0941  0.1190  0.1645
28836W        W45683  16.978  10.251   4.385  0.5215 -0.1782 -0.0504
28837W        W45684  17.596   6.223  11.721 -0.0844 -0.0368 -0.2382
28838W        W45685   4.322   6.759  12.917  0.1907  0.1150 -0.1751
28839W        W45686   4.896   4.666  14.825 -0.2583 -0.1339 -0.1663
28840W        W45687  11.434   6.324   3.888 -0.1763 -0.0881  0.2162
28841W        W45688   8.724   6.599   0.675 -0.2584 -0.2511  0.0071
28842W        W45689   4.002   8.307   5.306  0.0111  0.3213  0.1494
28843W        W45690   8.200  19.265  13.708  0.2868 -0.2656  0.3517
28844W        W45691   7.494  10.894   2.555  0.4175  0.6455  0.1386
28845W        W45692   2.505   9.956  10.412 -0.1255  0.0998  0.1528
28846W        W45693  11.819   3.227  13.660  0.1615 -0.2302 -0.1211
28847W        W45694  17.921   9.256  13.291  0.0657 -0.1599 -0.1704
28848W        W45695   8.490   7.626  11.528 -0.3141  0.0896 -0.0820
28849W        W45696   2.475   0.759  11.845 -0.0605 -0.1118  0.3049
28850W        W45697   6.294  15.725  11.736  0.1594 -0.5318  0.1326
28851W        W45698  13.411   8.691  11.109  0.1182  0.0777 -0.1696
28852W        W45699   2.064  15.263   4.541  0.3801 -0.1406  0.1791
28853W        W45700   2.971   0.390   2.351 -0.0985  0.1132  0.0315
28854W        W45701  11.438   3.551  12.395  0.0137 -0.0372 -0.1746
28855W        W45702   5.744   4.212   4.789 -0.2507  0.2568  0.1066
28856W        W45703   9.447   7.128   1.285 -0.1211  0.0022  0.3096
28857W        W45704  15.813   4.096  11.172 -0.1138 -0.1662 -0.0319
28858W        W45705  16.975   4.408  13.067 -0.0429 -0.0136 -0.0413
28859W        W45706   7.427  11.330  11.265  0.1140 -0.1416  0.1162
28860W        W45707  15.329   9.910   9.557 -0.2227  0.1620  0.5940
28861W        W45708  12.715   8.503  14.127 -0.0633 -0.0966  0.1416
28862W        W45709  18.065  13.550   0.424  0.0599 -0.0973  0.1117
28863W        W45710  15.261  13.857  12.434  0.2214 -0.0712  0.1134
28864W        W45711   4.157  16.314  15.019  0.1894 -0.3951  0.0159
28865W        W45712  17.325  16.353  10.746  0.1116  0.2324 -0.0419
28866W        W45713   4.569   9.527   4.157  0.1653 -0.3065 -0.1321
28867W        W45714   8.503  10.313  14.555  0.0262 -0.1820 -0.2754
28868W        W45715  10.607  17.861  14.087 -0.1042 -0.0206  0.1366
28869W        W45716  15.562   0.964  11.071  0.1486  0.0147 -0.0843
28870W        W45717  12.810   0.598   0.721 -0.3838  0.1553 -0.1564
28871W        W45718  18.827  13.490  11.564  0.2130 -0.3817 -0.2583
28872W        W45719  13.905   9.177  11.907  0.1471 -0.2634 -0.0024
28873W        W45720   4.198   2.053  11.474 -0.2177 -0.0208 -0.2335
28874W        W45721  19.148  16.429  11.377  0.3772 -0.0064 -0.3259
28875W        W45722  12.960   9.540  12.394 -0.0332  0.2816  0.0595
28876W        W45723   1.527   1.205   2.391  0.0221 -0.1204  0.0968
28877W        W45724   5.632   9.011   5.852  0.2942 -0.4103 -0.3143
28878W        W45725  11.107  19.142   5.090 -0.1345  0.0755  0.0986
28879W        W45726  17.186   5.490   2.243 -0.0037 -0.0025  0.0129
28880W        W45727   2.297   3.378   5.121  0.3827 -0.1894  0.2124
28881W        W45728  13.383   2.129   3.670 -0.0980 -0.1166  0.1091
28882W        W45729   5.655  14.176   3.114 -0.2673  0.0994 -0.0287
28883W        W45730   4.130  11.469   0.936  0.1754  0.4197  0.1469
28884W        W45731  16.334   1.591   5.147  0.0693  0.3522  0.0972
28885W        W45732   4.132   5.591  13.408  0.1494  0.3374 -0.0456
28886W        W45733   9.226   4.123   3.106 -0.0730  0.0561 -0.1430
28887W        W45734   5.718  16.783  14.338 -0.0266 -0.1449 -0.1354
28888W        W45735  16.855   8.307  12.563  0.3741  0.3117  0.0443
28889W        W45736  14.296  16.605   0.440 -0.0974 -0.0831 -0.1212
28890W        W45737  18.208  16.781  12.228  0.0269 -0.1738  0.0820
28891W        W45738  17.636   3.596   5.045  0.0080 -0.3757  0.0731
28892W        W45739   0.454  14.067   0.210 -0.2294 -0.0337 -0.0637
28893W        W45740  16.201  18.884  12.113 -0.0738 -0.0605 -0.1496
28894W        W45741  13.723   5.167  11.341  0.0838 -0.0466 -0.2148
28895W        W45742   2.979  14.217  13.774 -0.4408  0.0079 -0.1136
28896W        W45743  12.315   4.044  10.835  0.2245 -0.1433  0.0025
28897W        W45744   4.829   0.462  12.615  0.1260 -0.2811  0.3288
28898W        W45745  14.427  16.846  12.817  0.1175  0.1981  0.0365
28899W        W45746   9.721  14.583   2.578 -0.1075  0.0577  0.1785
28900W        W45747  13.275   1.750   0.192  0.2398  0.1124  0.3863
28901W        W45748   6.489   2.511  12.890 -0.0090 -0.2535  0.2794
28902W        W45749   5.473   8.849  13.391 -0.0925  0.1324 -0.4897
28903W        W45750  19.026  11.419  10.454 -0.2223 -0.5118 -0.2316
28904W        W45751   7.540   4.006   4.413  0.1035  0.2469  0.2323
28905W        W45752  13.059  14.265   1.759  0.1439  0.0638 -0.1500
28906W        W45753  14.008  10.246  13.926  0.0945 -0.4177  0.1190
28907W        W45754  17.196   4.571   5.092 -0.2033  0.1200 -0.2824
28908W        W45755   8.004  15.270   0.968 -0.0066 -0.2485  0.0108
28909W        W45756   7.871   7.734   1.095  0.1883  0.0391  0.1238
28910W        W45757   7.837  14.581   1.911  0.0415  0.0786  0.0179
28911W        W45758  18.452   3.660   2.596 -0.0615  0.1509  0.1386
28912W        W45759   8.849  13.560   1.194  0.0716  0.2861  0.3826
28913W        W45760   4.523   6.835  13.902 -0.1326 -0.1225 -0.0150
28914W        W45761   1.664  16.357   9.714 -0.3520  0.2425  0.0589
28915W        W45762  13.832   0.217  12.086 -0.2016 -0.2228 -0.0573
28916W        W45763  17.445   4.259   0.823  0.1566  0.0998 -0.1578
28917W        W45764   5.415  13.834   4.296 -0.0591 -0.0630 -0.2419
28918W        W45765   1.388   3.407   1.504  0.1023 -0.1758  0.2268
28919W        W45766  11.154   5.665   3.623 -0.0146 -0.0475 -0.0010
28920W        W45767  18.490   0.672  14.081 -0.0590 -0.0232 -0.3519
28921W        W45768   3.492  17.275  13.447 -0.0973 -0.0356 -0.0660
28922W        W45769  12.387  10.358   0.362 -0.1604 -0.0718 -0.0720
28923W        W45770   7.910  16.747  14.861 -0.0825 -0.1115 -0.4027
28924W        W45771   7.530   8.478  14.441 -0.3164  0.0787  0.2171
28925W        W45772   3.318   4.670  14.085  0.3374 -0.0908  0.1632
28926W        W45773  12.770  10.113  11.604  0.1063 -0.0535  0.1813
28927W        W45774   1.369   8.656  10.788  0.2710 -0.1521  0.1273
28928W        W45775  15.492   4.675   4.482 -0.0881 -0.1259 -0.1544
28929W        W45776   6.812   7.778  11.327  0.2196 -0.4289 -0.1142
28930W        W45777  18.672   7.076  14.725  0.3622 -0.0010 -0.2408
28931W        W45778   9.915  14.038   1.879 -0.3948 -0.2676 -0.0394
28932W        W45779   1.616   1.952   1.077 -0.1242  0.0289  0.3774
28933W        W45780  17.191  11.092  12.932 -0.1942 -0.1320 -0.3710
28934W        W45781  14.318   2.202   1.098 -0.0325  0.0218  0.1399
28935W        W45782  12.429  10.616  13.400 -0.2203 -0.0746  0.0431
28936W        W45783   7.676  10.894  12.083  0.1340 -0.1013 -0.2435
28937W        W45784   8.458  13.022  12.429 -0.1295 -0.0396 -0.0910
28938W        W45785   2.236   9.599  10.678 -0.2796 -0.1956  0.1018
28939W        W45786  13.254  11.968   1.023 -0.2182  0.3618  0.3123
28940W        W45787   9.198   1.423   3.185  0.0550 -0.1729 -0.0065
28941W        W45788   4.574   1.900   0.249  0.1557  0.1245  0.0674
28942W        W45789   5.256  13.423   1.747 -0.0371 -0.1750  0.0710
28943W        W45790  17.145  14.302  14.451  0.0998 -0.1078 -0.0375
28944W        W45791   4.359  13.693   0.354 -0.5347  0.1679 -0.2726
28945W        W45792  17.344   3.134   1.612 -0.0268 -0.2979  0.1881
28946W        W45793   1.826  16.896   1.872  0.4404  0.2857 -0.0221
28947W        W45794  16.568  17.754   1.673  0.2372 -0.0516  0.1455
28948W        W45795  16.837  19.199  12.765 -0.2428 -0.1839  0.1043
28949W        W45796  11.344   8.209   2.240 -0.1675  0.0352  0.0766
28950W        W45797  13.573  13.849  13.816 -0.3043 -0.0456  0.0172
28951W        W45798  18.377   1.610  11.014  0.1584  0.3329 -0.1472
28952W        W45799   7.270  16.406  12.061  0.0233  0.0870  0.1485
28953W        W45800   3.987  10.991   0.784 -0.0005 -0.0614 -0.2026
28954W        W45801  18.321   5.944   3.693  0.3593  0.0416 -0.0358
28955W        W45802   9.234   7.533   4.738  0.0513 -0.1500 -0.0821
28956W        W45803   2.541   1.512  13.022 -0.0440 -0.0440  0.0903
28957W        W45804   2.515   0.688  14.240 -0.3597  0.1312 -0.1525
28958W        W45805   0.363  15.796  12.863  0.0955  0.0144  0.1091
28959W        W45806   4.365  15.429  11.988 -0.2532 -0.1508 -0.1015
28960W        W45807   8.777   8.651  11.163 -0.2543 -0.1798  0.0146
28961W        W45808   3.140  11.212   4.227 -0.2773  0.0183 -0.3877
28962W        W45809  14.824  16.322  11.075 -0.4130  0.0548  0.1995
28963W        W45810  10.852   3.071   2.904  0.3389  0.1363  0.1418
28964W        W45811  13.393  17.418   3.232  0.3006  0.1185  0.0351
28965W        W45812   2.821   9.511   4.590  0.1185  0.1123  0.0978
28966W        W45813   0.572  16.423   0.899 -0.0367  0.0445  0.0434
28967W        W45814  10.888   2.311  14.924  0.0044  0.0812 -0.0139
28968W        W45815  14.513   0.916   3.370  0.2040  0.0693  0.1110
28969W        W45816   7.647   7.457   3.394  0.0989  0.0203  0.1404
28970W        W45817  12.437   1.896  14.567 -0.0806 -0.2316  0.0592
28971W        W45818   7.040   9.812   4.068  0.1045 -0.2072  0.2263
28972W        W45819   3.882   1.840   3.858 -0.1709  0.1030 -0.1819
28973W        W45820  14.837  15.522   0.655  0.0191 -0.0508  0.1482
28974W        W45821  15.198   5.462   5.165  0.2351 -0.1145  0.1245
28975W        W45822  11.788   5.370  12.258 -0.1721 -0.3015  0.0831
28976W        W45823  18.327   5.461  13.108 -0.2219  0.0393 -0.5201
28977W        W45824  11.825  17.575   0.767 -0.1016  0.0265  0.0951
28978W        W45825  10.426   6.294   2.297 -0.1896 -0.3273  0.0175
28979W        W45826   5.224  14.478  14.408 -0.1166 -0.0777 -0.1072
28980W        W45827  10.408  10.644   2.876  0.1466 -0.0826 -0.1283
28981W        W45828   9.553   0.802   2.675 -0.5932  0.2998 -0.2161
28982W        W45829  14.991  14.943  14.513 -0.0056 -0.1488  0.0062
28983W        W45830   1.441  17.020   0.236  0.3253  0.2808 -0.1181
28984W        W45831   0.870   2.252   1.184 -0.1793 -0.1495  0.1950
28985W        W45832  13.812   3.569  14.084  0.3359 -0.0615 -0.0180
28986W        W45833   2.518   0.632  11.298 -0.0248 -0.4450  0.2287
28987W        W45834  17.394   9.426  13.923 -0.1243  0.0980  0.0845
28988W        W45835  17.528   8.520  14.533  0.0445  0.2793 -0.0019
28989W        W45836  10.833   8.427   2.722  0.1361 -0.3168 -0.0629
28990W        W45837   6.293  11.222   4.878 -0.0551 -0.2149  0.1097
28991W        W45838  12.180   3.619  13.743  0.0274 -0.3738 -0.3396
28992W        W45839  11.084   3.760   2.927 -0.0358 -0.2716 -0.1271
28993W        W45840   5.349  13.348  14.325  0.0811  0.2393  0.2202
28994W        W45841  19.117   0.950   4.825  0.1889 -0.2550  0.0553
28995W        W45842   7.994   5.393   4.567  0.3714  0.1939  0.3279
28996W        W45843   9.298   5.965  14.634 -0.2367 -0.0634 -0.0113
28997W        W45844  14.101   7.308  10.685 -0.0150  0.0004  0.0233
28998W        W45845   3.903   7.683  13.803  0.0804 -0.2962  0.0638
28999W        W45846   4.166  13.799  12.022 -0.1357 -0.0807  0.0908
29000W        W45847  11.054  12.985   0.766  0.1280  0.0608  0.1130
29001W        W45848   7.200  11.146   2.100 -0.2691 -0.2028 -0.1087
29002W        W45849   0.073  14.287   1.949 -0.3415 -0.1902  0.2187
29003W        W45850   9.486  10.787   2.711 -0.2444  0.1645  0.0343
29004W        W45851  11.217  16.166   0.966  0.1146 -0.0775  0.1963
29005W        W45852  11.764   8.653  12.936  0.1740  0.0017  0.1621
29006W        W45853   3.936  18.703   4.150  0.1016 -0.2078  0.4228
29007W        W45854   3.510   2.144   4.110  0.1244  0.1790  0.1097
29008W        W45855   6.757  18.370  13.938 -0.0664  0.0577 -0.0251
29009W        W45856  10.948   9.863   1.365 -0.0855 -0.1711  0.1689
29010W        W45857   1.851  11.242   1.677  0.0955  0.1128 -0.4019
29011W        W45858  16.410  11.112  12.759  0.3481 -0.1281  0.4896
29012W        W45859  15.537   3.962   4.066 -0.0212  0.2133 -0.0922
29013W        W45860  15.740   4.951  11.755 -0.0654  0.0224  0.1517
29014W        W45861  13.825  13.100   4.298  0.2011 -0.0347 -0.0966
29015W        W45862   5.835   3.548   0.884  0.2493  0.1868  0.0135
29016W        W45863   1.119  10.185  12.968 -0.2604  0.0685 -0.1290
29017W        W45864   8.405  15.763   2.818  0.0797 -0.2946 -0.0987
29018W        W45865   4.641  17.924   2.983  0.0633 -0.0883  0.0665
29019W        W45866  10.960   8.342   3.741 -0.0728  0.2269 -0.3575
29020W        W45867  15.910  15.307   1.554  0.2824  0.2665 -0.5256
29021W        W45868  16.106   4.351  11.987 -0.0267  0.2478 -0.2538
29022W        W45869  10.587   0.472  12.949 -0.2016 -0.2769  0.2301
29023W        W45870   2.829  10.128   4.239 -0.1365 -0.0605  0.1110
29024W        W45871   2.477  16.101  12.953  0.0108  0.0420  0.1573
29025W        W45872  15.787  17.575   5.228 -0.3660  0.1076 -0.5082
29026W        W45873   9.087   2.857  10.100  0.0769  0.2252 -0.2449
29027W        W45874   9.537   9.147   3.792  0.1698 -0.1829  0.0077
29028W        W45875  13.989  11.525  11.443  0.1645 -0.1813  0.0636
29029W        W45876  10.534  10.925   5.051 -0.0286 -0.0767  0.1456
29030W        W45877   6.960  17.705  12.159  0.0442  0.1897  0.2710
29031W        W45878  15.120   0.751   5.009 -0.1718 -0.1094  0.0979
29032W        W45879  17.676  12.675   4.799 -0.2367 -0.1284 -0.2861
29033W        W45880   3.631   9.525   4.021  0.2300 -0.0089  0.0540
29034W        W45881   9.779  13.211  10.593 -0.1705  0.5097  0.3005
29035W        W45882  17.705  15.105  14.574 -0.2318 -0.0047 -0.1795
29036W        W45883   1.232   9.834  10.507 -0.3956 -0.1694  0.2674
29037W        W45884  17.785  14.791  13.975 -0.1908  0.2358  0.0760
29038W        W45885  12.647  16.087  12.873 -0.2822 -0.2720  0.0821
29039W        W45886   2.974  13.151   5.303 -0.1211  0.0398  0.1998
29040W        W45887   5.936  18.675   3.815 -0.1992 -0.2871  0.2995
29041W        W45888   9.912  15.909  14.427  0.2229 -0.0377  0.0920
29042W        W45889  12.289   5.895  11.865  0.1569 -0.1524  0.2813
29043W        W45890  12.772  13.274  10.471  0.0335  0.0229 -0.0551
29044W        W45891   0.298  18.870   1.112 -0.0227  0.1988  0.1361
29045W        W45892  14.601   2.010  11.688 -0.1379  0.1717  0.1093
29046W        W45893  11.258  15.249   3.185 -0.1466 -0.0029  0.2025
29047W        W45894   5.102  14.592  14.986 -0.2924  0.2726 -0.0118
29048W        W45895   9.957   3.729  11.798 -0.3039  0.0257  0.2999
29049W        W45896   2.857   7.264   3.869  0.1334  0.0585 -0.0540
29050W        W45897   8.048  14.108  11.319 -0.4224 -0.1362  0.2037
29051W        W45898  11.724   1.158   0.933 -0.1242  0.2999 -0.0446
29052W        W45899  19.088   7.659  13.243  0.1644  0.0195 -0.2396
29053W        W45900  10.538   9.199   0.652  0.3100 -0.0584 -0.1627
29054W        W45901  10.287   0.646  13.300  0.0541 -0.2199 -0.0507
29055W        W45902  16.978   8.081   2.159  0.0595  0.2279 -0.2397
29056W        W45903   1.456   6.039   3.171  0.2185 -0.1803  0.2368
29057W        W45904   4.654   7.398   2.454  0.0195 -0.0994 -0.0346
29058W        W45905  16.811   5.545   3.686  0.1476 -0.0428  0.3817
29059W        W45906   9.223  16.764   2.259 -0.0934 -0.0387  0.0207
29060W        W45907   6.947  11.980   9.793  0.0326  0.0050 -0.2606
29061W        W45908  10.769   5.596   4.006 -0.3740 -0.0938  0.1481
29062W        W45909   1.628  16.369   4.748 -0.0867  0.1133  0.2282
29063W        W45910   6.366   7.267  13.143  0.1904 -0.2101  0.0334
29064W        W45911   4.961   4.467   0.615 -0.0618  0.1945  0.0770
29065W        W45912   8.907   9.743  12.347  0.2529 -0.1138  0.1360
29066W        W45913  12.040  18.316   4.732 -0.0563  0.1982  0.1998
29067W        W45914  10.271  12.988   5.047  0.2660 -0.1036  0.0460
29068W        W45915  16.163   4.534  11.008 -0.1387  0.0137 -0.1195
29069W        W45916   9.616   3.060  14.396  0.3107 -0.0272  0.1679
29070W        W45917   3.855  18.139  13.654 -0.4441  0.2437  0.1612
29071W        W45918   9.613  15.107   2.647 -0.0791  0.1891 -0.0950
29072W        W45919   0.284   1.681   3.525 -0.0321  0.0548 -0.1051
29073W        W45920  18.035  17.398  12.329 -0.1275 -0.0206  0.0154
29074W        W45921   8.921   7.521   3.776 -0.3708 -0.0179  0.1615
29075W        W45922   9.272  16.021   0.997  0.0181  0.1501  0.0438
29076W        W45923  11.782  12.143   1.552  0.1046 -0.3858  0.2725
29077W        W45924   7.331   7.151   4.876  0.1427 -0.0828 -0.1145
29078W        W45925   3.483  15.384   1.693 -0.2550  0.2826 -0.0070
29079W        W45926  10.801   2.339  10.533  0.1607  0.0263  0.0642
29080W        W45927  11.608   6.846  14.337 -0.2713  0.2524  0.1131
29081W        W45928  13.425  12.205   0.149  0.1687  0.0937  0.0623
29082W        W45929   5.966  12.016  13.024 -0.2335 -0.1169  0.2652
29083W        W45930   0.000   0.927   4.155  0.2854  0.0837 -0.0845
29084W        W45931  17.659  17.802   0.839  0.1011  0.1120 -0.0425
29085W        W45932   0.258  11.858   0.297 -0.2100  0.2013  0.0548
29086W        W45933  19.235  12.694  10.414  0.1621 -0.3312 -0.3166
29087W        W45934   9.336   6.633   1.402  0.1202  0.0107  0.1475
29088W        W45935  15.190   2.388  12.551  0.0246 -0.3886 -0.0339
29089W        W45936   4.723   8.111   2.773 -0.0614  0.5483  0.2268
29090W        W45937   1.978  12.605  13.100 -0.3924  0.0913  0.0753
29091W        W45938   4.577   7.531  11.984 -0.1422 -0.0701 -0.0321
29092W        W45939  11.381   9.028   1.197  0.1052  0.2951 -0.2410
29093W        W45940   3.042  10.036   2.964  0.1718  0.2045  0.3733
29094W        W45941  10.066  11.328   0.020  0.0384  0.2291 -0.1609
29095W        W45942   8.577   5.210   0.462  0.2123  0.0861  0.1872
29096W        W45943  12.370  11.574  13.816  0.2130 -0.2001 -0.2198
29097W        W45944   8.403  16.891   0.639 -0.0887 -0.4891 -0.3182
29098W        W45945   7.250  14.726  12.903 -0.0195 -0.2067 -0.0664
29099W        W45946  16.520   2.110   3.621  0.1241 -0.0489  0.0094
29100W        W45947   1.278   6.199  13.971  0.0160  0.0721  0.1141
29101W        W45948   5.810   9.258  13.332 -0.0013  0.0414 -0.0905
29102W        W45949   2.399  14.281   0.240  0.3032 -0.0435 -0.0719
29103W        W45950  17.857  11.314  10.271  0.1358 -0.1978  0.0004
29104W        W45951   1.996   4.805   4.654  0.1467 -0.1543  0.1833
29105W        W45952  17.654   7.687  11.202  0.0043 -0.1151 -0.3380
29106W        W45953  14.628   0.799   4.905 -0.1381  0.0161 -0.1283
29107W        W45954  10.299  10.065   4.042  0.0723  0.1065 -0.0119
29108W        W45955  16.465   4.046   3.510  0.0943  0.2241 -0.3117
29109W        W45956  15.103  11.443   0.953 -0.0113 -0.2200 -0.0695
29110W        W45957   2.285   6.604   4.414 -0.1370 -0.1850  0.0116
29111W        W45958  10.834   0.583  10.504 -0.1887 -0.3678 -0.0888
29112W        W45959   2.859  15.543  11.305 -0.0256 -0.1929 -0.0037
29113W        W45960  17.656   2.629  13.426 -0.0144  0.2544 -0.0590
29114W        W45961   1.438  16.472  11.566  0.2070 -0.0898 -0.2083
29115W        W45962  16.372   3.682   0.150  0.1650  0.2118  0.1239
29116W        W45963   2.970  12.334  13.274 -0.0517 -0.3237  0.1134
29117W        W45964   7.937  14.304  14.607  0.0751  0.3363  0.3231
29118W        W45965   1.050   7.496  13.425  0.0489  0.0560  0.2794
29119W        W45966   5.325  11.849   2.502  0.0772 -0.1010 -0.0216
29120W        W45967  10.341   1.794   1.116 -0.5352  0.0916  0.0728
29121W        W45968  10.461  16.642  13.097  0.0652  0.0904  0.3491
29122W        W45969   1.374  10.647  14.682  0.1673  0.2106 -0.0947
29123W        W45970   7.472  15.265   4.064  0.2698  0.2359 -0.0270
29124W        W45971   2.706   3.720   5.108  0.1011  0.1019  0.2850
29125W        W45972   8.009  12.926  10.008 -0.0235 -0.0168  0.0743
29126W        W45973   3.332   9.365   1.710  0.0671  0.0041 -0.1417
29127W        W45974  18.681  13.899   3.835 -0.2230  0.1630  0.0802
29128W        W45975  11.796  13.583   1.407  0.0207  0.0358 -0.0202
29129W        W45976   8.619   7.203   2.872 -0.3732  0.1410 -0.1884
29130W        W45977  12.690  19.126  14.355 -0.0430 -0.3489  0.0068
29131W        W45978  13.384  16.329   3.715  0.0706 -0.1169 -0.1575
29132W        W45979  18.224  17.801   3.245  0.2090 -0.2526  0.2104
29133W        W45980   1.384  12.661   3.638 -0.2652 -0.0943 -0.2577
29134W        W45981   7.966  17.660   3.048  0.1009  0.0952  0.1757
29135W        W45982   0.178  16.601   4.606  0.1328  0.4950  0.2805
29136W        W45983  14.865   8.624  11.093 -0.1541 -0.0920 -0.0131
29137W        W45984   9.358   9.836   1.266 -0.0087 -0.1081 -0.0103
29138W        W45985   6.731   2.759  10.134 -0.1497  0.0105  0.1670
29139W        W45986   2.401  14.541   1.873 -0.2365 -0.3299 -0.1257
29140W        W45987   1.403  13.779   3.616 -0.1804 -0.0866 -0.1652
29141W        W45988  11.864   1.077  12.563 -0.1110  0.0442 -0.2335
29142W        W45989   2.969   9.816  10.373  0.0886  0.0158 -0.1102
29143W        W45990  17.512   6.607  13.300  0.0275  0.2341  0.2512
29144W        W45991   4.701  15.723  11.516 -0.1831  0.1466 -0.0002
29145W        W45992   1.380  12.270   2.797  0.0566 -0.0801  0.0616
29146W        W45993   1.709  11.773  11.642 -0.2650  0.0534 -0.2027
29147W        W45994   8.701   2.077  11.072  0.0984  0.0875 -0.3597
29148W        W45995   8.875  14.753  13.214  0.0787 -0.1070  0.0508
29149W        W45996   5.973   0.160  12.772  0.2139 -0.1272  0.1450
29150W        W45997   6.057   0.260  13.419  0.0782 -0.0070  0.2231
29151W        W45998   4.730   7.079   4.428  0.3461 -0.0088  0.1334
29152W        W45999   2.898  14.633  11.441 -0.0180  0.0917  0.0079
29153W        W46000   0.005   9.390   2.043 -0.0291 -0.2803  0.3078
29154W        W46001  18.808  17.523   5.623  0.1087  0.2585 -0.2364
29155W        W46002   0.055   0.215  13.150  0.1403 -0.0666  0.4441
29156W        W46003  17.472   9.881  11.994 -0.1784  0.0461 -0.1969
29157W        W46004   6.228   6.761  12.970  0.0566  0.0952  0.1707
29158W        W46005   7.451   7.396   1.544  0.2467  0.0037 -0.3354
29159W        W46006  19.031   0.228  12.736 -0.2644 -0.1194  0.0957
29160W        W46007   2.064  16.248   3.337  0.1335 -0.3206 -0.0548
29161W        W46008  18.818   4.395   0.350  0.0060  0.0369  0.1413
29162W        W46009   3.413   5.387  11.150  0.0397  0.3740  0.2130
29163W        W46010   8.573  11.434   4.677  0.2638  0.0173 -0.0265
29164W        W46011   7.662  16.285  14.858  0.1138 -0.2047 -0.0555
29165W        W46012   7.476  11.825   2.654  0.2833 -0.1582  0.0074
29166W        W46013  12.671   8.010  11.013  0.1545  0.3774 -0.0159
29167W        W46014   1.999  18.630   3.729 -0.2530 -0.3656 -0.0578
29168W        W46015   6.283  11.960   0.094 -0.0857  0.2089 -0.1294
29169W        W46016  11.037  13.718  11.844  0.1014 -0.1531 -0.0385
29170W        W46017   2.849   5.947  11.124  0.0792  0.2846 -0.2643
29171W        W46018   4.087   4.887  11.409  0.2529  0.1378  0.3076
29172W        W46019  18.937  18.452   4.914  0.0521 -0.2815  0.4058
29173W        W46020  13.499  10.520   0.975 -0.2077 -0.2984 -0.0184
29174W        W46021   3.361  14.477   3.239  0.0615 -0.0223 -0.3080
29175W        W46022   7.687   0.509  12.476  0.2603 -0.0235  0.0070
29176W        W46023  11.970   1.993   3.933  0.1753  0.3335  0.0671
29177W        W46024  18.096   9.486  10.819  0.1485  0.3000  0.1156
29178W        W46025  18.946   8.568  10.252  0.0273  0.0653 -0.2119
29179W        W46026  14.691  14.150  11.706  0.1113 -0.4635  0.1009
29180W        W46027  17.212  16.002  13.521 -0.2263 -0.0528  0.1852
29181W        W46028  13.200  11.414  13.350  0.0800  0.0545 -0.2648
29182W        W46029   0.633  17.967  12.813 -0.1935 -0.0002 -0.0557
29183W        W46030  13.659  12.747   4.704 -0.1672 -0.1478 -0.2950
29184W        W46031  16.038  15.931   2.266 -0.3692 -0.0003  0.1058
29185W        W46032  15.835  13.508   4.000 -0.2752 -0.3747 -0.0214
29186W        W46033   6.936   6.787   2.032 -0.0101  0.2431 -0.1942
29187W        W46034   0.178   7.719  10.632 -0.0698  0.1366 -0.0769
29188W        W46035   6.921   3.218  10.305 -0.1490  0.0871 -0.0882
29189W        W46036   1.011   3.614   0.847 -0.1952 -0.0874 -0.2700
29190W        W46037  16.759   4.639  14.057  0.0588 -0.0131 -0.1693
29191W        W46038   2.923   5.243  13.620  0.0664  0.0590 -0.1930
29192W        W46039  12.085   0.129  13.665  0.4139 -0.2799  0.2964
29193W        W46040   8.701  10.488  13.027 -0.0807  0.2435  0.1023
29194W        W46041  12.825   6.727  14.120  0.1708 -0.0480  0.0078
29195W        W46042  17.087   4.129  10.241  0.3447  0.2995 -0.0367
29196W        W46043   3.155  13.549   3.421  0.0810 -0.1649  0.3234
29197W        W46044  14.202  15.176  13.713 -0.2187 -0.0507  0.0479
29198W        W46045   4.481  16.156  13.138 -0.2481 -0.0781 -0.3475
29199W        W46046  18.433  16.572   3.510  0.1779 -0.1237  0.0513
29200W        W46047  16.891   7.949  14.364  0.1949  0.2727 -0.1171
29201W        W46048   1.877  11.260  10.541  0.4620  0.0989 -0.2212
29202W        W46049   6.973   2.858  14.009  0.2605  0.1088  0.2495
29203W        W46050  10.679  13.858  10.978 -0.2006  0.2021  0.0808
29204W        W46051   0.694  14.914  12.819 -0.0776 -0.1390 -0.3751
29205W        W46052   0.270   6.852  13.293  0.4347 -0.0328 -0.1052
29206W        W46053  11.254   8.356  11.988 -0.1802 -0.0041 -0.0999
29207W        W46054   8.450   8.093  11.885  0.0133  0.1262  0.0211
29208W        W46055  11.753   2.360   9.990  0.1640 -0.2941 -0.0888
29209W        W46056   4.262  18.428  14.402  0.0114  0.0396  0.1071
29210W        W46057  10.556  13.682  14.088 -0.0413  0.0011  0.0054
29211W        W46058  15.752  11.833  11.137 -0.2628 -0.0884 -0.1213
29212W        W46059  10.922  16.160  12.935 -0.1754  0.2449 -0.0000
29213W        W46060   3.879   5.544  10.648  0.0001  0.0840 -0.0786
29214W        W46061   1.170   8.491   2.270  0.0581  0.4771 -0.0868
29215W        W46062   2.329   7.724  12.026  0.1326  0.0832  0.2097
29216W        W46063  17.412  13.169  11.768 -0.0034  0.2171  0.0630
29217W        W46064   7.476   2.902   0.662 -0.0015 -0.0171  0.0543
29218W        W46065   2.222   7.898  14.108  0.0081 -0.0538  0.2053
29219W        W46066   9.591  17.330  11.173 -0.0496  0.0690 -0.0006
29220W        W46067  12.700   9.437   0.416  0.2594 -0.0697  0.0112
29221W        W46068  16.594   2.230  10.781  0.0329  0.1559 -0.0195
29222W        W46069  12.947  12.381  14.913 -0.0113  0.2368  0.2940
29223W        W46070   9.324  14.654   1.724 -0.0084  0.1092 -0.2243
29224W        W46071   2.693  17.782  11.989  0.1247  0.2683  0.2388
29225W        W46072   7.353   8.249  10.277 -0.1448 -0.0612  0.1502
29226W        W46073  10.952   9.604   3.572 -0.0217 -0.1945 -0.2797
29227W        W46074   2.292  10.870   2.537  0.2674 -0.0072  0.2238
29228W        W46075   3.574  15.146   2.511 -0.2563  0.2254  0.1022
29229W        W46076  11.839   6.137  11.552  0.1774 -0.0354 -0.0636
29230W        W46077  14.530   4.767   2.128 -0.2199 -0.0799  0.1006
29231W        W46078  15.863  14.092   4.911  0.1924 -0.0704 -0.1514
29232W        W46079  17.802   2.929  13.053  0.3067 -0.2188  0.2290
29233W        W46080   5.107   2.077   1.843 -0.1343  0.0534  0.3009
29234W        W46081   5.699   8.686  11.081 -0.1218  0.0094  0.0468
29235W        W46082  10.779  16.367   3.764  0.1828  0.0476  0.1448
29236W        W46083  17.113  19.076  11.472 -0.2176  0.2859  0.0199
29237W        W46084  18.061  13.529  11.347 -0.2371 -0.1195  0.0631
29238W        W46085  18.273  15.602   1.319  0.0837  0.0302  0.0771
29239W        W46086   3.173   0.245   0.703  0.2197  0.2783 -0.4082
29240W        W46087  16.763   3.439  13.827  0.0207  0.1132  0.0320
29241W        W46088  12.674   1.967   5.912  0.0567 -0.1104 -0.2481
29242W        W46089   7.878   2.128   3.864 -0.2146  0.0616  0.3244
29243W        W46090  16.401  11.572   4.835 -0.3809  0.1828 -0.0495
29244W        W46091  17.381   1.605  11.768 -0.1878 -0.1484 -0.2421
29245W        W46092  14.553  15.966  13.650  0.1057 -0.1816 -0.1274
29246W        W46093   4.462   4.290   5.013 -0.1649 -0.2748 -0.6149
29247W        W46094   0.552   6.069   2.136 -0.0013 -0.2753 -0.1552
29248W        W46095   9.378   7.206   1.900  0.2850  0.1252  0.1268
29249W        W46096  15.393  18.954   1.793 -0.3341 -0.4362 -0.3629
29250W        W46097  12.163   6.351  13.135 -0.2024  0.0132  0.3277
29251W        W46098   0.858  11.213   2.879 -0.2903 -0.1284  0.0950
29252W        W46099   5.912   6.814   0.210 -0.3607 -0.0859  0.1214
29253W        W46100   3.049   9.470   0.869  0.1494 -0.1698  0.0857
29254W        W46101   0.509   6.605  10.937 -0.0512  0.1256  0.1178
29255W        W46102  17.979   4.516  13.395 -0.0532 -0.0570  0.3766
29256W        W46103   4.217   8.814   2.466 -0.2784  0.0151  0.0191
29257W        W46104   9.076  12.255   3.364 -0.2486 -0.4322 -0.1321
29258W        W46105   0.046   9.290   5.255 -0.5108 -0.2178 -0.0931
29259W        W46106   0.284   0.487  14.122  0.0043  0.1220 -0.0899
29260W        W46107  10.242   3.652   0.938 -0.0616 -0.1077  0.3188
29261W        W46108   8.710   7.632  13.259 -0.1921  0.3127 -0.0239
29262W        W46109   3.457  12.822   5.518 -0.1361  0.1104 -0.1104
29263W        W46110   6.692  13.446   1.993  0.1352 -0.4497  0.0049
29264W        W46111  12.231  17.316  11.998  0.2140 -0.0046  0.2855
29265W        W46112   3.056  13.184  12.844 -0.2151  0.1780 -0.2377
29266W        W46113   5.114  10.454  13.515 -0.1032 -0.1233  0.0991
29267W        W46114   0.788  17.293  12.074  0.0781  0.1987 -0.2386
29268W        W46115   8.056   1.427  13.929  0.2441 -0.2744 -0.1327
29269W        W46116   2.346   5.557   3.297  0.0156 -0.2430  0.1619
29270W        W46117  13.853  15.116   3.792  0.1553 -0.2936 -0.0624
29271W        W46118   2.674   4.673  10.766 -0.0785 -0.0131  0.1958
29272W        W46119   0.991  15.006  10.431 -0.0649  0.0605 -0.0632
29273W        W46120   4.262   4.489  14.457  0.3176 -0.0712  0.0766
29274W        W46121  17.580   5.957   3.014  0.0794  0.2465 -0.1862
29275W        W46122  12.540   1.766  11.031 -0.0930 -0.0094 -0.0517
29276W        W46123  15.617   7.112  11.927 -0.0175 -0.1888 -0.0570
29277W        W46124   3.545  19.090  13.965  0.1007 -0.1435  0.0138
29278W        W46125  13.681   4.358   1.448 -0.0111 -0.0648 -0.1872
29279W        W46126   4.570   5.680   1.231  0.0504 -0.0242 -0.1682
29280W        W46127  18.614  12.619   2.712  0.0045 -0.0525 -0.2440
29281W        W46128  16.428   4.000   4.884 -0.2178  0.2289 -0.0377
29282W        W46129   1.326  19.171   3.869 -0.1807  0.0022  0.2723
29283W        W46130  14.658   1.974   4.935 -0.1052 -0.1295 -0.0258
29284W        W46131  13.899   0.809   5.578 -0.1823  0.1567 -0.2272
29285W        W46132   2.605  15.202  12.696  0.1293 -0.2677  0.2544
29286W        W46133   2.824   2.661  10.605 -0.2287 -0.1424  0.2526
29287W        W46134  14.822  16.650   4.841  0.0447 -0.1348  0.1914
29288W        W46135  15.079   4.798  13.834  0.0566 -0.2634  0.0963
29289W        W46136  18.981   1.605   1.380  0.0456  0.0104 -0.1313
29290W        W46137  17.845   0.696   2.654 -0.1686 -0.0524 -0.1518
29291W        W46138   8.121  13.471   4.263 -0.2326  0.2223  0.0988
29292W        W46139  15.767   2.569   1.675  0.0028 -0.3643  0.4108
29293W        W46140  15.036   7.813   4.081 -0.0033 -0.4226 -0.0780
29294W        W46141   2.461   6.930   3.577 -0.0786  0.1901 -0.0249
29295W        W46142  12.679  17.354   1.077  0.0063 -0.0923 -0.2100
29296W        W46143   1.942   6.657  12.615  0.0833  0.0080  0.0826
29297W        W46144  14.337  12.168   9.437 -0.1384  0.2040  0.2100
29298W        W46145   1.725  18.621  10.979 -0.1261  0.2000 -0.1331
29299W        W46146  17.659   4.117  14.992 -0.0358 -0.0381  0.2954
29300W        W46147   7.910  18.198  14.565  0.2357 -0.0224  0.1360
29301W        W46148   7.106   8.217  14.466 -0.0566  0.0349  0.0548
29302W        W46149   7.492   7.993   3.267  0.1501  0.3032  0.0744
29303W        W46150  18.584  12.669   1.200  0.1275 -0.0756  0.4605
29304W        W46151  16.166   6.039   0.664  0.1695 -0.0367 -0.2706
29305W        W46152  18.073  15.516   4.445  0.1426  0.2371 -0.0237
29306W        W46153  12.034  17.912   1.641  0.1260  0.1173  0.2601
29307W        W46154   1.809  15.765   2.048  0.2011 -0.0923 -0.1021
29308W        W46155   4.944  12.576   9.528 -0.0039 -0.0432  0.0436
29309W        W46156  11.136   7.582  12.198 -0.0604  0.1618 -0.1450
29310W        W46157   0.229   1.220  14.941 -0.0965  0.0705  0.1336
29311W        W46158   7.385   8.969  11.921  0.3027 -0.2421 -0.1910
29312W        W46159   2.386   6.125  14.635 -0.3442 -0.0630  0.0656
29313W        W46160   5.799   5.546  14.865 -0.0351  0.0554  0.2217
29314W        W46161   4.409   1.161  10.933 -0.1293 -0.5500  0.1908
29315W        W46162   6.181   4.477   0.444 -0.2528  0.1204 -0.1290
29316W        W46163  13.771  10.858   3.947 -0.1168 -0.4111 -0.2757
29317W        W46164  11.559   3.394  10.768 -0.0795 -0.2395 -0.0451
29318W        W46165  16.227   3.464   2.381 -0.0254  0.0219  0.0269
29319W        W46166  11.608  16.728   0.274 -0.1889 -0.0808 -0.1323
29320W        W46167  10.200   2.557  13.221 -0.2300 -0.1380  0.0329
29321W        W46168  18.391  15.046  15.020  0.4349  0.1480 -0.1846
29322W        W46169   9.365  17.190   2.088  0.1028 -0.2877  0.0577
29323W        W46170   4.814  13.639   0.055 -0.0233  0.2248 -0.0325
29324W        W46171  11.386   6.241   0.211 -0.2172  0.0374  0.1244
29325W        W46172   0.896  12.295  14.415  0.1802 -0.0997 -0.2023
29326W        W46173  18.928  11.747  15.010 -0.0986 -0.1821 -0.1170
29327W        W46174  12.993  12.214  13.032  0.0335 -0.1015 -0.3732
29328W        W46175  18.656   7.825   4.289  0.1876  0.0709  0.0884
29329W        W46176  19.119   8.217  12.401  0.0920  0.3385 -0.3029
29330W        W46177   5.293   1.538   3.155 -0.0849 -0.1495  0.1613
29331W        W46178   6.258   3.433  13.497 -0.0324 -0.0383  0.1667
29332W        W46179   5.013  13.947  11.583 -0.2012  0.2056 -0.0952
29333W        W46180   3.026  14.969  10.616  0.0394  0.5696 -0.2798
29334W        W46181  15.267   0.344  14.880  0.1216 -0.0822  0.0227
29335W        W46182  13.297  15.657   5.014  0.0756 -0.1072  0.0873
29336W        W46183  13.402   4.782   4.019  0.0836 -0.4817 -0.1483
29337W        W46184  13.630   1.695   3.687 -0.1799  0.1605  0.0600
29338W        W46185   8.371  18.903  12.952  0.1569  0.1285  0.1396
29339W        W46186   1.629   7.163   1.980 -0.1582  0.3192 -0.0786
29340W        W46187   9.980  14.314   5.700  0.1395  0.1514  0.1545
29341W        W46188   8.421  10.143  13.239 -0.0587  0.0172  0.2498
29342W        W46189   5.257  15.772   2.009 -0.1589  0.0385 -0.3149
29343W        W46190   3.718  13.000   0.683  0.0154 -0.2290 -0.0899
29344W        W46191   8.874   1.848  10.647  0.0733 -0.0901 -0.1000
29345W        W46192   5.148  17.818   1.483 -0.0739 -0.0113  0.0642
29346W        W46193   7.852   9.217   2.232  0.0251 -0.3078 -0.4412
29347W        W46194  15.014  10.932  10.554 -0.0483 -0.3111  0.1890
29348W        W46195   5.060  12.570   0.212  0.0736  0.2309  0.2382
29349W        W46196  16.387  14.737   1.093  0.0413  0.0431  0.1180
29350W        W46197   3.314   7.574   4.600 -0.1805  0.0003  0.0518
29351W        W46198  11.517  15.753   0.790 -0.2849  0.0569 -0.0036
29352W        W46199   8.398  12.701   1.637 -0.3108  0.4099  0.0047
29353W        W46200   0.282   1.539  10.833  0.0507 -0.0030  0.0825
29354W        W46201   7.179  11.701  11.493 -0.2200 -0.0132 -0.1677
29355W        W46202   2.626   9.392   0.471  0.2435  0.2010  0.1393
29356W        W46203   8.495  12.585   0.449  0.2224 -0.0987 -0.1340
29357W        W46204   3.432  12.661   3.463 -0.0159  0.0362 -0.2218
29358W        W46205   5.842   5.461  10.723  0.2116  0.3994 -0.1053
29359W        W46206   8.452   1.834   3.643 -0.3334  0.0343 -0.1941
29360W        W46207   3.782   3.007   2.998 -0.0537 -0.1244 -0.2215
29361W        W46208   2.337   0.654   5.117 -0.1717  0.0501  0.0190
29362W        W46209   1.973  14.270   4.423  0.1306 -0.3190  0.1219
29363W        W46210  15.205   9.680   1.281 -0.1722 -0.0532 -0.2663
29364W        W46211   2.529   6.950   3.038  0.1366 -0.0539 -0.1910
29365W        W46212   9.305  11.723   3.168 -0.1626  0.0089 -0.0973
29366W        W46213  13.384   9.159   4.748 -0.1791 -0.1008 -0.2758
29367W        W46214   4.010  18.122  12.674  0.1215 -0.1047 -0.0485
29368W        W46215  12.569   0.103   3.691  0.0798 -0.1272 -0.0491
29369W        W46216   2.982  17.262   1.702  0.5216  0.0756 -0.0122
29370W        W46217   2.298   5.556   4.317 -0.0791 -0.0311  0.0070
29371W        W46218   5.433   3.507   2.231 -0.0923 -0.0408 -0.0358
29372W        W46219  17.543  18.037   1.756 -0.1751  0.0511  0.0279
29373W        W46220  18.664  12.261  13.625 -0.0346 -0.1896 -0.2358
29374W        W46221   0.901   6.145   4.242 -0.0212  0.2100 -0.1671
29375W        W46222  13.077   8.462   1.408  0.2026 -0.1232  0.1789
29376W        W46223   6.819   8.611   1.391 -0.3245  0.1812 -0.0995
29377W        W46224  11.295  12.124   5.024 -0.0393  0.1135  0.1824
29378W        W46225  12.641   6.966  11.642  0.0048  0.1470 -0.0769
29379W        W46226  12.366   0.484  13.389  0.0754 -0.1996  0.1549
29380W        W46227   9.010  11.774   3.580  0.0423  0.2863 -0.0195
29381W        W46228  11.058   4.434   3.097  0.0090 -0.0215  0.2042
29382W        W46229  13.951   8.551   0.559 -0.2533 -0.1438 -0.2909
29383W        W46230   4.201   5.812  10.935  0.1911 -0.4052 -0.4352
29384W        W46231   1.843  13.844   0.606  0.0671  0.1238  0.2486
29385W        W46232   4.532  12.374  13.520  0.4018  0.0598  0.2193
29386W        W46233   2.854  13.334  14.302  0.2342  0.1112 -0.1742
29387W        W46234   2.055   3.125   4.708  0.0372 -0.0827 -0.0043
29388W        W46235   8.809  13.865  11.308 -0.1981  0.0878 -0.2230
29389W        W46236  12.534   2.449  13.476 -0.1123  0.2431 -0.0376
29390W        W46237   1.071  18.655  14.070  0.0436 -0.1704  0.0643
29391W        W46238  14.680  10.493  12.888  0.1485 -0.1187  0.1774
29392W        W46239   8.778   4.946  14.584  0.1553  0.1114  0.0064
29393W        W46240  13.684  14.684  14.571  0.0668 -0.5230 -0.1944
29394W        W46241  11.199  12.954   0.271 -0.0031 -0.1055  0.0842
29395W        W46242  17.407  13.863   2.194  0.1237 -0.3251  0.1910
29396W        W46243  12.829  18.313   5.339 -0.2635 -0.1346  0.1346
29397W        W46244   7.273   2.146  10.932  0.3439  0.1651 -0.3472
29398W        W46245   9.677  12.843   4.874 -0.0167  0.1299  0.1295
29399W        W46246   4.387  13.315  15.009  0.2694  0.2915 -0.0702
29400W        W46247  11.278   5.290   0.322  0.1849 -0.1124  0.1029
29401W        W46248  13.843   6.686   2.099  0.2338  0.2475 -0.0397
29402W        W46249  18.001  15.927  13.930  0.2826  0.0678  0.1220
29403W        W46250  14.276  10.928   2.382 -0.5100 -0.0771 -0.0533
29404W        W46251   0.595  10.692  12.518  0.2883  0.0712 -0.1083
29405W        W46252   4.299   3.591  13.203 -0.0681 -0.1917  0.2501
29406W        W46253   6.088   0.408   1.493 -0.3030  0.2767  0.0172
29407W        W46254  16.791  10.555   5.045  0.0950  0.0996  0.2226
29408W        W46255   0.783  14.009  12.321 -0.1766  0.0489  0.0062
29409W        W46256  18.530  17.395   3.961  0.1420  0.0119  0.2799
29410W        W46257  11.243   3.769  10.538  0.0244  0.0639  0.1564
29411W        W46258  17.527   8.748   0.301 -0.0235  0.1941  0.0245
29412W        W46259   5.075   6.524  11.207  0.0792 -0.2905  0.1638
29413W        W46260   3.284   3.131   2.702 -0.0768 -0.3888  0.1260
29414W        W46261   8.463   1.936   3.138  0.2001 -0.0366  0.0818
29415W        W46262  12.093   1.904  12.269  0.2049  0.4009  0.1607
29416W        W46263   6.186  10.605   4.878  0.2395 -0.2001 -0.0731
29417W        W46264  18.843  10.634   3.505  0.0105  0.0893  0.3017
29418W        W46265  10.615   2.611   1.356  0.2407 -0.3244  0.1179
29419W        W46266   7.786  13.642   2.857  0.0676 -0.1592 -0.0282
29420W        W46267  15.952   4.821   0.845  0.1220 -0.0095 -0.0835
29421W        W46268  17.528   8.975  14.803  0.3407  0.0324  0.1037
29422W        W46269  13.775  13.135  14.491 -0.0968  0.1698  0.0092
29423W        W46270  18.836   2.397  10.972 -0.0905  0.1904  0.2919
29424W        W46271   9.594   4.697  13.941 -0.2164  0.1243  0.0946
29425W        W46272  13.174   5.208   1.648 -0.2672 -0.1927  0.1505
29426W        W46273  12.782  18.704   5.790  0.3384 -0.0244  0.1868
29427W        W46274   6.050  10.320  12.424 -0.0989 -0.2024  0.0286
29428W        W46275  14.864   8.491   4.388  0.0145 -0.1707  0.1288
29429W        W46276  16.824  13.579  13.422 -0.2286  0.2350 -0.1806
29430W        W46277  14.052   4.318   0.570  0.3090  0.1104  0.0080
29431W        W46278   3.345  12.885   4.445  0.1041  0.1342 -0.1010
29432W        W46279   6.838   5.587  12.957 -0.4255  0.3299 -0.0665
29433W        W46280  19.025  19.279  14.405  0.0902 -0.0754  0.0096
29434W        W46281  13.391  16.534   2.106  0.2255  0.1230  0.0728
29435W        W46282   0.798   4.675   1.658  0.1413  0.1501  0.0377
29436W        W46283   9.668   0.395   1.673 -0.2925 -0.0702 -0.0971
29437W        W46284   8.458  10.501  12.039 -0.3479 -0.0408 -0.1061
29438W        W46285  12.253   9.313   2.329  0.2880  0.0538  0.0174
29439W        W46286  16.202  10.104   3.945 -0.0498  0.2584  0.0050
29440W        W46287  16.784   7.094   1.181 -0.1658  0.1286 -0.3104
29441W        W46288   6.050   7.274  15.001  0.2114  0.0754 -0.4142
29442W        W46289   6.401  15.303  14.022  0.4062  0.3713  0.0111
29443W        W46290   9.290  12.492  14.143  0.0072 -0.0111  0.3693
29444W        W46291   3.364  14.134   2.258  0.0434  0.1358 -0.0594
29445W        W46292  19.023   2.698  13.862  0.3541  0.4105 -0.0143
29446W        W46293  14.298  11.449  12.626 -0.2580 -0.1473 -0.1602
29447W        W46294   7.544   7.103   2.737  0.0558  0.0838  0.0044
29448W        W46295   2.533  14.535  13.741  0.1165  0.0415 -0.1883
29449W        W46296   7.527  10.465  14.442 -0.1871 -0.2124  0.0589
29450W        W46297   4.547   9.780  13.509  0.1074  0.0857  0.2883
29451W        W46298  11.976  12.181  12.784 -0.1897 -0.1687 -0.3532
29452W        W46299   4.676   6.183   3.371  0.0810 -0.0501 -0.1277
29453W        W46300  17.611   5.807   2.167 -0.0497  0.2015  0.1147
29454W        W46301   8.446   4.899  12.740 -0.0974 -0.0394 -0.4832
29455W        W46302   1.577  13.026  14.039  0.3776  0.2577  0.1147
29456W        W46303  10.970   0.156   4.302 -0.0780  0.0938 -0.0983
29457W        W46304   4.377   4.473   9.944 -0.0270  0.3908 -0.2873
29458W        W46305   9.680  13.824  13.232  0.3415 -0.0153 -0.2229
29459W        W46306   9.025  16.186  12.940 -0.0262  0.0909 -0.0042
29460W        W46307   7.045   2.763   2.486 -0.0235 -0.3018  0.2129
29461W        W46308   0.305   5.602  10.472  0.2035  0.1521 -0.0073
29462W        W46309   6.282  13.663   2.428 -0.1237  0.2241  0.0012
29463W        W46310   8.958   9.017  14.642 -0.2412 -0.0329  0.1408
29464W        W46311  11.529  10.529  10.829 -0.3223  0.2873  0.2676
29465W        W46312  18.142   8.594   3.745 -0.0895 -0.0893  0.2075
29466W        W46313  18.867  14.584  12.989 -0.1195 -0.0013  0.1922
29467W        W46314  11.869  12.813  11.284  0.0650  0.0548 -0.0641
29468W        W46315  13.363  11.643  13.853 -0.0224 -0.0359  0.2095
29469W        W46316   4.807  16.798  13.470 -0.3767  0.0840  0.1556
29470W        W46317  18.772   1.727  13.549 -0.0741 -0.2054  0.2717
29471W        W46318   5.494  11.313   1.534  0.0325 -0.2025  0.2861
29472W        W46319  17.062  17.811  14.150 -0.0339 -0.0354 -0.4205
29473W        W46320   0.493  12.940  11.132 -0.0401 -0.1452  0.3769
29474W        W46321   8.543  17.626   3.982 -0.0293 -0.4750 -0.1082
29475W        W46322  18.576   2.051   2.138  0.0399  0.1705  0.1972
29476W        W46323  12.956  13.675  11.932 -0.0027 -0.1057  0.0838
29477W        W46324   6.561  14.758  12.563 -0.0943 -0.1262  0.0793
29478W        W46325   6.876   0.895  12.047  0.0555 -0.1069  0.1167
29479W        W46326   6.253   4.369   3.091 -0.3812 -0.2710 -0.0130
29480W        W46327   4.908   2.845  10.569  0.2510 -0.2205  0.1956
29481W        W46328  19.006   6.106  12.787  0.0967 -0.4250  0.5168
29482W        W46329  13.016  13.075  12.658  0.0473  0.3915  0.1526
29483W        W46330  13.818  18.261  14.200 -0.0384  0.2039  0.0574
29484W        W46331  14.529  17.099  14.206  0.2480  0.1213 -0.0183
29485W        W46332   5.814  16.931  10.870 -0.0333 -0.3576 -0.0979
29486W        W46333  11.404   9.461   0.773  0.2012  0.2944 -0.1233
29487W        W46334  19.070  14.741   1.675 -0.0585  0.1250 -0.2710
29488W        W46335   2.740   1.368  10.666  0.0359 -0.0799  0.1622
29489W        W46336  16.359   5.763   3.324 -0.1543  0.0464 -0.1141
29490W        W46337  15.668  11.263   5.230 -0.0129  0.3403  0.1262
29491W        W46338  10.387  12.344   3.345  0.0498 -0.0565  0.1462
29492W        W46339   7.432   3.756   3.390  0.0717 -0.2483  0.1334
29493W        W46340  17.972  12.223   2.280 -0.1254 -0.1236 -0.1938
29494W        W46341   6.391   8.565  13.368 -0.0173  0.0478  0.3258
29495W        W46342  10.309  14.286   0.565  0.3735  0.2368 -0.0393
29496W        W46343  14.770   2.006   1.423 -0.1514 -0.0099 -0.0193
29497W        W46344  18.108  16.096  12.276  0.1245  0.0425 -0.1406
29498W        W46345   8.015   0.561   3.886 -0.3932 -0.1586 -0.1420
29499W        W46346   7.768   1.818  10.146 -0.1735 -0.2065 -0.1739
29500W        W46347   7.339  12.840  13.777  0.0085 -0.0104 -0.0882
29501W        W46348   2.068  13.807  11.349  0.1571  0.0449  0.3816
29502W        W46349  17.956  12.121   0.013 -0.1306 -0.1271  0.0262
29503W        W46350  11.899   0.850   5.467  0.1474  0.0327 -0.0480
29504W        W46351  14.709   8.315   2.751  0.0841 -0.1031 -0.0353
29505W        W46352   5.379   3.743   4.801  0.1122 -0.2583 -0.1915
29506W        W46353   8.885   2.101   3.846  0.1963 -0.1469  0.1422
29507W        W46354   3.885   7.560  12.449  0.3516  0.0850 -0.1820
29508W        W46355   8.884   0.844   2.848 -0.1411  0.2332 -0.2497
29509W        W46356  16.146  12.541   0.133  0.1901  0.0412 -0.2177
29510W        W46357  11.273  10.938  10.871  0.0221  0.3221 -0.1794
29511W        W46358   1.652  15.950   3.568  0.2281  0.0436  0.1571
29512W        W46359   1.163   7.281   4.597 -0.3523 -0.1259  0.2071
29513W        W46360  15.587   9.841  12.057  0.3377  0.0024  0.0867
29514W        W46361   2.699   8.853  10.298  0.0140  0.0057  0.0570
29515W        W46362   6.278   5.650  10.713  0.1435 -0.0113  0.1671
29516W        W46363   9.940   3.390  10.937  0.0169 -0.0178 -0.0984
29517W        W46364  13.044  13.010   1.028  0.0136 -0.1847 -0.0022
29518W        W46365  10.507  17.971  12.273 -0.1716  0.0841  0.1853
29519W        W46366  13.538   6.816  11.874  0.0903 -0.0220 -0.1007
29520W        W46367  12.492  16.943   2.427 -0.2509  0.1460  0.0483
29521W        W46368   3.414  16.046   3.665  0.1275 -0.1452  0.3799
29522W        W46369   8.046   7.851  12.243  0.2386 -0.2935  0.1611
29523W        W46370   4.973  13.277   3.781  0.2185  0.1414  0.1632
29524W        W46371  10.986  15.772  13.260 -0.2044  0.2149 -0.0525
29525W        W46372   6.348  10.665   0.569 -0.1416 -0.1141  0.0864
29526W        W46373   8.780  17.818  12.367  0.3093  0.2590  0.3596
29527W        W46374  10.967  14.309   0.853 -0.2251  0.1461 -0.3174
29528W        W46375  15.446  15.235   2.533 -0.3250  0.2403  0.1060
29529W        W46376   1.873  13.622  13.222  0.2477  0.3234 -0.1095
29530W        W46377   6.750   8.077   4.877 -0.0538  0.3783 -0.0359
29531W        W46378   3.078   6.273  11.836  0.1076  0.1128 -0.0283
29532W        W46379  19.213   4.484  10.422 -0.0596 -0.2429 -0.0251
29533W        W46380   8.085  13.690   1.561  0.0291  0.1884 -0.4403
29534W        W46381  19.130   3.264   3.868  0.2004  0.0676  0.0450
29535W        W46382  13.682   3.381   4.287  0.2223  0.1966  0.1511
29536W        W46383   9.513   5.751   3.436 -0.0731 -0.4022  0.3138
29537W        W46384   3.676   3.274  11.489  0.0370  0.1227 -0.2519
29538W        W46385   4.298   7.994   9.712  0.1374 -0.0706 -0.0516
29539W        W46386  14.739  13.105  10.555 -0.0328 -0.2460 -0.1271
29540W        W46387   4.369  18.216  11.173 -0.2635 -0.0348 -0.3251
29541W        W46388   1.950   2.200  12.788  0.0326 -0.3622  0.1005
29542W        W46389  14.835  16.561  14.332  0.0899 -0.0538  0.3807
29543W        W46390   3.910   5.757  11.797 -0.0051 -0.2005  0.0409
29544W        W46391   0.353   1.962  13.349 -0.2734  0.0451 -0.0847
29545W        W46392   7.193  14.088  10.512  0.1389  0.3173 -0.0237
29546W        W46393  14.223  15.772  11.890 -0.1918 -0.4583  0.1133
29547W        W46394  18.011  15.184  12.923 -0.0396  0.0051  0.2720
29548W        W46395   2.337  13.347  14.372  0.1740  0.0624 -0.0247
29549W        W46396  17.835  17.862  13.193 -0.0227  0.1351 -0.0179
29550W        W46397  13.849  13.533  14.814  0.0757  0.0334 -0.2700
29551W        W46398   7.184  13.866  13.346 -0.0669 -0.0099 -0.1329
29552W        W46399  15.040  17.193   0.756  0.1072 -0.1266  0.0287
29553W        W46400   1.446   7.666  13.716  0.0317  0.1210 -0.0622
29554W        W46401  15.710  14.923   0.194  0.2268 -0.3203  0.1201
29555W        W46402  11.347   3.528   2.103  0.3258  0.0377  0.1233
29556W        W46403   7.234   3.354  12.686  0.0702 -0.1884 -0.3189
29557W        W46404  19.217  19.176   0.423 -0.0996 -0.1389 -0.2150
29558W        W46405  16.628  11.738  11.495 -0.2164  0.0160 -0.0072
29559W        W46406   0.918   8.411   9.454 -0.2173  0.2117 -0.1921
29560W        W46407   9.966   6.313   8.996  0.0603 -0.2470  0.0521
29561W        W46408  18.900   0.493  13.171 -0.2591 -0.0868 -0.3781
29562W        W46409  12.021  16.555   1.030  0.0360  0.2820  0.0085
29563W        W46410   3.127  12.714   3.920  0.0377 -0.3198 -0.2362
29564W        W46411   8.655  18.364  14.103 -0.1263 -0.0009  0.2826
29565W        W46412  18.003  17.029   4.755 -0.0509 -0.2840 -0.2080
29566W        W46413  15.509  10.403   3.534 -0.2848  0.0070 -0.1582
29567W        W46414  12.042  12.680   0.605 -0.0546 -0.1850  0.2375
29568W        W46415  12.359   7.946  13.917  0.0964  0.0718 -0.1203
29569W        W46416   0.494  13.262   2.327  0.1417 -0.1751  0.0028
29570W        W46417  11.353  15.370  13.968 -0.1510  0.4178 -0.0083
29571W        W46418  16.559   3.004   5.631  0.0251  0.2446 -0.0424
29572W        W46419   8.438   5.722  13.549 -0.0282  0.0591  0.1561
29573W        W46420  18.179   8.665   1.286 -0.0688 -0.1282 -0.0765
29574W        W46421   4.184   3.729   2.701  0.3281 -0.1996 -0.0823
29575W        W46422  10.513   3.801  11.416 -0.3018  0.2106 -0.4099
29576W        W46423  18.764  16.426   3.867 -0.0411 -0.1309 -0.3921
29577W        W46424  16.205   5.055   1.364 -0.3259  0.3101  0.2952
29578W        W46425   1.711  18.064  11.977  0.0741  0.0047  0.1401
29579W        W46426  13.981  17.791   1.808 -0.1923  0.2003 -0.3059
29580W        W46427  12.402  11.149  14.137 -0.2045 -0.0302 -0.1416
29581W        W46428   0.803  16.124  12.201  0.0587 -0.3745 -0.0170
29582W        W46429   1.029  13.043   3.607 -0.0321 -0.1970 -0.1218
29583W        W46430   2.185   8.273   2.167  0.2938 -0.1874  0.1336
29584W        W46431  12.668  11.321   2.382 -0.0049  0.0025 -0.0831
29585W        W46432   0.290  12.817   0.938 -0.0644 -0.1317  0.1150
29586W        W46433   6.442  13.529   4.582 -0.0694 -0.2412 -0.1550
29587W        W46434   2.959   0.572  13.963  0.3820  0.0429 -0.0300
29588W        W46435   9.428  16.512  13.872  0.0038 -0.0785 -0.1077
29589W        W46436   5.018   4.364   3.623  0.2219  0.0443 -0.0365
29590W        W46437   7.053   7.179   4.189  0.2697  0.1078 -0.1290
29591W        W46438   7.119   4.191   1.209  0.0553  0.1554 -0.2485
29592W        W46439  11.040  10.132   5.251 -0.0483  0.0508  0.3391
29593W        W46440  15.808  15.001  11.862  0.3243 -0.0500 -0.0223
29594W        W46441  16.521   0.296   3.719 -0.1317  0.2581 -0.0232
29595W        W46442  15.010   5.501  12.857  0.0842 -0.0417  0.0286
29596W        W46443  17.667   6.545   0.955  0.3239  0.0256 -0.1471
29597W        W46444   7.656  14.258   1.539 -0.0148  0.0974  0.0649
29598W        W46445   3.941   6.827   2.136  0.0093 -0.0865  0.1727
29599W        W46446  13.934  18.907  11.989 -0.1680  0.0484  0.1088
29600W        W46447   9.411  17.727  14.154  0.0210  0.0263 -0.0097
29601W        W46448   8.113  13.895  14.392 -0.2609 -0.1190  0.1775
29602W        W46449   8.823   0.684  12.255  0.2742  0.0894 -0.1004
29603W        W46450  11.126   3.132  14.560  0.0792 -0.0592 -0.3113
29604W        W46451   1.628  12.096   0.242 -0.0695 -0.2758 -0.1082
29605W        W46452  12.868   7.170   3.644 -0.0148 -0.0300  0.1646
29606W        W46453  12.873  11.707   0.837 -0.0977 -0.0120  0.2355
29607W        W46454  13.310  13.072  14.475  0.0634  0.0613 -0.1382
29608W        W46455   4.988   3.405   4.712 -0.1721  0.2127  0.3109
29609W        W46456   7.710  19.252  13.777 -0.0331 -0.1130 -0.2725
29610W        W46457  18.585  13.787   1.737 -0.2366 -0.1604 -0.0687
29611W        W46458   3.216   4.251   2.219 -0.1541 -0.1686 -0.0571
29612W        W46459   1.536   6.632   1.255  0.1154 -0.0509  0.0222
29613W        W46460  17.618  12.973  10.952 -0.1821 -0.2749 -0.0596
29614W        W46461   7.483   0.257   4.375  0.0437 -0.1314  0.1933
29615W        W46462   6.899   8.734   0.882  0.0618 -0.1531 -0.0498
29616W        W46463  17.279  14.715   3.221 -0.0117  0.0809  0.0584
29617W        W46464   5.009  15.591  12.831 -0.1492 -0.1550  0.2322
29618W        W46465   7.685  13.276   3.971 -0.0679  0.1067  0.1141
29619W        W46466  16.025  16.040   4.002 -0.0521 -0.2210  0.1410
29620W        W46467  11.599   5.349  14.944 -0.2136  0.0198  0.1467
29621W        W46468  15.163   3.237   4.403  0.0645 -0.1211  0.1696
29622W        W46469   3.528  11.919   3.247  0.0873  0.0651  0.4234
29623W        W46470   3.338  13.550   1.829 -0.0143 -0.0608 -0.2844
29624W        W46471   8.435   4.325   4.688 -0.2457  0.0355 -0.1704
29625W        W46472   7.636   4.304   2.209  0.2071  0.0160  0.1553
29626W        W46473   9.169  13.523   0.218 -0.0128  0.0586  0.0054
29627W        W46474  16.361  18.902   4.930  0.1530  0.0935  0.0722
29628W        W46475  13.249   8.617   4.788  0.1870 -0.2215  0.0595
29629W        W46476  14.213  18.201   1.988 -0.0049  0.1884 -0.0066
29630W        W46477   4.389  17.873  12.942 -0.1842 -0.2111  0.1739
29631W        W46478  14.606  17.903  14.502  0.1591  0.1961  0.1180
29632W        W46479  14.445  16.037  15.011  0.2677 -0.2910 -0.0948
29633W        W46480   0.466  15.566  13.687  0.1532 -0.0534 -0.2087
29634W        W46481   2.740  14.175   4.864  0.0275  0.0107 -0.0580
29635W        W46482   1.786   9.505  14.662  0.0079  0.4468 -0.0776
29636W        W46483  11.779   3.324   1.967  0.1085 -0.0747 -0.2385
29637W        W46484  10.061  13.413  13.128 -0.0409  0.2080 -0.0544
29638W        W46485   1.731   9.552   4.322  0.0276  0.3734 -0.0137
29639W        W46486  11.401   1.112   3.066 -0.1288 -0.1608 -0.0602
29640W        W46487  16.500  17.204  11.216  0.2079 -0.0457 -0.1866
29641W        W46488   3.778  12.643   3.823 -0.1420  0.1809  0.1650
29642W        W46489   1.443  17.587   1.465 -0.1320  0.2279  0.4335
29643W        W46490   5.097  17.790  10.732  0.1362 -0.0759 -0.1773
29644W        W46491   3.870   0.491  11.200 -0.1928  0.1786  0.0175
29645W        W46492   6.840   3.093   1.000  0.2434 -0.1513 -0.1688
29646W        W46493  11.355  16.470   3.772  0.0417 -0.0139  0.1317
29647W        W46494  12.460  12.710  10.484  0.2183  0.2909  0.3452
29648W        W46495  13.094   6.838   3.241  0.1182  0.2683 -0.1563
29649W        W46496   6.933   2.445   2.861  0.2104  0.1599  0.0105
29650W        W46497   2.514  15.699   3.923 -0.0940 -0.2062 -0.0739
29651W        W46498   5.231   4.749   3.396 -0.1910  0.4732  0.0482
29652W        W46499   5.447   5.566   1.319  0.0357  0.1650 -0.3869
29653W        W46500  19.081  10.179  14.507 -0.0111  0.1659  0.1311
29654W        W46501  12.045   4.809  14.216 -0.6419 -0.0084 -0.0077
29655W        W46502  18.360   1.010  13.647  0.0812 -0.0526  0.1444
29656W        W46503  10.548  15.077  14.304 -0.1144 -0.1657 -0.0271
29657W        W46504   9.898  12.200   0.554  0.1731 -0.0146  0.1872
29658W        W46505  18.162  11.903  12.807  0.3869 -0.3183 -0.2423
29659W        W46506   0.094  11.967   3.079 -0.3051 -0.1523 -0.0201
29660W        W46507   4.381  14.015   0.011 -0.1941 -0.0177  0.0332
29661W        W46508   5.745  15.157  10.539 -0.1206 -0.2458  0.0506
29662W        W46509  10.983   9.355   4.011  0.1099 -0.3481  0.2002
29663W        W46510   6.426   8.353   1.502  0.2143 -0.0615 -0.1206
29664W        W46511  15.277  17.799   1.182  0.0369 -0.3667  0.1069
29665W        W46512  18.237  12.833   4.798  0.0987  0.2262 -0.2674
29666W        W46513   8.270   4.454   3.485  0.0430 -0.1729  0.0103
29667W        W46514   8.109  16.031   3.981  0.1850  0.1900 -0.1258
29668W        W46515   1.765   8.242   2.888  0.2314  0.1016  0.1354
29669W        W46516  16.007   0.681   1.207  0.0449  0.4600  0.0972
29670W        W46517   0.963   7.184   5.045  0.3582  0.4039  0.2852
29671W        W46518  16.954   1.597  15.010 -0.2738 -0.1227  0.0058
29672W        W46519  11.104   9.520  13.753 -0.1940  0.3333  0.2978
29673W        W46520   2.082  10.212   5.391  0.0786  0.1630 -0.0165
29674W        W46521  12.592   6.261   0.117 -0.3794 -0.2234 -0.0153
29675W        W46522  11.037  17.418  13.349 -0.1041  0.0288  0.2586
29676W        W46523   7.280   0.423   2.679 -0.0192 -0.3104  0.1926
29677W        W46524  17.139   5.067  12.508  0.1253 -0.1371  0.0092
29678W        W46525  10.054  10.645  12.703  0.1992 -0.0333  0.3391
29679W        W46526  11.827   8.733   4.321  0.1032  0.1104 -0.1369
29680W        W46527   4.427   8.915   0.453 -0.1716  0.0145 -0.1339
29681W        W46528   8.527  15.503  11.277  0.1198 -0.2371 -0.2213
29682W        W46529  15.574   8.696   9.680 -0.2416  0.0165 -0.6343
29683W        W46530   0.110   7.977   0.145  0.0071 -0.0319 -0.2107
29684W        W46531  12.116   1.125  14.050 -0.1037  0.0883 -0.1824
29685W        W46532   6.846  16.186   0.076  0.1657 -0.2836  0.2485
29686W        W46533  16.413   8.059   2.819 -0.0792 -0.4413  0.1900
29687W        W46534   8.509   1.511   2.276  0.1209  0.0100 -0.1026
29688W        W46535   1.201  18.888   0.850  0.1991 -0.0075  0.2620
29689W        W46536   3.748   5.627  12.716 -0.0705 -0.0968  0.0575
29690W        W46537  13.791  14.090   0.590  0.1520  0.0350 -0.1250
29691W        W46538  15.506   8.393   3.675  0.1939  0.0637  0.0796
29692W        W46539   0.049  12.061  11.302  0.0759  0.0507  0.1475
29693W        W46540   5.007   9.725  11.239 -0.1047  0.1043  0.3245
29694W        W46541   1.484  17.190  14.700  0.2195 -0.3088 -0.0980
29695W        W46542   8.550   1.702   1.340 -0.0979  0.0118  0.0345
29696W        W46543  18.605   4.536  12.428 -0.0531 -0.0794  0.1656
29697W        W46544   4.790   9.420   5.296  0.1837  0.0255 -0.1040
29698W        W46545  18.963  15.887  13.875  0.0356  0.2976  0.1298
29699W        W46546   7.033  16.812  14.919  0.2014 -0.3217  0.1252
29700W        W46547   6.498  15.843  14.040  0.0097  0.1030  0.1084
29701W        W46548  11.958   7.527   1.979 -0.0919 -0.1582  0.4824
29702W        W46549   3.482   9.037   4.249 -0.1305 -0.1465 -0.3911
29703W        W46550   4.136   4.972   1.442 -0.0035  0.2901 -0.1295
29704W        W46551   6.559  11.171   9.662  0.1536 -0.1040 -0.2992
29705W        W46552  16.138   3.048   3.317 -0.0506  0.0134  0.2218
29706W        W46553   8.709  18.372  11.104 -0.0384 -0.2978  0.3822
29707W        W46554  15.095   0.572  11.716 -0.0990 -0.2814 -0.1880
29708W        W46555   3.253   4.330  12.935  0.2378 -0.2210  0.3168
29709W        W46556  14.995  15.249   3.489  0.1053 -0.0086 -0.0241
29710W        W46557  11.528   8.317   4.459 -0.2776 -0.0041  0.1059
29711W        W46558  14.680   6.764  12.050 -0.2305 -0.0460 -0.0189
29712W        W46559  13.564  15.654  12.963 -0.2401  0.0755  0.1287
29713W        W46560  13.781   4.314   4.692 -0.0681 -0.1286  0.2475
29714W        W46561  13.778  10.699  13.949  0.5647  0.2117 -0.2182
29715W        W46562   5.210   6.853   3.097  0.1022  0.1170  0.0206
29716W        W46563   4.306   5.229   2.681 -0.3245 -0.0527  0.1188
29717W        W46564  14.662   7.957   3.694  0.0169  0.0040  0.2003
29718W        W46565  11.445   7.471   2.714  0.4525 -0.1598 -0.1109
29719W        W46566  16.399   8.910   0.705 -0.0240 -0.1611 -0.1458
29720W        W46567  12.245  11.431   0.066 -0.0911  0.2273 -0.1527
29721W        W46568  13.424   6.944  13.773 -0.0526 -0.0662 -0.3104
29722W        W46569  12.738  17.461   6.213 -0.0463 -0.1103 -0.0278
29723W        W46570  13.570   3.436  11.645  0.3082  0.1329  0.2083
29724W        W46571  13.703  10.460   3.054 -0.2976  0.2623 -0.0572
29725W        W46572   4.254   8.025  14.584  0.0517 -0.0671  0.2076
29726W        W46573  15.868  12.709  12.015 -0.0072 -0.2572 -0.1921
29727W        W46574  10.830  13.188   3.489  0.0772  0.0496  0.0180
29728W        W46575   4.476   1.796   2.663 -0.4961 -0.2091  0.2608
29729W        W46576   7.731  17.182   3.272 -0.0224 -0.2100 -0.1264
29730W        W46577   2.065  11.205   4.365 -0.2376 -0.4085 -0.1250
29731W        W46578   0.339   8.453   0.935 -0.1936 -0.3937 -0.0355
29732W        W46579   4.906   5.797   4.108 -0.0306 -0.1129  0.2410
29733W        W46580  18.079   6.276   0.633 -0.2703  0.0770 -0.0071
29734W        W46581   1.797  17.069  12.884 -0.0999  0.1079 -0.2639
29735W        W46582  11.418   2.750  12.283 -0.0044  0.0244  0.0212
29736W        W46583   3.368   1.521  13.062 -0.1856 -0.2289  0.2275
29737W        W46584  18.523  18.373   4.653  0.2538 -0.3321  0.2058
29738W        W46585  10.484   0.839   9.869  0.0982  0.0628 -0.2093
29739W        W46586  17.649   2.281   2.321  0.0472  0.3458  0.1663
29740W        W46587   2.251   9.026   4.645 -0.0225 -0.1627 -0.0721
29741W        W46588  18.055   1.448  13.760 -0.0345 -0.0093 -0.1600
29742W        W46589  13.109  10.033  10.660  0.1804 -0.0271 -0.1065
29743W        W46590   3.141   2.243  13.924  0.0352 -0.1336 -0.2102
29744W        W46591   8.398   1.984   4.172 -0.0084  0.0485 -0.1589
29745W        W46592  12.569   6.120  12.848 -0.1362  0.0958  0.2180
29746W        W46593  14.149  16.851  13.655 -0.0660 -0.4072  0.2247
29747W        W46594   8.993  10.561  14.458  0.1033 -0.1034 -0.1475
29748W        W46595  18.186   9.240   2.995  0.1703  0.0012 -0.1803
29749W        W46596  17.674   1.361  12.062  0.1009  0.1295 -0.0001
29750W        W46597  13.321   3.273  10.830 -0.0972  0.1501  0.1962
29751W        W46598   4.699  11.297  12.440  0.1134  0.1228 -0.1261
29752W        W46599   0.062  16.645   5.090  0.1876 -0.0655  0.2933
29753W        W46600  16.218   6.741   4.498 -0.0880 -0.0485 -0.1357
29754W        W46601   4.622  18.552  14.758  0.2513  0.0414  0.2393
29755W        W46602   9.796   2.449   0.917 -0.0627 -0.0531 -0.0496
29756W        W46603   9.890  13.046  12.036  0.0092 -0.1155 -0.0693
29757W        W46604  10.609   9.894   3.288 -0.1072  0.3222  0.0023
29758W        W46605  17.414  17.974   5.385 -0.0476  0.2027 -0.0803
29759W        W46606   6.755  17.428  11.345 -0.2128  0.0796  0.0569
29760W        W46607   9.282  10.237   2.115  0.0993 -0.0302 -0.4171
29761W        W46608  17.161   9.353   0.714  0.2013 -0.0533 -0.1225
29762W        W46609   4.165   8.374   3.871 -0.2469  0.0150 -0.0455
29763W        W46610  12.748  12.371  13.534 -0.0963 -0.1540 -0.1513
29764W        W46611  12.542   1.377  14.132 -0.1888 -0.3510  0.1247
29765W        W46612  12.341  13.238   4.658  0.2356 -0.1323  0.0521
29766W        W46613   3.117   9.779   1.978 -0.0341 -0.1334  0.1937
29767W        W46614  16.929  18.255   1.669  0.1523  0.1698  0.0899
29768W        W46615   0.139  19.024   1.656 -0.1239 -0.1610 -0.0680
29769W        W46616  18.654  13.531   0.452 -0.3868 -0.0137  0.0329
29770W        W46617   3.513   5.648  10.387  0.2988 -0.1416 -0.3713
29771W        W46618   4.942  13.164   3.260 -0.2203  0.3705 -0.3807
29772W        W46619   4.494  14.171   2.004  0.2781  0.3092 -0.4379
29773W        W46620   4.652   6.027   2.897 -0.0833 -0.2403 -0.1201
29774W        W46621   4.934  11.462   0.358 -0.1705 -0.1313 -0.2982
29775W        W46622  13.463  10.108   0.279 -0.0612 -0.1902  0.0731
29776W        W46623  11.563   1.474   3.924  0.0056 -0.4631  0.0074
29777W        W46624  17.404   6.819  12.757 -0.0497 -0.3421  0.0387
29778W        W46625   0.053   3.160   3.406  0.2516 -0.2487 -0.3271
29779W        W46626   5.577   4.663  11.309 -0.5057 -0.1679 -0.0612
29780W        W46627   0.679  13.368   1.367  0.0773 -0.1977 -0.0679
29781W        W46628   7.132  14.589   4.262  0.2092 -0.2911 -0.0307
29782W        W46629  14.695   4.002  10.533  0.3284 -0.3141 -0.1315
29783W        W46630  11.443   8.339  13.696 -0.2679  0.2807  0.1933
29784W        W46631   1.670   1.282   4.804  0.1885  0.2446 -0.2654
29785W        W46632  16.904   5.173   3.984  0.2152 -0.0790  0.0291
29786W        W46633   9.100   0.233  10.551 -0.0986  0.1423  0.0050
29787W        W46634   0.732   0.841  13.243  0.1583 -0.0178 -0.1191
29788W        W46635   0.507   2.404   4.091 -0.2732 -0.0291  0.3136
29789W        W46636   0.602   6.596   5.577 -0.0638 -0.0587 -0.0830
29790W        W46637   2.821  18.604   2.044 -0.0371  0.2314 -0.2669
29791W        W46638  16.150  10.869   5.170 -0.0211  0.1930 -0.0408
29792W        W46639   6.302  16.451   4.072 -0.0388 -0.0619 -0.2240
29793W        W46640  15.462  16.893  14.920  0.2215 -0.0295 -0.1822
29794W        W46641   5.884  13.488   2.654 -0.2738 -0.1374 -0.1758
29795W        W46642  10.049   0.139   2.222  0.1445 -0.0295  0.0129
29796W        W46643  19.225  13.245  13.209 -0.4308  0.0974  0.2127
29797W        W46644   8.966  14.623   1.302 -0.0783 -0.0963  0.1109
29798W        W46645  15.245  18.339   5.501 -0.2555  0.1936 -0.1060
29799W        W46646   8.881   5.491  12.591  0.1092  0.0822 -0.1388
29800W        W46647   8.936  18.846   2.594 -0.1757  0.1708 -0.0349
29801W        W46648   8.480   4.583  11.827 -0.2082 -0.1727  0.4121
29802W        W46649   6.442  18.963  14.434 -0.1131 -0.0837  0.0726
29803W        W46650  16.395   0.435   2.815 -0.0130  0.1490 -0.0119
29804W        W46651   8.594  16.428  14.405 -0.1870 -0.0820  0.1002
29805W        W46652   9.363   0.640   4.702  0.0251 -0.3465 -0.3329
29806W        W46653  17.362  13.636  11.590  0.0133  0.0558  0.0333
29807W        W46654  15.135  11.120  11.914 -0.2338  0.2037 -0.0121
29808W        W46655   2.992   7.908   1.991  0.2527 -0.0625  0.2747
29809W        W46656   7.957   6.247   4.530 -0.0247 -0.2340 -0.0016
29810W        W46657   8.021   3.462   1.710 -0.0889 -0.0359  0.2173
29811W        W46658   1.373  15.446  13.981  0.1923 -0.1971  0.1541
29812W        W46659   5.128  14.345  13.260  0.0243  0.2539  0.2670
29813W        W46660  12.561  13.537   4.245  0.0828  0.0293  0.0150
29814W        W46661   3.905   0.064   3.340  0.2131 -0.4469 -0.3999
29815W        W46662  11.280  18.334  13.659 -0.2821 -0.1607 -0.1062
29816W        W46663  18.162  14.402  13.038 -0.1283 -0.0272 -0.1453
29817W        W46664  11.734  17.820   4.662  0.1764 -0.0894 -0.2435
29818W        W46665   7.156   6.957   2.487  0.1554  0.2260  0.1601
29819W        W46666   7.620   1.626   2.888 -0.3193  0.0481  0.1843
29820W        W46667   8.448  14.883  12.385 -0.3315 -0.1183 -0.0123
29821W        W46668   2.340   3.646   2.476  0.0314  0.1188 -0.0153
29822W        W46669  12.742  12.108  14.499  0.0746 -0.1545  0.3215
29823W        W46670   1.002   4.016   4.466 -0.0571 -0.0117  0.1404
29824W        W46671   1.459   5.397   4.682  0.2805  0.0167 -0.1327
29825W        W46672   4.469  13.308  11.323 -0.1015  0.0473 -0.5239
29826W        W46673  13.558  12.843   1.838 -0.2435 -0.1079  0.0005
29827W        W46674   0.939  13.551  14.399 -0.0978 -0.1731 -0.0640
29828W        W46675  18.676   3.580  11.988  0.1885  0.0938 -0.1236
29829W        W46676   3.479   4.793   0.511 -0.1392 -0.2062  0.1666
29830W        W46677  17.344  17.822   0.299 -0.1096 -0.5409  0.3456
29831W        W46678  11.129   0.940   3.442 -0.4019 -0.1274 -0.3553
29832W        W46679   1.093  10.045  13.736 -0.1210  0.1239  0.1173
29833W        W46680  17.804  17.700   5.440 -0.3381  0.1073 -0.0022
29834W        W46681  18.739   1.004   0.220 -0.0272  0.2346 -0.2093
29835W        W46682   7.321  13.574   2.989 -0.1441 -0.0622  0.1524
29836W        W46683   6.567   2.077  13.313 -0.0238 -0.1342 -0.1477
29837W        W46684   6.811  16.077  13.227  0.1550 -0.0712 -0.0564
29838W        W46685  15.145  14.751   4.841  0.4046 -0.0819 -0.2838
29839W        W46686  11.438   9.894   3.440  0.1144 -0.2442 -0.0127
29840W        W46687   9.319   0.652  11.683  0.0915  0.0329 -0.0536
29841W        W46688  16.275   7.715   1.287  0.1595 -0.1072 -0.1038
29842W        W46689  12.285  14.029  12.311  0.3053  0.1118 -0.2560
29843W        W46690   2.455  11.428  13.711  0.1200  0.1076 -0.2109
29844W        W46691   4.056  12.359   2.431 -0.1330  0.1460  0.0748
29845W        W46692  17.838  10.059  10.470  0.0751 -0.0132  0.2892
29846W        W46693  12.190   2.455   3.970 -0.1905  0.1420 -0.1078
29847W        W46694  16.068  10.895  13.021  0.2307  0.0525  0.0793
29848W        W46695   9.412  10.800   0.968  0.2505  0.0057  0.1297
29849W        W46696   2.862   6.916  11.629 -0.0690 -0.1042  0.0847
29850W        W46697  11.148  11.564   2.443 -0.0773 -0.0814  0.3215
29851W        W46698   9.985   5.388  13.182 -0.0458  0.0928 -0.0149
29852W        W46699   8.964  19.280  12.359 -0.2612  0.2154  0.1023
29853W        W46700   6.181   7.872  10.531 -0.2008  0.1598  0.0530
29854W        W46701   5.608  17.865  10.866 -0.4499  0.0893 -0.1423
29855W        W46702   5.907  12.199  14.681 -0.0089 -0.3134 -0.0487
29856W        W46703   2.084   1.544  12.260 -0.0207  0.1232  0.0606
29857W        W46704   2.810  17.469   3.472  0.1771  0.0467  0.2480
29858W        W46705   9.926   7.926   4.345 -0.0060 -0.1525  0.1142
29859W        W46706   7.764   5.800   1.297  0.0981  0.1779  0.0002
29860W        W46707   4.481   7.123  10.753 -0.1026 -0.3221 -0.0112
29861W        W46708   2.902   6.062   4.062  0.2891 -0.1038  0.1748
29862W        W46709  10.701   3.255   3.297 -0.0613  0.2696  0.3961
29863W        W46710   3.011   1.941   4.015  0.1589  0.0783 -0.2727
29864W        W46711  18.273   2.924   1.790 -0.2026 -0.2688  0.0427
29865W        W46712  15.660  15.078  10.624 -0.1125  0.0759 -0.0560
29866W        W46713   7.296   6.231  13.367 -0.2663 -0.3777  0.0578
29867W        W46714  18.798  15.701   2.514 -0.1165  0.1439  0.1073
29868W        W46715   5.824   6.320   4.256  0.2422  0.0785 -0.2256
29869W        W46716   0.050   5.417  12.758  0.2100 -0.2307  0.1910
29870W        W46717   6.429   7.461   4.829 -0.1999 -0.1098  0.1518
29871W        W46718   4.773   9.368  11.594  0.1481 -0.2726 -0.1997
29872W        W46719  18.886  11.731   2.410  0.0409  0.0016 -0.1246
29873W        W46720  12.932   7.269  12.647  0.1597 -0.1466 -0.0958
29874W        W46721   4.850   2.979   4.254 -0.1830  0.1464  0.1192
29875W        W46722  11.216  19.129  12.653  0.0954 -0.2829 -0.0742
29876W        W46723  13.121  15.641   2.145  0.2435 -0.0557  0.2743
29877W        W46724  15.298  10.283  11.817 -0.3890  0.0158 -0.2054
29878W        W46725   0.974   1.568   0.821 -0.4169  0.1263  0.0142
29879W        W46726  11.949  10.082   0.409  0.0234  0.1262  0.3620
29880W        W46727  16.669  16.824  13.023  0.0143  0.1032 -0.0617
29881W        W46728   2.031  18.766   0.336  0.0990  0.0241  0.0988
29882W        W46729  12.430  17.121   4.708  0.2160 -0.0766 -0.2291
29883W        W46730   2.962  13.306   2.021 -0.0462  0.0047  0.3566
29884W        W46731  13.104  14.596   9.961 -0.1181  0.0042 -0.2179
29885W        W46732  15.266   0.847   4.447  0.1702  0.2203 -0.1321
29886W        W46733   3.095  17.107  10.530 -0.1280  0.2000 -0.0752
29887W        W46734   1.386   3.838   2.871  0.3030  0.1796 -0.0588
29888W        W46735  11.984   1.028  13.031 -0.0173 -0.0733 -0.1300
29889W        W46736   7.501  19.201  11.270 -0.0344  0.1140  0.0824
29890W        W46737  13.450  11.615  12.161  0.0007 -0.2842  0.0736
29891W        W46738   7.128   7.938  12.090  0.0334 -0.2394  0.1890
29892W        W46739   0.258   8.143  13.499  0.2992  0.2164 -0.1270
29893W        W46740  14.166   1.787  10.586  0.1240  0.1541  0.1479
29894W        W46741   3.280  11.416   5.353 -0.0638  0.0572 -0.0066
29895W        W46742   6.441   9.826   4.759 -0.1146 -0.2914  0.0283
29896W        W46743  16.756  17.390  12.913  0.3695 -0.2409 -0.3591
29897W        W46744   5.835  13.747  12.783 -0.0009  0.1891 -0.2901
29898W        W46745  14.151   2.633   0.514 -0.2881  0.2256 -0.1906
29899W        W46746   4.387   1.447   1.812  0.1544  0.3058 -0.2664
29900W        W46747  10.504  15.276  13.317  0.2119  0.1170  0.0437
29901W        W46748   9.143  12.482   0.001  0.2309 -0.0560  0.0850
29902W        W46749  10.813  17.443   9.970 -0.0445 -0.0444  0.1813
29903W        W46750   5.814   6.182  14.167 -0.2439 -0.0155  0.1486
29904W        W46751   3.405  15.512   3.833 -0.0344  0.0049  0.2496
29905W        W46752  12.677   6.701  11.190  0.3827 -0.1048  0.0940
29906W        W46753  11.191  10.736   1.095  0.3314  0.1691 -0.1958
29907W        W46754  16.828   3.217   4.821  0.1165  0.0334  0.2346
29908W        W46755   8.356  10.971   2.409 -0.1691  0.2157 -0.0686
29909W        W46756   1.071   6.933   2.876  0.2251  0.3625  0.3341
29910W        W46757  10.300   8.531   3.521 -0.0320 -0.0209 -0.0282
29911W        W46758   7.539   2.527  11.852 -0.1196 -0.1072 -0.3076
29912W        W46759  17.575  13.593   3.309 -0.0342 -0.1998 -0.2059
29913W        W46760  17.176  12.812  12.568  0.1083  0.0094 -0.1731
29914W        W46761   9.092   2.200  14.325 -0.0208  0.0516 -0.4494
29915W        W46762  18.110  15.174   0.935  0.3815  0.1184  0.0762
29916W        W46763   7.742  11.237   4.461 -0.0803 -0.0498  0.2881
29917W        W46764  10.360   1.036   1.769 -0.2618 -0.2499 -0.0711
29918W        W46765  18.554   2.968   4.513  0.1185  0.0369  0.0853
29919W        W46766   7.176  19.253   4.094 -0.0014 -0.0776  0.0174
29920W        W46767   7.982  15.263  12.391 -0.3100  0.2478 -0.5076
29921W        W46768  17.518  14.941   0.442 -0.2376 -0.0422 -0.3763
29922W        W46769  10.400  17.626   3.386  0.0656 -0.1594  0.0664
29923W        W46770   7.769   3.515   1.222 -0.1871  0.0213  0.0753
29924W        W46771   7.279   8.452   0.767  0.1294  0.1750  0.1796
29925W        W46772   2.476   3.089   2.789 -0.1085  0.1219 -0.2432
29926W        W46773  14.491   5.294  14.490 -0.4489 -0.0839  0.0351
29927W        W46774  15.770  18.505   0.092 -0.1621 -0.0864 -0.1916
29928W        W46775   4.984  15.476   2.796  0.0286  0.1020 -0.1548
29929W        W46776   1.443  13.672  14.116 -0.0892  0.0080  0.1693
29930W        W46777  16.520  13.024  14.680  0.1154  0.0370 -0.0004
29931W        W46778   3.276   2.407  13.416 -0.0984 -0.1669  0.1991
29932W        W46779  17.480  17.866  11.234 -0.0057 -0.0998 -0.2771
29933W        W46780  10.063  15.610  13.228  0.0042 -0.3745  0.1448
29934W        W46781   7.268   0.757   0.273  0.1228 -0.2447  0.1515
29935W        W46782   6.939   4.891   1.978 -0.2083  0.1619 -0.2214
29936W        W46783   4.960  16.056  10.664 -0.0907  0.0946 -0.1825
29937W        W46784  14.260  17.397   0.845 -0.5983  0.0693 -0.3099
29938W        W46785   0.601   2.053  12.876  0.0034  0.1602 -0.0556
29939W        W46786  12.443  11.586   3.929 -0.1086 -0.1981 -0.0396
29940W        W46787  18.286  13.991   0.553 -0.3008 -0.1941 -0.0531
29941W        W46788   1.178   4.356  11.584 -0.0277  0.1040 -0.3007
29942W        W46789  14.350  12.692   3.592 -0.1264  0.1588  0.2176
29943W        W46790  15.388  17.901  12.214 -0.0993 -0.4510 -0.0577
29944W        W46791  14.600  18.736   2.175  0.1108  0.0961 -0.2804
29945W        W46792   3.822   8.038  12.309 -0.3314 -0.2334 -0.0730
29946W        W46793   5.572  13.385   2.175  0.1186  0.2587 -0.0137
29947W        W46794  13.146   0.175   0.556 -0.0240  0.0985 -0.1496
29948W        W46795   4.168   3.668  13.871 -0.2495  0.1944  0.0737
29949W        W46796   4.029  19.052   2.359 -0.0047  0.0367 -0.2146
29950W        W46797  15.302   8.872   5.172  0.1573 -0.0198  0.0489
29951W        W46798  16.426  13.898   5.068  0.0203 -0.1635 -0.2023
29952W        W46799   9.629   4.194   2.390  0.1607  0.0786  0.0031
29953W        W46800  15.572  15.937   0.030  0.2154 -0.1112 -0.0660
29954W        W46801   5.675   0.056  11.703  0.0912  0.0282 -0.0604
29955W        W46802   8.364   8.534  13.154  0.2213 -0.2157 -0.1226
29956W        W46803  18.346   9.073  13.658  0.1159 -0.0315 -0.1184
29957W        W46804   5.823   8.123   3.901 -0.0431 -0.1292  0.2305
29958W        W46805   8.295   4.982   4.661 -0.2427  0.1365 -0.3832
29959W        W46806  14.597  18.401  13.208  0.2506 -0.1802 -0.3606
29960W        W46807  12.594   7.113  14.444 -0.1908  0.2289  0.0826
29961W        W46808   0.719   9.107   1.087  0.3707  0.0556 -0.0279
29962W        W46809  11.031  10.216   0.993 -0.1308  0.1028  0.3044
29963W        W46810   8.785   7.643   1.497  0.3034  0.0299  0.0361
29964W        W46811   3.730   6.112  14.932  0.1146 -0.0415  0.1656
29965W        W46812  19.060   6.577   2.014 -0.0592  0.0448 -0.2548
29966W        W46813  16.040   9.374  13.373 -0.0438 -0.0462 -0.0270
29967W        W46814   4.429  17.734  12.146 -0.4462  0.2754 -0.2516
29968W        W46815   5.420  14.795  11.128  0.1381  0.2752 -0.0220
29969W        W46816  11.632   6.891  10.131  0.0467  0.3023  0.1999
29970W        W46817  15.024   9.058   2.598  0.0381 -0.2675 -0.1132
29971W        W46818  10.339  16.054  15.011  0.1739  0.0416 -0.0331
29972W        W46819   5.188   2.671   3.399  0.0098 -0.0313  0.0347
29973W        W46820   8.487   8.386   0.077  0.3235  0.0441 -0.1007
29974W        W46821  18.488   6.127  13.720  0.3981  0.0285 -0.1627
29975W        W46822   3.900   0.192   4.742 -0.1522 -0.2323  0.0295
29976W        W46823   3.795   1.502  11.573  0.1203  0.0677 -0.2176
29977W        W46824   1.992  13.911  10.864  0.3489  0.0832 -0.1257
29978W        W46825  16.887  14.340   3.258  0.0992  0.3778 -0.2876
29979W        W46826   4.659   1.275   4.246  0.2268 -0.2450 -0.2649
29980W        W46827  15.383   7.908  13.763  0.1090  0.1245 -0.1614
29981W        W46828   1.018  12.054   5.445 -0.0702 -0.0207  0.1496
29982W        W46829  11.132   0.422   5.170 -0.1250 -0.1823 -0.1469
29983W        W46830  11.032   1.367   0.630  0.1934 -0.1044 -0.1557
29984W        W46831   0.234   7.250  10.278  0.0930 -0.0995 -0.3698
29985W        W46832  13.028   4.544  11.824  0.0261  0.0746 -0.3060
29986W        W46833  14.033  18.360  13.161 -0.0269  0.0910  0.2167
29987W        W46834  18.606  13.685  13.838  0.0152  0.1018 -0.2398
29988W        W46835   1.006  16.558   3.326  0.0712  0.3376 -0.1073
29989W        W46836   3.585   5.318   0.412  0.1662  0.0491 -0.0563
29990W        W46837  10.313  10.832  10.424  0.2760  0.0490  0.2196
29991W        W46838  11.501  18.091   4.246  0.2800 -0.0126  0.0515
29992W        W46839   8.809   6.063  14.283  0.1426  0.0091  0.0518
29993W        W46840   6.623  18.417   4.165  0.2453  0.0226 -0.3626
29994W        W46841  18.320   8.025   4.637 -0.1314 -0.0759  0.0173
29995W        W46842   2.658  13.756   0.142 -0.0200 -0.2544  0.1276
29996W        W46843   7.237  15.211   3.204 -0.0358  0.4197  0.1997
29997W        W46844   5.183  11.773  11.006 -0.0432 -0.2686  0.0193
29998W        W46845   8.872   4.723   4.566  0.0764 -0.2393 -0.0202
29999W        W46846  12.733   4.229  11.014  0.3504  0.3564 -0.1473
30000W        W46847   9.420   0.261  12.057 -0.0379 -0.1752 -0.1642
30001W        W46848   3.230  17.963  14.806  0.2187 -0.0484  0.0572
30002W        W46849   4.547  10.636   0.310  0.5695  0.0291 -0.2631
30003W        W46850   2.876   7.031   1.800  0.1756  0.0397  0.0061
30004W        W46851   8.688   3.852   1.121 -0.1254 -0.2186  0.0540
30005W        W46852   3.480   5.905  11.803  0.1698  0.2099  0.4104
30006W        W46853   6.555   6.974   1.526 -0.0637  0.3708 -0.0788
30007W        W46854   7.800   2.937   3.011 -0.1245  0.0648  0.2364
30008W        W46855  10.341  18.506  12.031 -0.3102  0.0802 -0.1531
30009W        W46856   4.139   7.610  10.715 -0.2716  0.0232 -0.1100
30010W        W46857  13.101  18.699  12.672  0.1512  0.0000  0.1645
30011W        W46858  14.874  10.543   0.706 -0.1086 -0.1594  0.2272
30012W        W46859   6.901   3.267  14.282  0.0887 -0.4126 -0.0828
30013W        W46860  16.184  13.308   0.754 -0.1024 -0.1267  0.1231
30014W        W46861   9.702   0.590   5.446  0.1781  0.3157 -0.1859
30015W        W46862  14.592  17.945   1.801 -0.0397 -0.0901 -0.1844
30016W        W46863   7.570  12.376  12.834  0.0691 -0.1180  0.2827
30017W        W46864   5.829   3.867  13.331 -0.1741 -0.2355  0.1694
30018W        W46865   1.924  15.853   0.917 -0.0896  0.1436  0.0830
30019W        W46866   6.193   3.371  14.658 -0.2952 -0.1798  0.0288
30020W        W46867  17.444   9.768   1.482  0.2636 -0.1170 -0.0278
30021W        W46868  16.699  18.717  14.507 -0.2590 -0.2233  0.0503
30022W        W46869  14.012  12.259  11.239  0.2379  0.1671  0.2661
30023W        W46870  19.075  13.715  12.882  0.4711 -0.0049 -0.0581
30024W        W46871   6.476   9.406  12.195  0.1751 -0.0816 -0.0721
30025W        W46872  13.173   2.510  10.146 -0.1132  0.1524 -0.2405
30026W        W46873   7.871   6.445   2.025  0.0098  0.2048  0.1313
30027W        W46874   9.916   2.493   2.543 -0.1872 -0.1271 -0.0552
30028W        W46875   1.553   6.089   4.143  0.1446 -0.1476 -0.0368
30029W        W46876   3.003   3.103   1.273 -0.0846 -0.1309 -0.0454
30030W        W46877  12.456   4.361   5.317  0.1897  0.2484  0.3027
30031W        W46878  12.473  12.119   0.693 -0.2341 -0.0817 -0.2131
30032W        W46879  13.001  12.807   3.970 -0.2189 -0.0525 -0.0016
30033W        W46880  15.113   8.063   2.619  0.1436 -0.2724  0.3632
30034W        W46881   5.206   9.940   4.036 -0.1321 -0.3491 -0.1207
30035W        W46882  11.083   3.591  12.831  0.1739  0.1939  0.1408
30036W        W46883  10.677  10.862  14.415  0.1037  0.1778  0.2302
30037W        W46884   7.910   6.232   3.080 -0.2360  0.3102  0.1466
30038W        W46885   6.059   5.724   2.662 -0.0080  0.1089 -0.1511
30039W        W46886  18.072   3.431  12.570 -0.1488 -0.0212  0.2318
30040W        W46887   7.153  19.131   0.624 -0.1137  0.0648  0.3802
30041W        W46888  10.738   4.415   4.848 -0.1396 -0.1236 -0.0948
30042W        W46889  16.695   5.465  11.540 -0.3003 -0.0130 -0.0468
30043W        W46890  17.561   3.089   3.740  0.0437 -0.1764 -0.1508
30044W        W46891   0.303   7.343  13.143  0.2551  0.0853  0.1443
30045W        W46892  13.144   0.528   2.376  0.0655  0.1922  0.2343
30046W        W46893  14.894  17.457  11.637 -0.0114  0.1087 -0.1331
30047W        W46894   4.227   4.832  12.847  0.1480 -0.3316 -0.0180
30048W        W46895   9.408  12.029   3.941 -0.0198 -0.0951  0.0649
30049W        W46896  13.218  12.467  11.745 -0.0405  0.4293 -0.1182
30050W        W46897   9.874   7.148   2.187 -0.0066 -0.1915 -0.0071
30051W        W46898  13.408  10.216  12.266  0.0753 -0.1621 -0.0381
30052W        W46899  15.652  12.153   1.165  0.1633  0.0931 -0.1849
30053W        W46900  16.755  18.775  11.227 -0.1306  0.0837 -0.0026
30054W        W46901  12.286   2.162   3.444 -0.1724 -0.0933  0.1232
30055W        W46902   9.489  12.473   0.485  0.1832 -0.2508 -0.4188
30056W        W46903   9.296  14.036  10.531  0.2006 -0.2711 -0.1006
30057W        W46904   8.381   3.851  14.185  0.0850 -0.2381  0.0792
30058W        W46905  13.431   5.724   3.584  0.1011  0.2513 -0.0309
30059W        W46906   1.544   2.060  11.569 -0.2371  0.0313 -0.3359
30060W        W46907   0.353  13.295   2.845  0.0663 -0.1718 -0.0840
30061W        W46908   8.935   2.076  13.584  0.0683 -0.0185  0.0149
30062W        W46909  13.051  14.483   4.776  0.0325  0.0421  0.2184
30063W        W46910   4.922   0.970   0.507 -0.0114 -0.0687  0.1238
30064W        W46911   8.377  10.450   4.376 -0.1192  0.0322  0.2274
30065W        W46912   0.598   8.172   4.494  0.2480 -0.1894 -0.0980
30066W        W46913   6.998  17.338  14.781 -0.2179  0.1983  0.0609
30067W        W46914  16.323  11.360   0.349  0.2752 -0.0058  0.5958
30068W        W46915   0.864  16.885   9.742  0.2456  0.0895  0.1338
30069W        W46916  13.075   6.094  14.964  0.2412 -0.1796  0.0659
30070W        W46917  14.328   1.605   0.800 -0.1134  0.0995 -0.0706
30071W        W46918  19.110   0.456  14.781  0.3466  0.0422 -0.1866
30072W        W46919  15.293  12.391   0.192  0.0976  0.0188 -0.2744
30073W        W46920   2.912   9.418   3.689 -0.4665  0.0416 -0.0037
30074W        W46921  12.500   4.119   4.411  0.1645 -0.2375  0.4350
30075W        W46922   4.431  10.247   2.721 -0.0916  0.0981 -0.1857
30076W        W46923  15.065   9.703  13.574  0.0293 -0.3226 -0.2061
30077W        W46924   6.128   4.108  12.631 -0.0489 -0.0503  0.1695
30078W        W46925  16.457   4.145  10.232  0.3696  0.0763 -0.1991
30079W        W46926   9.852   9.072   1.879 -0.1292  0.4025  0.1860
30080W        W46927  17.390  14.825  14.294 -0.0588  0.1249 -0.0495
30081W        W46928   3.078   3.659  14.598 -0.1126 -0.0260  0.0797
30082W        W46929  13.009   3.449   3.951  0.1145 -0.2318 -0.1716
30083W        W46930  16.333  14.216  10.909 -0.0779 -0.0033  0.0223
30084W        W46931   2.924   3.687   1.310  0.2073 -0.0432  0.1072
30085W        W46932   9.554   4.643  12.206 -0.1057  0.0981  0.1441
30086W        W46933  10.960  17.092  14.535 -0.0174  0.1041  0.0326
30087W        W46934  14.975  16.275  13.447  0.1553  0.0979  0.0267
30088W        W46935  11.167   4.316  14.996  0.1814  0.0524 -0.3235
30089W        W46936  18.576  15.491  13.697 -0.0528  0.0253  0.2324
30090W        W46937   1.164   3.832  10.362 -0.1421  0.0002 -0.0611
30091W        W46938   4.998  14.618   1.425  0.1267  0.0148 -0.1987
30092W        W46939  14.472  17.061  11.646 -0.1481  0.3536  0.2871
30093W        W46940  13.939   6.048   3.840 -0.0757  0.1204 -0.1693
30094W        W46941   3.365  10.513  13.364  0.0637  0.1877  0.0397
30095W        W46942   9.814   3.512   1.821  0.0364  0.0503 -0.1047
30096W        W46943   4.581  11.625  13.954  0.2101 -0.1408  0.1845
30097W        W46944  10.950  15.952   1.498 -0.1914  0.0964 -0.2929
30098W        W46945   9.376  15.720   3.126 -0.1408  0.0145 -0.0806
30099W        W46946  11.293   7.289   3.534 -0.1149 -0.4677  0.1222
30100W        W46947   5.091   4.454  14.316  0.0285  0.1561  0.1074
30101W        W46948   1.101   1.295  14.256  0.2476 -0.1174  0.2299
30102W        W46949  19.260   4.392   0.674 -0.2218 -0.0548  0.2036
30103W        W46950  14.644   8.447   3.892 -0.2365 -0.3284 -0.2494
30104W        W46951   6.621   2.643   1.089  0.1050  0.0694  0.5407
30105W        W46952   7.843   4.079   3.508 -0.0558 -0.0190 -0.2149
30106W        W46953  10.979  10.621  11.163  0.2977  0.0030  0.0667
30107W        W46954  14.947   9.497   4.541  0.0811 -0.1852 -0.0641
30108W        W46955  15.924  18.032   0.306  0.0021 -0.2663  0.1155
30109W        W46956   1.460   4.598   2.201 -0.1417  0.3081 -0.2690
30110W        W46957  15.313  15.508  11.548 -0.0857  0.3247  0.2168
30111W        W46958  18.481   2.421   1.858 -0.1461  0.1928  0.0976
30112W        W46959  16.519  10.701   0.560  0.4317  0.1577  0.0107
30113W        W46960   3.712   2.034  11.627 -0.2926 -0.3258  0.2278
30114W        W46961   8.080   4.304  11.630 -0.0387 -0.0341 -0.2298
30115W        W46962   8.949  16.227  13.984  0.0647 -0.2741  0.1102
30116W        W46963  14.398  14.198  14.114  0.1989  0.0982  0.0049
30117W        W46964   4.920  15.186  13.632  0.2895  0.0178 -0.1038
30118W        W46965   9.557  11.586   0.010 -0.2831  0.3015 -0.1442
30119W        W46966   8.823   2.871  13.042  0.1313 -0.0216  0.3069
30120W        W46967  11.496  10.937  12.515  0.4095  0.2528 -0.0522
30121W        W46968  18.419   8.979  14.621  0.0343  0.2370 -0.0569
30122W        W46969  14.455   3.451   3.312  0.0552 -0.0258  0.0623
30123W        W46970   4.058  15.037   2.642 -0.0501 -0.0938 -0.4049
30124W        W46971  14.812   6.490   2.957  0.2020 -0.2313  0.2022
30125W        W46972  14.232   3.229  12.465  0.0898  0.2693  0.2887
30126W        W46973   4.873   6.753  11.636 -0.0619 -0.1607 -0.0692
30127W        W46974   1.576  18.411  13.981  0.0743 -0.1505 -0.1526
30128W        W46975   5.969  15.394   1.061  0.1675  0.0906  0.3415
30129W        W46976  16.847  11.469  11.093  0.1834 -0.2953 -0.1454
30130W        W46977  17.197   4.169   1.261 -0.2145 -0.0114 -0.0403
30131W        W46978   8.303   1.801  14.138 -0.0556  0.0222  0.1383
30132W        W46979  17.447   0.513   3.451 -0.0205 -0.1476 -0.1988
30133W        W46980  10.905  10.583  13.481 -0.4475  0.0656  0.1786
30134W        W46981   4.098   4.612  10.774  0.0432  0.4331 -0.3170
30135W        W46982   4.326   7.887  12.860 -0.0172  0.2651  0.0157
30136W        W46983  13.375  13.367   4.541 -0.1310 -0.0518 -0.0209
30137W        W46984   4.724  14.827   4.600  0.2520  0.0725 -0.0542
30138W        W46985  12.473  18.771   3.956  0.0166  0.1162  0.1860
30139W        W46986   3.278  11.548   4.546 -0.0938 -0.2384 -0.4437
30140W        W46987   6.882   4.625   1.486  0.1437 -0.0356 -0.0208
30141W        W46988  12.893   8.406  14.564 -0.3250  0.3227 -0.2332
30142W        W46989  10.356  12.183   5.246 -0.0643  0.0076 -0.1143
30143W        W46990   6.557  13.875   2.797 -0.1358 -0.1488  0.2672
30144W        W46991   1.585   9.142  14.327 -0.2201 -0.1702  0.0294
30145W        W46992   6.886  10.616  13.387 -0.2568  0.1911  0.3021
30146W        W46993   8.259   0.181   2.595  0.1885  0.0522 -0.0976
30147W        W46994  11.767   7.778  11.429 -0.0644  0.0648 -0.1600
30148W        W46995  11.259  12.040  12.919  0.0674  0.1509  0.0969
30149W        W46996   4.430   1.382  12.558  0.0250 -0.3005 -0.1022
30150W        W46997  13.900   5.049   1.084  0.0677 -0.1595 -0.0220
30151W        W46998  19.194   2.257  14.912  0.0659 -0.2760  0.1904
30152W        W46999  11.455   5.898  13.994  0.1223  0.3072 -0.0850
30153W        W47000  18.036   8.345   4.963 -0.4482 -0.0226  0.5249
30154W        W47001   4.603   9.765   0.053 -0.3376  0.0247  0.1445
30155W        W47002   6.810   7.764  13.738 -0.1319 -0.4179 -0.0210
30156W        W47003  18.795  10.924   1.441 -0.0781 -0.2580  0.0246
30157W        W47004  19.167  18.640  12.905  0.2725 -0.2095 -0.0887
30158W        W47005   7.476  10.293  12.741  0.0235 -0.1666  0.0597
30159W        W47006  18.976  11.953  12.891  0.2271  0.0110  0.1800
30160W        W47007   6.722   3.936   2.407  0.1888 -0.0359  0.1538
30161W        W47008   1.277  14.977  13.994  0.0369  0.0679  0.2472
30162W        W47009   9.306   3.717  11.189 -0.0487 -0.3068 -0.2760
30163W        W47010   4.979   6.034   1.093 -0.0117 -0.0903  0.0334
30164W        W47011  16.592  15.387   4.820 -0.1194 -0.3162  0.1549
30165W        W47012  11.726   1.048  12.014  0.1185  0.1751  0.1479
30166W        W47013  18.402   4.592   3.893 -0.0572  0.0881  0.4064
30167W        W47014   5.787  11.392   3.996 -0.0502 -0.1649  0.3151
30168W        W47015   5.260  10.386  11.480  0.0710  0.1089  0.0270
30169W        W47016  16.930  15.193  12.143 -0.0794 -0.1114  0.2594
30170W        W47017   6.219   0.242   3.712 -0.0614  0.0327 -0.5998
30171W        W47018   3.514  18.708   3.782 -0.0797 -0.0920  0.1381
30172W        W47019  10.926  15.889  11.635  0.0702  0.0171 -0.1514
30173W        W47020   8.208   3.445   9.136 -0.1588  0.0626  0.1336
30174W        W47021   7.179   2.913  14.514 -0.2636  0.2091 -0.0413
30175W        W47022   6.215  15.125   2.245 -0.3045 -0.1511  0.0827
30176W        W47023  16.557   4.904   3.095  0.1545  0.2222 -0.1069
30177W        W47024   7.292  12.814   1.919  0.0159 -0.3930 -0.2320
30178W        W47025  10.068   9.646   0.621 -0.0703  0.2234  0.1127
30179W        W47026  11.170  15.425   1.502  0.1097  0.1957  0.1708
30180W        W47027  15.556  10.204  13.327 -0.3723  0.3193  0.1483
30181W        W47028   5.505  10.817   0.489 -0.2188 -0.2193 -0.1136
30182W        W47029  17.715  17.385   2.394  0.0709 -0.3838  0.0978
30183W        W47030   1.994  18.697   2.422 -0.0943  0.0510  0.2657
30184W        W47031  13.799   8.001  11.747  0.4540 -0.0111 -0.0283
30185W        W47032   0.699  10.967  13.996 -0.1483 -0.3837  0.0534
30186W        W47033   7.204  18.665  14.600 -0.1394  0.0796 -0.3577
30187W        W47034   4.381  16.723  14.295  0.0452  0.2020 -0.1959
30188W        W47035   9.738  14.263  12.101  0.2024 -0.2384  0.1212
30189W        W47036  15.831  14.684  14.117 -0.1813  0.0427 -0.1133
30190W        W47037  16.244   2.727  11.080 -0.4570  0.1357 -0.0576
30191W        W47038  17.438   4.551  13.226  0.0065 -0.0767  0.0002
30192W        W47039   2.944   2.802   4.497 -0.1338  0.0128 -0.2069
30193W        W47040  17.437  17.395   0.576  0.2628 -0.1115 -0.0866
30194W        W47041   2.313  18.749  12.933  0.1047 -0.3027  0.1493
30195W        W47042  13.726   8.642   2.173 -0.0559  0.0766 -0.4730
30196W        W47043  10.642  10.968  13.341  0.2244  0.0624 -0.1259
30197W        W47044  13.262   1.429   5.987 -0.1100 -0.1870  0.2149
30198W        W47045  12.290  15.468   4.089  0.2113 -0.0152 -0.1618
30199W        W47046  10.301  17.997  14.452 -0.0302  0.0146 -0.0746
30200W        W47047   9.264  10.114   0.573 -0.3329 -0.2322 -0.1225
30201W        W47048  10.339   2.211   1.578  0.2263  0.1148  0.0703
30202W        W47049   9.094  16.396   2.625 -0.3303 -0.1968  0.0013
30203W        W47050  12.719  16.679   3.864  0.1248 -0.2015  0.3135
30204W        W47051   8.394   2.859   3.854  0.0677 -0.1799  0.0381
30205W        W47052  11.240   8.286  14.397  0.0897 -0.3071 -0.0580
30206W        W47053   1.473  17.050  11.532  0.0456 -0.0638 -0.1293
30207W        W47054   7.558   1.086   0.958 -0.2105 -0.1563  0.1313
30208W        W47055   7.550  12.485   1.426  0.3626 -0.0086 -0.2667
30209W        W47056  18.236   7.258   5.778 -0.1738 -0.1558  0.3420
30210W        W47057  14.209  10.600  14.323 -0.0888 -0.0396  0.1849
30211W        W47058   6.028  19.065  14.698 -0.1683 -0.1461 -0.2027
30212W        W47059   7.489  10.680   4.474 -0.3150 -0.0821 -0.0745
30213W        W47060  17.946  18.347  13.446 -0.3646  0.0252 -0.1990
30214W        W47061  17.109   4.151  14.916  0.1022  0.0001  0.0981
30215W        W47062   0.052   4.161   3.477 -0.2493 -0.2828  0.0887
30216W        W47063   2.499   5.988  12.733  0.3713  0.2598 -0.1461
30217W        W47064  14.769   6.067   3.374  0.1284 -0.1429 -0.1034
30218W        W47065  12.941   0.596  14.636 -0.0960 -0.1643 -0.1381
30219W        W47066   4.475   2.446   2.965  0.1843 -0.0623 -0.0052
30220W        W47067  13.232   3.729   3.457 -0.0362  0.2492 -0.0261
30221W        W47068   4.374   4.744   2.919 -0.0063  0.1227 -0.1043
30222W        W47069  18.291   6.265   9.624  0.0077 -0.3450  0.3466
30223W        W47070   8.043   3.957  12.045  0.0304 -0.0009 -0.2085
30224W        W47071   5.595   4.257   1.664 -0.1098  0.3508 -0.6824
30225W        W47072   2.597  11.708   2.722  0.1680 -0.0142  0.0562
30226W        W47073   2.867   6.925  13.719  0.0844  0.0654  0.1433
30227W        W47074   3.072   2.558   5.092 -0.0783  0.0687  0.0351
30228W        W47075   9.284  15.643  10.341 -0.0771 -0.0908 -0.0556
30229W        W47076   4.587   3.979  14.077 -0.0992 -0.1887 -0.1478
30230W        W47077   9.155  16.487  11.262 -0.0306  0.1967  0.0749
30231W        W47078  13.930   4.413   3.992  0.1158 -0.2172 -0.1910
30232W        W47079   8.524  15.704   4.877  0.1405  0.1630 -0.2850
30233W        W47080  15.347  15.986  14.415 -0.0926  0.2381 -0.2348
30234W        W47081   5.445  10.513   4.087  0.3643 -0.0817  0.0702
30235W        W47082  17.392  11.558  13.121 -0.0277 -0.0873  0.0678
30236W        W47083   6.417  19.015  14.961 -0.2203  0.1919 -0.1136
30237W        W47084   2.158  13.589   0.322  0.0975 -0.2703  0.0663
30238W        W47085   4.771  12.531   2.926  0.3015 -0.1338  0.1567
30239W        W47086   3.188   8.550  12.794  0.1562 -0.0854  0.1039
30240W        W47087  15.857  15.160   3.813 -0.3401  0.2972 -0.3035
30241W        W47088   1.645   1.589   4.053 -0.0674  0.0893 -0.0254
30242W        W47089  10.718   6.750   2.957 -0.0680 -0.1172  0.2848
30243W        W47090   5.687   2.472   5.121 -0.3467  0.1028  0.0620
30244W        W47091   9.590   0.779   0.368  0.0131 -0.1077 -0.2759
30245W        W47092   0.630   2.351  14.299 -0.0051  0.3954 -0.1595
30246W        W47093  10.988  15.572   4.979  0.3102 -0.0500 -0.1723
30247W        W47094  13.876   7.059  14.667 -0.2689 -0.3063 -0.3029
30248W        W47095  15.789  12.945   0.990  0.0164 -0.1594 -0.0997
30249W        W47096  18.250  10.422   0.521  0.0095  0.5176 -0.1466
30250W        W47097  16.706  18.183   4.697 -0.2059  0.1397 -0.2661
30251W        W47098   7.227   5.119  13.925  0.2118 -0.0002  0.0882
30252W        W47099  18.376  10.668   4.231 -0.0874  0.1252 -0.0400
30253W        W47100  11.414  11.513   4.159 -0.1944 -0.0276  0.0746
30254W        W47101   2.596  13.056   2.920  0.2757 -0.1142  0.3411
30255W        W47102   5.107  14.764   2.718 -0.1169  0.0839  0.0720
30256W        W47103  14.635  14.597  14.263  0.2351 -0.2376 -0.0785
30257W        W47104   0.469  11.905   2.238  0.0226  0.1128 -0.2687
30258W        W47105  19.223  18.415  13.328 -0.0716 -0.1903 -0.0476
30259W        W47106  12.875  10.803  10.376 -0.3599 -0.0642 -0.2790
30260W        W47107   5.916  10.355   3.710  0.1738  0.3910 -0.1775
30261W        W47108  12.082   1.873   2.642  0.0093 -0.3106  0.0979
30262W        W47109   3.664  15.666  13.342 -0.0326  0.1921  0.2773
30263W        W47110  10.099  11.076  11.843 -0.1121  0.3607  0.1830
30264W        W47111   2.615  11.012  13.447 -0.2365  0.0435 -0.2216
30265W        W47112  13.051   3.291   0.035 -0.0916 -0.0913 -0.1518
30266W        W47113  12.074   3.752   0.843 -0.0274  0.2501  0.0074
30267W        W47114  16.679   0.826   1.911  0.1053 -0.0953  0.0550
30268W        W47115   6.780  14.569   1.171  0.2805  0.0392  0.2804
30269W        W47116  11.671  15.688   2.198 -0.1706  0.0398 -0.0069
30270W        W47117  12.079  13.953   3.404  0.1169  0.2925  0.2321
30271W        W47118   0.985  13.624   3.477 -0.1289 -0.0024  0.2070
30272W        W47119  15.336  12.098   0.720 -0.1851  0.0484 -0.0694
30273W        W47120   4.607  13.211   5.039  0.0345  0.0820 -0.0594
30274W        W47121  14.409  17.890   2.331 -0.2036 -0.2381 -0.1353
30275W        W47122   6.203   2.604  12.214 -0.1149 -0.0272 -0.0344
30276W        W47123   8.245  15.901   0.845 -0.0315  0.1239 -0.0392
30277W        W47124   1.119   9.466  12.413  0.0826  0.1867 -0.3511
30278W        W47125   2.250   0.812   3.362 -0.1152 -0.0012  0.1225
30279W        W47126  10.781   0.064   4.799  0.1991 -0.1178 -0.2576
30280W        W47127   0.349  10.616  11.005  0.1070  0.0772  0.0564
30281W        W47128   0.019  11.981   3.665 -0.1513 -0.3378 -0.1429
30282W        W47129   3.155  15.782  12.280  0.1146 -0.1559 -0.2460
30283W        W47130   0.153  17.303   3.095  0.3072  0.1041  0.1000
30284W        W47131   4.813   2.066  13.149  0.2188 -0.1281 -0.2560
30285W        W47132   8.944   4.484  10.344 -0.1187  0.1132  0.0533
30286W        W47133  19.259  13.145  12.425  0.1953 -0.1935  0.0192
30287W        W47134  17.453   3.030   4.290 -0.0915  0.2281  0.0958
30288W        W47135   3.868  11.084   3.829  0.2988 -0.0564 -0.1081
30289W        W47136   6.575   8.449  14.051 -0.0692 -0.1790  0.3551
30290W        W47137  11.699  13.940  14.788  0.3267 -0.2410  0.2253
30291W        W47138  10.014   5.902  13.955 -0.0764 -0.1004 -0.2459
30292W        W47139   8.133   1.466   1.807  0.0108 -0.1564 -0.1362
30293W        W47140  11.063   0.216   1.542 -0.0411  0.0130 -0.0919
30294W        W47141   0.536  15.094  10.629  0.0959 -0.0499 -0.0750
30295W        W47142   3.978  12.001  10.862  0.2448 -0.0128  0.0569
30296W        W47143  17.540  19.144   4.295  0.0807 -0.2946 -0.1939
30297W        W47144  15.924   2.857   4.323 -0.2543  0.2085  0.5243
30298W        W47145  12.481  10.757   0.619  0.1763 -0.4543 -0.1339
30299W        W47146   8.842  17.465   5.273  0.0854  0.0240 -0.1560
30300W        W47147   3.128   6.815  10.121 -0.0979  0.1060 -0.5180
30301W        W47148   2.313  16.678   0.633  0.4297  0.2017 -0.0480
30302W        W47149   7.564   1.355  12.906  0.1992 -0.0807 -0.0988
30303W        W47150   2.034   5.580   0.846  0.4225  0.0170 -0.1083
30304W        W47151  13.235  10.203  12.869  0.4901  0.1660  0.3078
30305W        W47152  15.293  12.573  13.102 -0.1135 -0.1645  0.4714
30306W        W47153   0.317   6.202  14.587 -0.0282 -0.1661  0.0995
30307W        W47154  16.035   0.133   0.911  0.1086 -0.1793  0.1078
30308W        W47155   9.011   1.465   2.130 -0.0665  0.1105  0.3042
30309W        W47156   1.751   0.572   0.424  0.0515 -0.0863  0.0954
30310W        W47157  18.261   3.450   1.832  0.2231  0.2894  0.4406
30311W        W47158  18.116  18.573  14.440  0.2667  0.1162  0.1322
30312W        W47159  18.403   7.440  10.762 -0.0549 -0.1537  0.1161
30313W        W47160   7.410   7.434  12.969 -0.1497  0.2313  0.1380
30314W        W47161   0.803   6.644   2.088 -0.0915 -0.1499 -0.0737
30315W        W47162   1.993  17.763  11.342 -0.0209  0.1711  0.1748
30316W        W47163   6.211  13.164   4.136 -0.0772 -0.0493  0.0405
30317W        W47164  11.279   9.556  15.007  0.0394  0.0235  0.0675
30318W        W47165   1.653   4.732   0.896 -0.0183  0.2816 -0.2359
30319W        W47166  15.455   8.478  11.649  0.0006  0.1343  0.2623
30320W        W47167   9.903   2.071   0.117 -0.0217 -0.0952  0.0955
30321W        W47168  18.971   8.161   3.962 -0.0191  0.0229 -0.1426
30322W        W47169   5.378   6.365   3.356  0.2708  0.2945  0.4333
30323W        W47170   2.394   9.105   1.360  0.0962  0.0570  0.0973
30324W        W47171   1.240  17.875  11.165  0.1147 -0.0166  0.0267
30325W        W47172  12.118   1.168   2.555 -0.0587  0.1656 -0.1222
30326W        W47173   1.516  13.104   1.219 -0.0322  0.1731  0.2893
30327W        W47174  18.294   5.539   4.526  0.0844 -0.0375  0.1177
30328W        W47175  19.170   7.764   4.184 -0.0402  0.2174 -0.0004
30329W        W47176   4.533   9.837   2.344 -0.2874 -0.2999 -0.2798
30330W        W47177  14.451   8.464  11.428 -0.1671  0.1802  0.1564
30331W        W47178   3.133   4.830   3.749 -0.0485  0.4283  0.2012
30332W        W47179   6.631   9.469   2.060 -0.1880 -0.0906 -0.0141
30333W        W47180   9.751   3.431  12.275  0.2552 -0.1773  0.2491
30334W        W47181   6.873  15.268   2.698 -0.0839  0.2355 -0.1455
30335W        W47182   4.874  16.771  12.116 -0.0201 -0.2217  0.1938
30336W        W47183  17.812   3.323  11.062 -0.0646  0.2471 -0.1105
30337W        W47184  10.564   4.470   3.184 -0.2244 -0.0454 -0.0658
30338W        W47185   2.403  13.987   4.405  0.2767  0.1187  0.0945
30339W        W47186  12.092   9.797   2.323  0.0653 -0.0819 -0.0492
30340W        W47187  17.532  16.754  12.863  0.1310 -0.0500  0.0844
30341W        W47188  12.677  17.275  12.379  0.0356  0.3034 -0.0136
30342W        W47189   8.823  19.208  10.883 -0.1434  0.1930 -0.2130
30343W        W47190  18.680   6.460   2.442 -0.2290  0.1277 -0.2143
30344W        W47191   3.738   0.260   4.272  0.3248 -0.0710  0.2485
30345W        W47192   8.449   8.164   1.992  0.0176  0.2021  0.1761
30346W        W47193   6.551   7.997   0.109  0.0166 -0.0207 -0.0298
30347W        W47194  18.184   8.489   2.565  0.1624  0.1349 -0.1646
30348W        W47195   5.885   7.725  11.397  0.0165 -0.1849  0.1058
30349W        W47196   6.596   2.329   5.001 -0.0242  0.0819 -0.0496
30350W        W47197  14.682   8.693   9.619  0.3478  0.0551 -0.0720
30351W        W47198  17.326  13.551  13.401  0.0657  0.1438  0.2562
30352W        W47199   2.288  13.533   4.108 -0.0604  0.1175 -0.0146
30353W        W47200  17.319  10.994   4.484 -0.1700 -0.0485 -0.2622
30354W        W47201  19.212  15.233  11.250  0.1474  0.2965  0.0287
30355W        W47202  15.855  11.588   0.243  0.0318 -0.2936 -0.3873
30356W        W47203   7.768  14.754  12.151 -0.0671 -0.1404 -0.2806
30357W        W47204  18.115   8.739  13.152 -0.1853 -0.0055 -0.1788
30358W        W47205   2.715  14.124  12.919  0.3384  0.1961  0.0010
30359W        W47206   4.661   6.401  11.909  0.3897  0.0079 -0.2013
30360W        W47207  14.551  16.678   3.936 -0.0502 -0.3408  0.4526
30361W        W47208  10.658   9.218   3.654  0.2580  0.5004  0.1744
30362W        W47209   8.521  11.369  14.556 -0.0536 -0.2619 -0.1027
30363W        W47210  14.259  15.096  13.174 -0.0393  0.1473  0.0259
30364W        W47211   9.208  11.862  14.492 -0.0999  0.1547 -0.1105
30365W        W47212  11.004  12.557  10.950  0.3192 -0.0089 -0.3946
30366W        W47213  18.800  16.539   1.464  0.0178 -0.4023  0.0158
30367W        W47214   8.472  15.972  14.612  0.0689  0.1419  0.2131
30368W        W47215   8.983   6.865  12.833 -0.1387  0.0060  0.0410
30369W        W47216  10.074   8.468   4.015  0.0045  0.1991 -0.0486
30370W        W47217   8.905   8.111   0.614  0.1961 -0.1504  0.0527
30371W        W47218  18.701  17.298  12.902 -0.1951  0.3742 -0.3134
30372W        W47219   9.336   7.611   1.465 -0.0709 -0.1421 -0.1026
30373W        W47220   6.187   1.048  14.769 -0.1639  0.1590 -0.1438
30374W        W47221   5.070  18.618   3.381 -0.2719  0.2733  0.3217
30375W        W47222   4.000  18.026  11.975 -0.3086 -0.1066 -0.1521
30376W        W47223   2.691  17.080   2.110 -0.1454 -0.2154 -0.1422
30377W        W47224   2.867  16.387   0.526 -0.2074 -0.4539  0.2643
30378W        W47225  12.881   2.190   4.524  0.2207 -0.1273  0.0844
30379W        W47226  14.917  14.112   4.040 -0.1258 -0.1415 -0.0009
30380W        W47227   7.620  12.323   2.763  0.0338 -0.1893 -0.0017
30381W        W47228  15.491   2.065  12.104  0.1695  0.1983 -0.2052
30382W        W47229   8.119  11.681   4.582  0.0613 -0.3322  0.1369
30383W        W47230   8.965  10.188  13.341 -0.1819  0.1564  0.0194
30384W        W47231   7.171  14.040  13.821 -0.3102 -0.0664  0.1102
30385W        W47232   5.318  13.703   0.215 -0.1688 -0.0606  0.1537
30386W        W47233   5.947  12.250   4.584 -0.0847 -0.4212 -0.1967
30387W        W47234   6.962   8.792  13.836 -0.0942  0.0214  0.1596
30388W        W47235   0.654  17.488   4.440  0.3115 -0.0628 -0.0065
30389W        W47236  12.160  15.075   5.286  0.0761  0.2591  0.0401
30390W        W47237  13.353  18.664  14.211 -0.0340  0.2938 -0.1967
30391W        W47238   9.858  18.062   1.871 -0.0535  0.2398  0.0202
30392W        W47239  18.350  12.704  11.929 -0.2135  0.1620  0.2115
30393W        W47240  13.581   8.763  12.803  0.0643 -0.0462 -0.0266
30394W        W47241  14.849  13.456   2.637 -0.0691 -0.0475  0.0722
30395W        W47242   5.851  11.698  14.378  0.0857  0.0125 -0.1604
30396W        W47243  13.078   5.883   3.261  0.0189  0.0602 -0.1368
30397W        W47244   2.629   8.415   0.380  0.1027  0.0254 -0.1487
30398W        W47245  17.329  10.535   4.167 -0.0545 -0.0952 -0.2511
30399W        W47246  15.924   7.894  12.865  0.1140  0.2037 -0.1521
30400W        W47247  17.504  16.210   3.788  0.0914  0.0830 -0.0490
30401W        W47248   9.357   6.461   2.004 -0.3914 -0.2176 -0.1265
30402W        W47249  14.654  10.032  13.249 -0.1520 -0.0026 -0.1465
30403W        W47250   5.840   5.210   3.539  0.1459 -0.0161 -0.1289
30404W        W47251  17.293   4.461   0.363  0.0248  0.0564  0.3333
30405W        W47252   2.282   1.153  14.268 -0.3631  0.0954 -0.1284
30406W        W47253  10.167   3.726  12.257 -0.0477 -0.1669  0.0231
30407W        W47254   7.007   0.430  11.446  0.0892 -0.0701 -0.0298
30408W        W47255  19.170   8.162  11.558  0.2748 -0.2804 -0.1286
30409W        W47256  12.438   9.716  14.096  0.1761  0.0969  0.2118
30410W        W47257  10.559   6.372   1.340  0.3137 -0.0638  0.0779
30411W        W47258   7.527   2.655   4.298  0.0736 -0.1023 -0.1826
30412W        W47259  13.466   8.976   3.436  0.2880 -0.0503 -0.1085
30413W        W47260   4.933   6.067  13.648 -0.2538 -0.0309 -0.0119
30414W        W47261  17.886   6.494   4.302  0.1016  0.0755 -0.4760
30415W        W47262   7.218   1.919   0.048 -0.1118  0.0798 -0.0487
30416W        W47263   3.520  11.021  12.722 -0.0645 -0.1295 -0.1807
30417W        W47264   9.797   4.103  12.177  0.1265 -0.2053  0.1929
30418W        W47265  17.789  19.019   3.391  0.0026 -0.1563  0.1440
30419W        W47266   2.775   6.210   4.664  0.2258  0.0036 -0.2625
30420W        W47267   3.358  11.225   3.776  0.2445 -0.1205  0.1954
30421W        W47268  14.364   2.022  12.624 -0.0526 -0.3419  0.0780
30422W        W47269  11.058  11.216   1.303  0.2802 -0.1744  0.0910
30423W        W47270   4.315   4.674   0.210  0.3037  0.0257 -0.0398
30424W        W47271  17.758   4.806   4.080 -0.2223  0.1201  0.3084
30425W        W47272   9.459   9.912  13.225  0.2088 -0.0300  0.3945
30426W        W47273  17.597   6.832   4.886 -0.1605  0.0130  0.2522
30427W        W47274   8.507  18.454   4.855  0.1881 -0.5919  0.0128
30428W        W47275  14.751   0.844  14.129 -0.0293  0.0771 -0.2784
30429W        W47276   6.607  16.882   2.773 -0.3309  0.3393  0.1153
30430W        W47277   3.807   0.688  13.054  0.3051  0.1236  0.0754
30431W        W47278  17.007   2.995  10.793 -0.1726  0.0120  0.2276
30432W        W47279   5.459   8.659  12.396 -0.0390 -0.1910 -0.1591
30433W        W47280   0.802  12.542   3.451 -0.0919 -0.1493  0.1355
30434W        W47281   7.458   0.806  14.224  0.3913 -0.2381  0.1881
30435W        W47282  15.430   0.933   5.357 -0.3580 -0.0984 -0.1164
30436W        W47283  13.018  18.793   5.370  0.2497  0.2792  0.1704
30437W        W47284   2.462  16.971   1.694  0.1057 -0.0933  0.1123
30438W        W47285  12.460  15.845   1.621 -0.2451  0.1315  0.0566
30439W        W47286   8.343  15.729   9.424 -0.1104 -0.1185 -0.0589
30440W        W47287   0.452  11.622   3.032  0.0412  0.4086 -0.4401
30441W        W47288  11.394   5.009   4.871 -0.1618  0.1221  0.4987
30442W        W47289   0.791   0.321   3.285 -0.1051 -0.2267  0.1680
30443W        W47290   5.385  11.884  14.638 -0.2633  0.1400  0.0450
30444W        W47291   2.916   3.905  11.691  0.2669  0.5151 -0.1795
30445W        W47292  16.606  15.203  12.963  0.1056  0.2405  0.1414
30446W        W47293   5.890  12.855  10.382 -0.2047 -0.1496  0.0544
30447W        W47294   4.193   6.362  13.188 -0.4606 -0.1132 -0.1332
30448W        W47295   4.618   4.713  10.784  0.2621  0.1757 -0.4176
30449W        W47296   8.058  12.175   3.513 -0.1193 -0.1788  0.0937
30450W        W47297   6.811  12.329  13.444 -0.0218  0.0788  0.3488
30451W        W47298  17.850  11.926  14.612 -0.0342  0.0985  0.1339
30452W        W47299   0.238   5.121   1.215 -0.1889  0.3199 -0.1360
30453W        W47300   9.089   3.103   0.647  0.2712  0.0539 -0.0249
30454W        W47301  17.051   1.321   4.575 -0.0035  0.0392 -0.0201
30455W        W47302  10.901   0.775   1.665 -0.0561  0.1089 -0.0926
30456W        W47303   4.404   1.963  14.771 -0.1014 -0.0483 -0.1979
30457W        W47304   5.982   7.195  10.626 -0.0438  0.0512 -0.4123
30458W        W47305   2.193   5.286  14.042 -0.2616 -0.0756 -0.3687
30459W        W47306  17.882  13.800   2.470 -0.0756 -0.2772  0.1463
30460W        W47307  10.272  12.988   0.560  0.2609  0.0592 -0.1178
30461W        W47308   1.380  17.203   2.422 -0.1485 -0.2667 -0.2442
30462W        W47309  17.438   1.853  14.288  0.0170  0.0353  0.1404
30463W        W47310   6.481  16.018   4.594 -0.0626 -0.0329 -0.1666
30464W        W47311  13.433  18.841   0.640 -0.1929 -0.1195  0.0020
30465W        W47312   3.872  10.555  12.527  0.0819 -0.2345 -0.0892
30466W        W47313   8.313   1.081   2.487 -0.0020 -0.0503 -0.1412
30467W        W47314   9.894   9.815   2.652 -0.2807  0.1642  0.3964
30468W        W47315  14.091   6.387   2.633  0.0835  0.1355 -0.2463
30469W        W47316  18.865  13.584  14.751  0.0047 -0.0039 -0.2563
30470W        W47317   8.754   1.060   0.163  0.0701 -0.0884  0.0134
30471W        W47318   9.260   4.578   4.780 -0.1318 -0.0413  0.2392
30472W        W47319   6.741   1.468  10.320  0.1006  0.2993 -0.2768
30473W        W47320  11.541   8.764  12.021 -0.0074 -0.3320 -0.0288
30474W        W47321   3.850   5.854   2.050  0.1705  0.0668 -0.0639
30475W        W47322   1.347   1.670  14.065  0.1057  0.1708  0.0714
30476W        W47323  17.962  13.787  12.134  0.2773  0.1258  0.0476
30477W        W47324   0.052   0.715  12.937  0.3399  0.2340  0.1546
30478W        W47325   2.207  19.223   2.238  0.1400 -0.1108  0.2203
30479W        W47326   7.703   3.292   0.826 -0.4000  0.0515  0.1039
30480W        W47327  16.659   8.375   1.980 -0.0346 -0.0570 -0.1593
30481W        W47328  10.433  13.592   3.250 -0.0312  0.1569 -0.0987
30482W        W47329  14.173  10.521  13.550  0.2574  0.0299 -0.2423
30483W        W47330   9.508   6.592  14.045  0.1149  0.0243 -0.3318
30484W        W47331  17.858  11.958   1.197  0.2909  0.2224  0.1634
30485W        W47332  14.102   7.838  10.446 -0.1814  0.1283 -0.0552
30486W        W47333   7.763   0.465  14.437 -0.0753  0.1896 -0.2457
30487W        W47334  12.644   2.848  10.146  0.2692 -0.2661  0.3074
30488W        W47335   7.116  15.507   3.585 -0.2530 -0.4669  0.2053
30489W        W47336   1.569   7.855  11.124  0.0935  0.0463 -0.2788
30490W        W47337   7.163   3.337   0.645 -0.0957  0.2825 -0.2947
30491W        W47338   0.489   3.758   1.281 -0.0047 -0.3495 -0.1749
30492W        W47339  10.986  18.792   4.461  0.0450 -0.0247 -0.1472
30493W        W47340   8.095  14.958  11.820  0.1041  0.1146 -0.3971
30494W        W47341  14.467   7.451   1.886  0.1952  0.3130  0.0008
30495W        W47342  16.211   6.939   2.115  0.2770 -0.0241  0.1611
30496W        W47343  19.268   4.055  12.341 -0.0385  0.2131  0.0064
30497W        W47344   2.572   3.255  12.961  0.0850 -0.1106  0.3852
30498W        W47345   5.988   6.512   2.087  0.1667  0.3835  0.0011
30499W        W47346  12.952   9.192  10.295 -0.0975  0.0030 -0.0433
30500W        W47347   7.683   2.507  10.919 -0.3026  0.1140 -0.4354
30501W        W47348   2.143  11.742   1.492 -0.4116 -0.0001 -0.1625
30502W        W47349  15.178  18.396  13.004  0.0060 -0.1466  0.2899
30503W        W47350  17.568   5.540   2.719  0.1149 -0.1096 -0.0944
30504W        W47351  18.374  13.158  11.250  0.0321  0.0944  0.0964
30505W        W47352  17.690   8.385   2.647 -0.2646  0.0048  0.3122
30506W        W47353   4.481  13.190   3.710  0.2841 -0.1421  0.1713
30507W        W47354   7.415  15.591   2.743  0.0751 -0.0552  0.5831
30508W        W47355  13.704  11.184   1.971  0.1783  0.0927  0.2634
30509W        W47356  12.373  17.115  11.009  0.1261  0.0451  0.1542
30510W        W47357  13.807  16.345   2.799  0.1902 -0.2522  0.1311
30511W        W47358  11.103  12.473   0.465  0.1547  0.0300  0.0418
30512W        W47359   9.215   8.683   2.416  0.0496  0.1316  0.0369
30513W        W47360  15.274  12.758   0.517  0.1903  0.1012 -0.1513
30514W        W47361   2.156  10.431  13.990 -0.1408  0.1151  0.1515
30515W        W47362  14.300  14.649  12.293 -0.1397  0.1107  0.0108
30516W        W47363  17.837  12.824   3.024 -0.0313  0.0435  0.1399
30517W        W47364  15.177   3.515   3.945 -0.1363 -0.2641  0.0967
30518W        W47365  10.445  18.263   1.348 -0.1080  0.2457 -0.0693
30519W        W47366  14.779  15.934   0.937 -0.0336 -0.2133 -0.0407
30520W        W47367  13.836   2.392   0.887  0.0116  0.0272  0.3384
30521W        W47368  14.351   1.743   1.318  0.3041  0.2930  0.4611
30522W        W47369  13.764   4.548  14.111  0.4415  0.1382 -0.0539
30523W        W47370   6.813  12.555   1.127  0.0240 -0.0935 -0.2123
30524W        W47371  15.750  13.603  12.462 -0.6527  0.2467 -0.0441
30525W        W47372   3.130  17.080  13.740  0.4023  0.0573  0.3293
30526W        W47373   7.812  18.132  11.466 -0.3269  0.2707  0.0672
30527W        W47374   0.520  18.968   2.128 -0.1722 -0.1230 -0.0700
30528W        W47375   8.748   9.587  13.521  0.1139 -0.0540 -0.1281
30529W        W47376   1.840   8.402  10.605  0.0426  0.0301  0.0364
30530W        W47377   9.970   9.922   0.219  0.0803 -0.0073  0.0279
30531W        W47378  11.779  12.552  13.964  0.1504  0.0170 -0.0851
30532W        W47379   8.129   7.114   2.734  0.4959 -0.3451 -0.1362
30533W        W47380  13.341  12.557   3.583  0.0056  0.1762 -0.3509
30534W        W47381  16.365   9.068  12.621  0.1050 -0.1579  0.0070
30535W        W47382   8.793   2.721  10.473  0.1428 -0.1997  0.0007
30536W        W47383   7.312   8.851   2.956 -0.1196  0.0348  0.0927
30537W        W47384  10.738  18.645   0.471 -0.0145 -0.0146 -0.0898
30538W        W47385  14.067  16.288   2.098 -0.0528 -0.1444 -0.6400
30539W        W47386   7.742   2.701  12.245 -0.2714  0.0883  0.0212
30540W        W47387   9.905   3.801  12.691 -0.1971  0.0096  0.3687
30541W        W47388   7.761   6.263  12.992  0.0926 -0.1319 -0.0859
30542W        W47389   8.980   8.754  10.695 -0.0383  0.0966  0.1201
30543W        W47390  17.318   9.237   0.222  0.3029  0.1638 -0.4315
30544W        W47391   5.276   7.438   5.451  0.0707 -0.1013 -0.0417
30545W        W47392  16.083  14.282   1.095  0.2096 -0.2271 -0.3821
30546W        W47393  16.481  16.001  13.989 -0.0415 -0.1868 -0.0579
30547W        W47394   1.487   7.855   1.065  0.0076  0.1368 -0.1280
30548W        W47395   8.651  16.302   0.432  0.0191 -0.0281  0.0177
30549W        W47396   9.119   0.474   1.770 -0.1780 -0.0084 -0.1063
30550W        W47397   5.937  18.243  10.737 -0.0212  0.0226  0.5163
30551W        W47398  17.773   6.834  14.322 -0.0158  0.1171 -0.2070
30552W        W47399   0.449  14.653   1.119  0.2707 -0.1594 -0.1766
30553W        W47400  15.696  10.723   4.085 -0.2341  0.0116  0.2094
30554W        W47401   1.864  14.350   0.489  0.3063 -0.3027  0.0326
30555W        W47402  12.557  11.803   2.095 -0.2320  0.2534  0.0861
30556W        W47403  16.104  12.531   3.310  0.0536 -0.0366  0.1124
30557W        W47404  16.172  13.571   2.371  0.0828  0.1072 -0.1198
30558W        W47405  16.910  16.112   0.693  0.0437  0.1180  0.1673
30559W        W47406  16.794  12.097   4.985  0.0777  0.5473  0.0846
30560W        W47407  19.101   5.084  14.659 -0.0645 -0.2402 -0.0715
30561W        W47408   6.608  14.382   2.508 -0.3945 -0.1560  0.1589
30562W        W47409  10.056  16.163   5.046  0.0871 -0.2732 -0.3572
30563W        W47410  18.978  18.941   4.454  0.0519 -0.2339  0.0331
30564W        W47411  15.325   1.794   0.335  0.2133 -0.2415  0.2888
30565W        W47412  12.983   4.974   3.060  0.1395 -0.3402  0.0687
30566W        W47413   9.800  11.507   3.113  0.0671 -0.4234  0.1727
30567W        W47414  10.637   0.899  12.027  0.0121 -0.2592 -0.1255
30568W        W47415   3.722   6.058   1.564  0.3221 -0.3760 -0.1183
30569W        W47416   0.524   2.904   0.322 -0.1781 -0.2938  0.2919
30570W        W47417   7.665  18.609  14.390  0.0913  0.1560 -0.2082
30571W        W47418   8.631  12.174   0.134 -0.1562 -0.1568  0.1918
30572W        W47419  18.179   2.566  12.095  0.0982  0.0516 -0.3652
30573W        W47420   6.001   4.687  10.607 -0.0792  0.2191  0.0389
30574W        W47421   3.667  18.541  13.352  0.0845 -0.0463 -0.1753
30575W        W47422  13.330  11.071   3.829  0.0144  0.2313  0.0902
30576W        W47423  17.177   5.267  13.419 -0.0750 -0.1952  0.0562
30577W        W47424  15.623   9.676   2.713 -0.2274  0.1216  0.1533
30578W        W47425   3.806  17.547   1.217  0.2252  0.1011  0.1615
30579W        W47426   9.068  10.191   3.530  0.0212  0.1740 -0.1516
30580W        W47427  12.674   1.370  12.881 -0.0300 -0.1320  0.0696
30581W        W47428   3.438  16.681  13.849 -0.0993  0.1423 -0.2857
30582W        W47429   1.540   7.430  13.202  0.0198 -0.1786  0.1442
30583W        W47430   9.297  16.227  10.366 -0.3586  0.0359 -0.1780
30584W        W47431  16.930  15.769  14.831 -0.0384  0.2286  0.2418
30585W        W47432  15.610  18.913   0.322 -0.3439 -0.1441  0.0088
30586W        W47433  12.694   2.372   1.763 -0.3401 -0.3139 -0.0100
30587W        W47434   5.997  11.729   2.482 -0.2486  0.1521  0.1239
30588W        W47435   9.977  14.425  11.067  0.0281 -0.0209 -0.0892
30589W        W47436   7.734  15.443  10.691  0.1188  0.2435 -0.2080
30590W        W47437  17.677  14.792  12.153 -0.0518 -0.2741 -0.0344
30591W        W47438   1.580   3.486  11.129  0.1216 -0.2520  0.0135
30592W        W47439   7.666   6.562  11.671 -0.3053  0.0016  0.4312
30593W        W47440   4.673  17.168   0.124 -0.4731 -0.0109  0.0083
30594W        W47441  11.437   6.642  10.913  0.2168  0.2093 -0.0102
30595W        W47442   5.420  15.995   3.789  0.0102 -0.0233  0.3908
30596W        W47443  12.920   8.749   0.496 -0.1731 -0.1166 -0.1037
30597W        W47444  13.848  11.388   1.485 -0.1878 -0.3891 -0.0515
30598W        W47445  17.327   8.000   0.613  0.0454  0.0170 -0.2219
30599W        W47446   6.740   3.387  11.882  0.1445  0.3057  0.2879
30600W        W47447   7.619   1.912   0.441  0.3109  0.1063  0.1158
30601W        W47448  14.992   4.138   4.015 -0.2703 -0.1670 -0.1442
30602W        W47449  12.490  18.096  11.075 -0.0090 -0.1267 -0.0522
30603W        W47450  15.795  19.250   4.669  0.0759  0.1586 -0.2527
30604W        W47451   8.111  10.208   3.328  0.0634  0.2134 -0.0452
30605W        W47452  16.398  11.629  12.981 -0.1420  0.2576  0.3864
30606W        W47453  12.741   8.761   3.497  0.1737  0.0956 -0.1221
30607W        W47454   7.592  12.831  14.364 -0.1165  0.1461 -0.0277
30608W        W47455  15.807   5.738  13.192  0.0180  0.4005 -0.0458
30609W        W47456  13.624   3.043   3.468 -0.3611  0.1294  0.1603
30610W        W47457   5.200   0.412   1.277  0.1771 -0.0322 -0.2320
30611W        W47458  18.853   5.130   5.160  0.0487  0.4823  0.0560
30612W        W47459   0.191   6.126  10.472 -0.1681 -0.0174  0.0642
30613W        W47460   7.147  13.965  11.444  0.0041 -0.0273  0.0833
30614W        W47461   7.881  17.342  12.067  0.2947 -0.1350  0.0067
30615W        W47462   2.082   2.174  10.630  0.0883  0.1294 -0.1391
30616W        W47463   8.578  17.243  11.063 -0.2019 -0.1009 -0.0205
30617W        W47464  15.954  11.717   4.559  0.1621 -0.0217  0.0157
30618W        W47465  16.320   4.437  13.234  0.1040 -0.1053 -0.4102
30619W        W47466   0.405   8.250  14.733  0.2223  0.0877 -0.0287
30620W        W47467   8.063  15.416   1.988  0.0871  0.1053 -0.0514
30621W        W47468  17.442   9.488  11.378 -0.2045  0.0345  0.2594
30622W        W47469   8.419  17.692   0.266  0.0927 -0.0469  0.0792
30623W        W47470  12.148  13.552  12.454  0.1537  0.1019 -0.1103
30624W        W47471  14.718  19.205  11.611  0.0076  0.1256 -0.2788
30625W        W47472   9.924  12.896   2.570  0.1333 -0.2246  0.0481
30626W        W47473   7.280   1.403   0.014  0.0835 -0.2398 -0.1551
30627W        W47474  12.888  15.182   2.199 -0.0042  0.2322 -0.1072
30628W        W47475  14.335  12.988   0.609 -0.1363  0.3006  0.3127
30629W        W47476   2.807  19.255   0.553  0.0553  0.0279 -0.0079
30630W        W47477  18.078   9.136  14.192 -0.1408  0.0463 -0.4172
30631W        W47478   9.605   6.311   9.336  0.2271  0.1579 -0.1919
30632W        W47479   2.950   7.300   4.918  0.1518  0.2128 -0.3505
30633W        W47480  14.890  11.175   1.763  0.0284 -0.1394 -0.0211
30634W        W47481   1.889   4.242   3.487  0.3975  0.2797  0.1854
30635W        W47482   7.121  18.289  11.552 -0.0945 -0.1366  0.0640
30636W        W47483   0.315   2.823   1.995  0.2743  0.1133 -0.0661
30637W        W47484   7.539  16.227   1.519 -0.0415 -0.1293  0.0886
30638W        W47485   7.884   0.900  12.845 -0.1621 -0.1401  0.2429
30639W        W47486   8.962  12.531   0.752 -0.0824  0.2974  0.0173
30640W        W47487  16.032   4.369  14.344 -0.0803 -0.2034 -0.1952
30641W        W47488  14.169   4.421   3.490 -0.1862  0.0422  0.1088
30642W        W47489  17.552  12.544   0.214 -0.0915 -0.2207 -0.0829
30643W        W47490  11.429   5.173  10.913 -0.1665  0.0127 -0.1369
30644W        W47491  11.443   7.463   0.189 -0.0361 -0.0384 -0.1947
30645W        W47492   3.292  16.997  11.071  0.0109  0.1001 -0.1912
30646W        W47493   7.567  13.438   1.063  0.0580  0.3715  0.0419
30647W        W47494   7.566  16.560   1.879  0.2403  0.1528  0.1632
30648W        W47495   4.464   6.565   2.077 -0.0684  0.1568 -0.2331
30649W        W47496   1.214  19.036   1.808 -0.0941 -0.3086  0.5887
30650W        W47497  16.597  13.259  11.257 -0.2090 -0.2844  0.5110
30651W        W47498   7.231  14.803   3.556  0.1483  0.0377 -0.1692
30652W        W47499  16.220  13.034  12.904  0.2615 -0.1588  0.0935
30653W        W47500  16.820   2.723  13.019 -0.0362  0.2468 -0.0484
30654W        W47501   8.372  17.219   1.965  0.1268  0.2439  0.0598
30655W        W47502  17.050  17.978   5.043 -0.1478  0.2295  0.2395
30656W        W47503   9.415   2.807  10.610 -0.2897 -0.1092  0.0079
30657W        W47504  13.200  18.243  13.404  0.0140 -0.1099  0.0126
30658W        W47505  18.194   6.172   5.084  0.3539 -0.1173 -0.0403
30659W        W47506  17.394   6.616   9.149 -0.1583 -0.0080 -0.2402
30660W        W47507  18.079  16.908  14.322  0.0159 -0.1075  0.1116
30661W        W47508  17.617   3.495   0.370  0.2044 -0.3296  0.0400
30662W        W47509  12.686  18.468   0.700  0.1927 -0.0882 -0.0239
30663W        W47510   2.982   4.176   0.351  0.7421  0.0715  0.0152
30664W        W47511   8.109   8.030  12.761  0.3455 -0.1133  0.1522
30665W        W47512  11.547  17.259  11.092  0.2118 -0.1585  0.2449
30666W        W47513   9.179   3.305  14.281 -0.1983  0.0949 -0.0693
30667W        W47514   7.290   5.222   0.122  0.0162  0.1364  0.1742
30668W        W47515  12.333  16.673  10.176  0.1030 -0.1916  0.1769
30669W        W47516  17.282   1.076   1.179 -0.0373 -0.1527  0.0229
30670W        W47517   6.054  14.620  13.345  0.0994  0.0070  0.3705
30671W        W47518  17.684  15.989  14.585  0.2934  0.4101  0.0931
30672W        W47519   6.453  10.202   0.237  0.0552  0.2395 -0.1411
30673W        W47520  11.797   4.289   4.758  0.1348  0.1644 -0.3492
30674W        W47521   6.749  13.217  12.355 -0.0746  0.1770  0.4334
30675W        W47522  17.189   8.312   1.752 -0.0652 -0.0298  0.3170
30676W        W47523  11.099   2.659   1.385 -0.0781 -0.1965 -0.0098
30677W        W47524  11.982  13.981  12.757  0.2628 -0.3552 -0.1247
30678W        W47525  16.642  16.920   0.017  0.0282 -0.0575 -0.0178
30679W        W47526   8.805  10.311   0.307 -0.3239 -0.0315  0.1748
30680W        W47527   9.471   6.303   4.111 -0.0382  0.0446  0.0322
30681W        W47528  11.411   4.915  12.984 -0.0308 -0.0479  0.0036
30682W        W47529  15.182   0.866  14.970  0.0049 -0.1817 -0.0695
30683W        W47530   7.235  14.893   2.203  0.0396 -0.0688  0.0576
30684W        W47531   6.216  11.710   3.754  0.3558  0.0860  0.2225
30685W        W47532   2.684   2.605   3.412 -0.2290 -0.2260 -0.0744
30686W        W47533  14.287   1.048   5.210  0.1237 -0.1486 -0.0187
30687W        W47534   2.862   8.649  14.547  0.0326 -0.1252 -0.0657
30688W        W47535  14.214  10.043  12.361  0.1692  0.0342  0.1153
30689W        W47536   8.625   0.969   9.467 -0.2940  0.0487  0.0756
30690W        W47537  17.833   9.866   4.854  0.3538  0.0901 -0.1630
30691W        W47538   6.751  16.532  10.768 -0.2437  0.0790  0.1452
30692W        W47539   0.073   2.410  12.216 -0.0679  0.3291 -0.1322
30693W        W47540  18.581   4.265   1.731 -0.0490  0.1482 -0.0882
30694W        W47541   1.923   4.297   0.945  0.1291 -0.0313  0.1626
30695W        W47542  13.186   3.332  12.018  0.1402  0.0551  0.1646
30696W        W47543  17.156  12.519  14.799  0.2101  0.2004  0.2547
30697W        W47544  16.766  11.602   4.096 -0.2663  0.0633  0.0570
30698W        W47545  13.025   9.742  12.899 -0.0569  0.0886 -0.0665
30699W        W47546  19.069  12.647   2.949  0.0949 -0.0701 -0.2195
30700W        W47547   6.305   1.409  10.700 -0.0295  0.2193  0.0980
30701W        W47548  11.341  10.144   2.300 -0.2356 -0.0591  0.4366
30702W        W47549   5.104  16.105   1.617 -0.1637 -0.4254 -0.3055
30703W        W47550   9.215  13.929   3.037  0.0835  0.1680 -0.1360
30704W        W47551   7.370   7.511  12.451  0.1246  0.1110  0.0709
30705W        W47552   6.019   4.096   2.575  0.0890 -0.2200  0.0351
30706W        W47553   2.049   8.710   1.372  0.0940  0.0802 -0.0142
30707W        W47554  16.526  13.729  14.551  0.4307  0.1034  0.2142
30708W        W47555  12.502   0.313   2.616  0.2244 -0.0158  0.4788
30709W        W47556  11.883   7.676   5.311  0.3012  0.1098 -0.0949
30710W        W47557   8.550   5.629  14.030 -0.1486 -0.5128 -0.0589
30711W        W47558   6.341  11.815  10.832 -0.0642  0.0803  0.0165
30712W        W47559  11.463  11.616   2.907 -0.1872 -0.0214  0.1886
30713W        W47560   6.842   5.906  12.005  0.0212 -0.0380 -0.1420
30714W        W47561   2.077  14.811  10.386  0.1505 -0.2225  0.0851
30715W        W47562  11.755   2.913   4.513 -0.1998  0.0297 -0.0570
30716W        W47563  11.308   6.812   1.773 -0.1146 -0.0162 -0.1743
30717W        W47564   4.574   6.757  11.030 -0.3686  0.0368  0.1469
30718W        W47565   6.117   1.523   2.112  0.0951  0.2001 -0.1420
30719W        W47566   0.382  11.156   1.338 -0.0950  0.3256  0.0807
30720W        W47567  18.617  15.120   3.662 -0.0317  0.2523 -0.0904
30721W        W47568   4.353  10.776  13.690 -0.0710  0.3256  0.4498
30722W        W47569   6.676  13.037   0.966 -0.1895  0.1874 -0.3222
30723W        W47570   2.650   9.516  13.313  0.1636 -0.0196  0.2353
30724W        W47571  12.263  13.073  12.241  0.0118 -0.4152 -0.0899
30725W        W47572   5.436   0.293   2.914 -0.2645  0.0051 -0.2289
30726W        W47573  18.650   0.911  11.659 -0.0639  0.2355 -0.3112
30727W        W47574   0.848   1.625   4.676 -0.2507  0.0624 -0.0485
30728W        W47575   6.315   4.264   0.902 -0.3484 -0.2253 -0.1455
30729W        W47576   2.383   7.174   2.143  0.4273  0.1969  0.6034
30730W        W47577   9.948  16.179  12.483  0.5015  0.1154  0.0370
30731W        W47578   7.616  14.180  11.042  0.1547 -0.1036  0.2162
30732W        W47579   4.964   0.466   3.024  0.1803  0.3467  0.1468
30733W        W47580   4.593   6.502   1.579  0.3159 -0.1568 -0.0400
30734W        W47581  14.062  12.827   3.184  0.0110  0.1813  0.1908
30735W        W47582   5.955  18.330  13.329 -0.0111 -0.1278 -0.0135
30736W        W47583  11.907   0.754   4.648 -0.0647  0.0059  0.2089
30737W        W47584   5.338  16.212   2.828  0.1212 -0.1081 -0.0899
30738W        W47585  10.802   7.873   3.851  0.1290 -0.2011 -0.0766
30739W        W47586   1.465   1.521   3.564  0.1286 -0.1198  0.3477
30740W        W47587   2.036   9.968   3.089 -0.2664  0.0612  0.0318
30741W        W47588  12.313  16.180   0.724 -0.0543 -0.0678 -0.1590
30742W        W47589  11.518  16.270   0.446  0.0593  0.0613  0.0095
30743W        W47590  18.936   9.542   1.370 -0.1336 -0.1140 -0.0547
30744W        W47591  16.368  12.661   4.525  0.0024 -0.6847  0.0911
30745W        W47592   1.902  14.895   4.190 -0.0769 -0.1916 -0.3662
30746W        W47593   2.756   8.749  14.016 -0.1247  0.0258  0.4115
30747W        W47594   8.572   5.829  14.898 -0.2450 -0.0912  0.1365
30748W        W47595   4.958  10.868   4.217 -0.1844  0.2267  0.0818
30749W        W47596   6.377  13.388  12.760  0.0671  0.2125 -0.0938
30750W        W47597  11.784  15.904   3.458  0.4450 -0.3666  0.0568
30751W        W47598   4.030   7.609   9.538  0.0288  0.2032  0.1172
30752W        W47599   1.004  17.759   0.445 -0.0106  0.4411 -0.0593
30753W        W47600  18.347   2.789   3.992 -0.1483  0.1392 -0.1830
30754W        W47601  13.825  18.320   1.643 -0.1141  0.2133 -0.0023
30755W        W47602  11.311   7.916  13.492  0.0375  0.0223  0.0008
30756W        W47603  17.533  13.781   3.836  0.2254  0.3047  0.0021
30757W        W47604   3.387  15.664  14.970  0.2224  0.1724  0.1102
30758W        W47605   5.734  12.662   4.887 -0.1023 -0.1434  0.1592
30759W        W47606   5.183  15.316  11.307 -0.1110 -0.1373 -0.1042
30760W        W47607   0.870   1.506   3.591  0.2223 -0.0903 -0.1065
30761W        W47608  12.703   1.981  15.005 -0.0898 -0.0817  0.0963
30762W        W47609   1.499  13.619  12.179 -0.2103 -0.2092 -0.2229
30763W        W47610   3.140  17.776   3.714  0.0038 -0.0245  0.0254
30764W        W47611   6.841  15.613  13.466  0.0273 -0.1589  0.1811
30765W        W47612  12.890   9.169   4.961 -0.4814  0.2080 -0.1501
30766W        W47613  16.523   5.432   4.142  0.0721 -0.1418 -0.1135
30767W        W47614   0.346  14.242  11.658  0.3100 -0.0580  0.3448
30768W        W47615   8.898   8.274  12.048  0.1074 -0.1175  0.0684
30769W        W47616   3.251   6.546  10.524 -0.0419  0.0411  0.1137
30770W        W47617  16.865  14.722  11.844  0.2341  0.1410 -0.1034
30771W        W47618  11.067   0.088   3.020 -0.1461  0.2062 -0.1650
30772W        W47619   3.175  10.000   2.468  0.2563 -0.0185 -0.1629
30773W        W47620  11.219  11.205  14.245  0.0575 -0.4664  0.0142
30774W        W47621  15.054   4.969  12.627  0.0655  0.1521 -0.1362
30775W        W47622   9.514  12.872   0.956  0.4763 -0.1794 -0.0744
30776W        W47623   5.872  13.543   4.174  0.2186  0.0919  0.1022
30777W        W47624   1.241  14.189  11.162 -0.2794 -0.0766  0.1222
30778W        W47625  19.162   7.547   1.841 -0.1863  0.3373  0.2917
30779W        W47626  16.012  12.972  14.843  0.0512  0.2102  0.0841
30780W        W47627   2.052  10.397   2.326  0.1579  0.2602  0.2869
30781W        W47628   9.033   6.387  12.581  0.3095  0.3592 -0.2681
30782W        W47629  15.506   8.366   5.095  0.0707 -0.5529 -0.1616
30783W        W47630   6.750  13.088   4.325 -0.0085  0.2012  0.1332
30784W        W47631   0.179   7.228   2.551  0.1243  0.4263 -0.1604
30785W        W47632  14.205   6.390  12.289  0.0022 -0.0257  0.0647
30786W        W47633   4.095   6.732  14.296  0.1059  0.1849  0.2054
30787W        W47634  12.285   3.406   2.026 -0.0444  0.3049 -0.2481
30788W        W47635  13.570   3.998  12.395  0.0735 -0.2118 -0.1468
30789W        W47636  14.020  17.603  14.894 -0.0165  0.3637 -0.0760
30790W        W47637  14.494  13.072   0.023  0.3929  0.2662  0.6666
30791W        W47638  13.090  15.079   9.647  0.0233 -0.0987  0.0663
30792W        W47639   6.104   8.554  13.970 -0.0350  0.0428 -0.2422
30793W        W47640  12.351   5.676  12.919  0.1829 -0.0825  0.2264
30794W        W47641  14.189   5.317   3.637 -0.2203  0.1378 -0.0888
30795W        W47642   2.146   2.498  10.209 -0.0893  0.1719  0.1127
30796W        W47643  16.595   4.929  13.488  0.0787  0.3405 -0.0415
30797W        W47644  14.579   2.450   5.555 -0.1893 -0.2619  0.2428
30798W        W47645  16.452  18.511   1.948 -0.0265  0.1981 -0.0630
30799W        W47646  13.360   4.341   2.743 -0.0617  0.0778 -0.1719
30800W        W47647   2.580  14.548   3.811  0.1930 -0.2318  0.0134
30801W        W47648   4.062   4.453   4.725  0.3356 -0.0853 -0.0566
30802W        W47649   2.704   0.486   0.699  0.1274  0.0271  0.3967
30803W        W47650  14.659   2.322  13.425  0.2001 -0.2357 -0.0457
30804W        W47651  11.494  12.198   0.460  0.0386 -0.0847  0.0079
30805W        W47652   6.627  15.246  13.171 -0.2103 -0.0508 -0.0326
30806W        W47653  10.706  12.715  12.199  0.2655 -0.0388 -0.0296
30807W        W47654   7.092  11.625   2.303 -0.1609 -0.2958 -0.0652
30808W        W47655   6.346  17.976   0.094  0.0179  0.0282  0.2901
30809W        W47656  10.912   4.266  10.594  0.1574 -0.3048 -0.0604
30810W        W47657  13.418   5.261   1.206 -0.1691  0.1401 -0.1470
30811W        W47658  15.479  15.736   5.337  0.0002 -0.2981 -0.1062
30812W        W47659   2.442  13.194   0.259 -0.1066 -0.1666 -0.2215
30813W        W47660   9.144   4.634   2.867  0.2725 -0.1579  0.4800
30814W        W47661   6.029   3.419  10.575  0.2091 -0.4262  0.2134
30815W        W47662  16.508   8.034   2.348 -0.1392 -0.0350 -0.3445
30816W        W47663  13.170  11.369   2.197 -0.1645  0.1018 -0.1753
30817W        W47664  11.686   5.035  12.624 -0.1980  0.0245 -0.0132
30818W        W47665   6.461   2.409   1.690 -0.0125 -0.0105 -0.1745
30819W        W47666  14.670  13.253  13.029 -0.1222  0.1205 -0.2766
30820W        W47667   8.122  12.610  10.910  0.0043  0.0388  0.0374
30821W        W47668   5.143  15.254   2.233  0.0892 -0.0233 -0.2330
30822W        W47669   8.486   2.071   0.536 -0.2304 -0.0436  0.0087
30823W        W47670   3.751  10.657   1.513  0.0072  0.1494  0.1662
30824W        W47671   7.957   2.652  12.676 -0.2662  0.0428  0.0681
30825W        W47672   6.490   1.339  11.186  0.0785  0.2938 -0.1039
30826W        W47673  18.580   1.085  14.311  0.1663  0.1757  0.1959
30827W        W47674  17.454  16.545   3.410 -0.1776 -0.0856 -0.0569
30828W        W47675  11.114  11.251  13.343  0.0721  0.3211  0.2831
30829W        W47676   0.970  16.099  10.760 -0.1351 -0.3363  0.1888
30830W        W47677   4.977   5.383  11.447 -0.2256  0.0580  0.1949
30831W        W47678  14.217  12.530  10.003  0.0785  0.0892  0.0047
30832W        W47679  10.939   8.738   0.964 -0.0510  0.3821  0.1877
30833W        W47680  12.668  17.505  14.302 -0.2421  0.0728  0.0549
30834W        W47681  14.144  17.888   0.928 -0.2578  0.0563 -0.2607
30835W        W47682   6.981  11.449   0.265  0.0750 -0.0591  0.0615
30836W        W47683   3.661  16.076  11.322 -0.0917  0.1743  0.3737
30837W        W47684   6.174  15.345  11.256  0.3847  0.0655  0.0912
30838W        W47685   2.276  16.709  14.984 -0.3329  0.0496  0.1825
30839W        W47686  11.194   0.497   0.436  0.1412  0.0434 -0.1832
30840W        W47687   5.691  15.361  11.055  0.2100 -0.1009  0.0554
30841W        W47688  15.878   3.346   4.588  0.0735  0.0996  0.0573
30842W        W47689   3.651   6.037   3.343  0.0878 -0.1103 -0.1606
30843W        W47690  16.008  15.623   9.833  0.2541  0.1673  0.2149
30844W        W47691  13.814   5.542   3.844 -0.2611 -0.1842 -0.1175
30845W        W47692   2.994   0.081  13.039  0.0338  0.0433  0.1324
30846W        W47693   4.570   6.492  13.563  0.1865  0.2284 -0.0412
30847W        W47694  13.954  10.492  14.705 -0.1092  0.1919 -0.0886
30848W        W47695   0.420   1.921   3.922 -0.0621 -0.0523 -0.2368
30849W        W47696   3.694  17.980   3.544  0.0076 -0.0880  0.0638
30850W        W47697  14.972   7.499   2.628 -0.0607  0.0549  0.1124
30851W        W47698   5.560  11.515  13.983  0.0134 -0.0838  0.2086
30852W        W47699   8.895  19.048   0.729  0.1532 -0.0682 -0.3674
30853W        W47700  11.308  18.352  12.287  0.3931  0.1692 -0.1605
30854W        W47701  10.235   8.239  10.746 -0.0828  0.0661 -0.4052
30855W        W47702   8.191   9.825  12.937  0.2847  0.2889  0.0140
30856W        W47703   3.276   3.010  11.515  0.1918  0.0055 -0.1790
30857W        W47704   5.881   8.461   3.350  0.0490 -0.0912  0.0728
30858W        W47705   5.402  15.262   2.688  0.2337 -0.4646 -0.0056
30859W        W47706   4.480   0.137  10.243  0.0518 -0.0587 -0.0485
30860W        W47707   0.041  10.916  10.497 -0.2780  0.0988  0.0349
30861W        W47708  11.897  17.480   5.620  0.2045 -0.0915  0.0800
30862W        W47709  16.335  12.662  13.199 -0.4229 -0.0677 -0.1554
30863W        W47710  13.171   6.678  14.602  0.0620  0.1256  0.0317
30864W        W47711   5.012  18.713   5.156  0.1742  0.0122 -0.0551
30865W        W47712   4.127  10.631  10.815  0.0430 -0.1352  0.1047
30866W        W47713   4.065   0.521  10.224 -0.1221  0.0253 -0.0527
30867W        W47714  12.969  19.106  13.538 -0.1933  0.2563  0.3470
30868W        W47715  12.222   6.460  11.269  0.0704  0.0522 -0.0375
30869W        W47716  17.924  14.534   1.446  0.0003 -0.0664 -0.1516
30870W        W47717   7.005   8.880   9.718 -0.1939  0.2611 -0.3108
30871W        W47718   3.802   8.735  11.193  0.1843 -0.0089  0.2247
30872W        W47719  11.200  10.790   3.824  0.2861  0.2462 -0.1574
30873W        W47720  13.888  12.382  12.706 -0.0123 -0.1366 -0.1794
30874W        W47721  17.745   4.178   1.328 -0.2301  0.5087 -0.2682
30875W        W47722  15.492   8.852  15.006  0.0243  0.2240  0.2112
30876W        W47723   1.323  12.596  14.385 -0.1537 -0.0002 -0.1028
30877W        W47724   1.694  12.645   4.156 -0.3704 -0.1249 -0.0241
30878W        W47725  12.289  10.888   1.699 -0.1386 -0.0292  0.2578
30879W        W47726  10.083   8.590  14.174 -0.0697  0.1097 -0.4493
30880W        W47727   9.558   0.162  10.784 -0.1061 -0.0501 -0.1766
30881W        W47728   2.623   3.658  10.018 -0.0634  0.4994 -0.0858
30882W        W47729   4.309  14.151   1.102 -0.3633 -0.1938 -0.0417
30883W        W47730   8.556  18.572   2.394 -0.0613  0.1506 -0.0137
30884W        W47731   0.300  12.329  12.473  0.1298 -0.2964 -0.1091
30885W        W47732  16.147  14.315   4.156  0.5261 -0.0946 -0.0623
30886W        W47733   6.874  17.840   2.045  0.0106  0.2303  0.0586
30887W        W47734  13.049   3.670  12.411  0.2370 -0.1737 -0.2832
30888W        W47735   8.495   8.805  14.724  0.0231 -0.0401 -0.3281
30889W        W47736  12.882  15.075  10.078 -0.1405 -0.0703  0.1548
30890W        W47737   2.526  14.995   0.917 -0.0447 -0.0426  0.2901
30891W        W47738  18.770  17.647  14.339 -0.0464  0.0600  0.2364
30892W        W47739   6.696  18.177  11.739  0.2072  0.1932 -0.1892
30893W        W47740   3.026   5.030   1.665 -0.2006  0.3213 -0.1316
30894W        W47741   7.876  16.929  13.083  0.0744  0.2861 -0.2398
30895W        W47742   3.771  11.803  10.043 -0.0366 -0.0789 -0.0501
30896W        W47743  14.117  18.501   0.044  0.2779  0.1588 -0.2075
30897W        W47744  13.313  17.518  14.401  0.1206  0.4098  0.2259
30898W        W47745   0.013   0.427   0.374  0.3983  0.2948 -0.1682
30899W        W47746  14.123   0.867  11.556  0.2047  0.0972 -0.0014
30900W        W47747  13.492  17.435   1.828 -0.2754 -0.3019  0.1480
30901W        W47748   6.457  11.955   3.338  0.1135 -0.1449  0.2807
30902W        W47749   6.223  10.052   3.383  0.1683  0.0327 -0.1674
30903W        W47750  15.584  14.822  13.248 -0.1118  0.1898  0.0171
30904W        W47751  18.949  12.147   4.483  0.0042  0.1082  0.0768
30905W        W47752   7.088  12.060   1.239 -0.3775 -0.2197  0.0775
30906W        W47753  15.302   9.952   3.360 -0.2390 -0.2621 -0.0288
30907W        W47754  14.318   0.162   1.894 -0.0296  0.0387  0.0771
30908W        W47755  12.119   7.571  12.360 -0.2637  0.0545 -0.0530
30909W        W47756   2.198   9.562  14.415 -0.0954 -0.0514  0.1456
30910W        W47757   5.323   2.010   4.683  0.4257 -0.0036  0.2966
30911W        W47758   6.993   5.096  11.272 -0.0658  0.0707  0.0817
30912W        W47759   4.172  10.801   4.109 -0.4029 -0.1710  0.1861
30913W        W47760  16.882  17.312  14.706  0.0193  0.0095 -0.3490
30914W        W47761   2.279   3.230  11.195  0.2071 -0.0678  0.0275
30915W        W47762   0.232   4.217   1.908 -0.5386 -0.2366 -0.0063
30916W        W47763  13.051   8.967  12.999  0.3536 -0.0529  0.3980
30917W        W47764   6.749   7.673  11.857 -0.1211 -0.0023 -0.2393
30918W        W47765  18.427  15.148   4.723 -0.0592  0.0494  0.1418
30919W        W47766  11.855  16.955   0.751 -0.1018  0.1975  0.0275
30920W        W47767   4.310   4.820   3.974  0.1549  0.0473  0.4522
30921W        W47768  16.667   2.341  12.241 -0.0858 -0.1361 -0.1002
30922W        W47769  10.502  13.777   5.231  0.3072 -0.0860 -0.2183
30923W        W47770  13.541   3.240  13.746 -0.1454  0.2769 -0.1178
30924W        W47771   8.093  14.823   9.920 -0.2453  0.0674  0.2981
30925W        W47772   6.488   4.798   4.953  0.0998 -0.1640  0.2921
30926W        W47773   8.390  15.399  12.723  0.0018  0.2193 -0.2563
30927W        W47774   7.047   4.901   0.618 -0.1512 -0.2942  0.1745
30928W        W47775   5.703  11.814   3.715  0.2137  0.1420  0.2097
30929W        W47776   8.709  10.889  11.312  0.3396 -0.0852  0.4491
30930W        W47777   3.744  10.062   3.990 -0.3248  0.1948 -0.0099
30931W        W47778  13.754   4.022  10.984  0.1961 -0.1046 -0.2047
30932W        W47779   0.314  10.475  11.912 -0.2212  0.0531  0.3845
30933W        W47780   9.409   6.154  11.954 -0.2106 -0.0649 -0.2960
30934W        W47781  18.384   7.282  12.905 -0.2311  0.0290 -0.3850
30935W        W47782   9.383   6.191  10.088 -0.1521 -0.1418 -0.1059
30936W        W47783  17.994   2.442   1.750 -0.1272 -0.0239  0.0974
30937W        W47784   5.581   1.822  14.702  0.0093 -0.0139  0.1424
30938W        W47785  11.632   3.183  14.620  0.0411  0.0198 -0.0873
30939W        W47786   1.205   1.113   3.457 -0.1075 -0.1081 -0.1974
30940W        W47787   9.927  14.811  10.643  0.2607  0.0916  0.1326
30941W        W47788   8.586   4.868  10.508  0.2089 -0.1598  0.0672
30942W        W47789   0.344  15.399   2.032  0.0028 -0.0073  0.1357
30943W        W47790  16.974  17.222   0.735 -0.2080  0.0499  0.0492
30944W        W47791  12.673   7.596  12.312  0.0142  0.1126  0.0939
30945W        W47792  12.365   3.536   4.151 -0.2030  0.0141  0.0195
30946W        W47793   3.292   2.247   0.454  0.1610  0.2053 -0.2716
30947W        W47794   1.127   9.056   0.871 -0.0495  0.1059 -0.0662
30948W        W47795   5.656  16.304   0.599 -0.0226 -0.0035  0.0232
30949W        W47796   4.782  12.843  11.213  0.0497  0.1918 -0.0056
30950W        W47797  11.687   5.833   5.107  0.0690 -0.2401  0.1642
30951W        W47798   6.376   1.506  11.703  0.1555 -0.0038 -0.1068
30952W        W47799  10.892   7.122   3.299 -0.2037 -0.2078  0.1588
30953W        W47800  11.322   2.918   5.533 -0.0467 -0.0011 -0.1105
30954W        W47801  13.727   1.907   2.449  0.0335 -0.1104  0.2339
30955W        W47802   2.891   2.796  12.585  0.3432 -0.0310 -0.2732
30956W        W47803  10.444   6.155   4.578 -0.0076  0.4001  0.1258
30957W        W47804  12.926  14.735  11.433  0.0074 -0.2041 -0.1171
30958W        W47805  15.869   4.527  13.806  0.0231 -0.1936  0.0695
30959W        W47806  12.234   5.213  14.042 -0.0145 -0.2057  0.0391
30960W        W47807   2.397  15.480  11.802  0.0881  0.1189  0.2051
30961W        W47808   7.157  14.002  14.371 -0.0346  0.0320 -0.3474
30962W        W47809   1.345  14.680   4.281 -0.0413 -0.2579  0.1041
30963W        W47810  11.537  16.391   5.336  0.1064  0.1011  0.4123
30964W        W47811  11.174  11.155   0.822 -0.0967 -0.1511  0.1593
30965W        W47812  17.026  15.067  13.992  0.0329 -0.2064  0.0363
30966W        W47813  11.417  13.666   3.753 -0.2745 -0.2786 -0.0039
30967W        W47814   7.267   6.594  10.206  0.2166 -0.2078  0.1210
30968W        W47815  13.435  11.522  11.548 -0.1519 -0.1048 -0.0975
30969W        W47816   7.589  15.971   2.403  0.0748 -0.2150 -0.2674
30970W        W47817   4.173  11.729   4.665 -0.2579 -0.0739  0.0570
30971W        W47818  17.194   9.425  12.145 -0.0281  0.1107 -0.0232
30972W        W47819   8.570  17.106   1.050  0.1356  0.1398 -0.0935
30973W        W47820  17.766   1.387  14.869  0.3593 -0.1360 -0.0996
30974W        W47821  14.900   2.089  11.226  0.1428 -0.0229 -0.0483
30975W        W47822   0.562  18.682  14.492  0.1366 -0.2935  0.0212
30976W        W47823  14.381   2.913   5.783 -0.2431  0.3004 -0.3123
30977W        W47824  17.857  13.164   0.714 -0.0403 -0.0029 -0.2511
30978W        W47825  11.068   4.300   1.521  0.0678 -0.1442  0.2167
30979W        W47826  13.442   1.262   3.753  0.2232  0.3843  0.3657
30980W        W47827  13.265   0.970   0.653  0.0371 -0.1164 -0.1061
30981W        W47828   6.563  17.115  15.001  0.2072  0.1437  0.0449
30982W        W47829   5.847   5.681   1.813 -0.3019  0.3890 -0.1882
30983W        W47830  14.826   8.757   3.036  0.0441  0.1053  0.0076
30984W        W47831   4.788  16.597   4.287 -0.2623 -0.1935  0.3952
30985W        W47832  17.954   0.163   4.404  0.2840  0.1870  0.0912
30986W        W47833   5.672  13.301  11.335  0.1398 -0.1104 -0.2973
30987W        W47834  11.677  11.837  14.374 -0.1701 -0.3558  0.4556
30988W        W47835   1.104   0.644   1.063  0.2896 -0.2001  0.2487
30989W        W47836  16.227   4.649   2.492 -0.4372  0.0925 -0.2111
30990W        W47837   3.284   2.172   2.661 -0.2685  0.2801 -0.2538
30991W        W47838   1.595   1.333   3.103  0.0030 -0.0063  0.0375
30992W        W47839   8.835  18.670   1.331  0.2290 -0.1771 -0.3249
30993W        W47840   9.281  14.379   3.516  0.1241 -0.0724 -0.1088
30994W        W47841   8.329   9.402   0.309  0.0521  0.0247  0.1198
30995W        W47842  16.750   9.237  12.312  0.0668 -0.3186 -0.0082
30996W        W47843  17.142   8.676  11.690 -0.2213  0.2455  0.0163
30997W        W47844   4.510   6.269  11.108  0.0290  0.1875  0.0824
30998W        W47845   5.556   0.872  10.403 -0.0971 -0.0585 -0.1382
30999W        W47846   6.253  16.137  14.949 -0.0607 -0.1746  0.3869
31000W        W47847   6.143  11.516   0.307 -0.1083  0.1634 -0.0431
31001W        W47848   3.338  15.139  14.021  0.0731 -0.0400 -0.0294
31002W        W47849   4.450   8.908  14.970 -0.0447  0.0431  0.0389
31003W        W47850  13.646  16.458   0.891  0.1592  0.0063 -0.0999
31004W        W47851  10.883   4.217  14.126 -0.0931 -0.1108  0.3325
31005W        W47852  15.952  18.451  10.962  0.0944 -0.3905 -0.1303
31006W        W47853   8.689  12.543   1.213  0.0352  0.1821  0.0097
31007W        W47854   5.060   7.948   2.361  0.3849  0.1260  0.1537
31008W        W47855   5.632   6.687   2.469  0.1300 -0.0871  0.3055
31009W        W47856  16.667  16.504   0.427  0.0169  0.1676 -0.3168
31010W        W47857   5.072   9.792   0.482  0.0986  0.2330 -0.0406
31011W        W47858   5.617   1.227   0.609 -0.1681 -0.0850 -0.2970
31012W        W47859   1.367  10.266  11.994 -0.1232  0.0970 -0.1084
31013W        W47860   2.017   5.824   3.935 -0.2624  0.1675 -0.0965
31014W        W47861  17.257  16.428  14.244 -0.2366 -0.3468  0.1676
31015W        W47862   6.122  15.367  13.174  0.2327  0.0515  0.0369
31016W        W47863  16.008   7.147  14.623  0.2332  0.0828 -0.2792
31017W        W47864  10.376   0.874   4.951  0.0590 -0.2278 -0.3232
31018W        W47865   0.180  13.673  14.987 -0.0241  0.2857  0.1484
31019W        W47866   9.621   9.813   9.594  0.2709  0.0946  0.2094
31020W        W47867   3.109  13.271   4.053  0.0016 -0.4569 -0.1707
31021W        W47868  11.054  10.114  13.853  0.1457 -0.0225 -0.1674
31022W        W47869   4.063  19.040  14.190  0.1302  0.2136  0.0178
31023W        W47870   3.169  17.212   1.003  0.0877  0.0390  0.0763
31024W        W47871  13.015  15.442   1.311 -0.0622  0.0815 -0.0209
31025W        W47872  14.929   0.859  13.610 -0.0051 -0.0456  0.3391
31026W        W47873   3.442  10.487  11.111 -0.0220  0.0224  0.1242
31027W        W47874  18.882   3.634   1.101  0.0706  0.1009 -0.4823
31028W        W47875  13.660   6.504  12.291 -0.1371  0.2426 -0.0545
31029W        W47876  16.402   9.110   2.870 -0.0312  0.1795 -0.1414
31030W        W47877  17.050  17.737   1.734 -0.2637  0.0976 -0.0463
31031W        W47878   8.758   1.332   1.706  0.2545  0.2144 -0.1803
31032W        W47879   4.681   7.588   3.183 -0.1164  0.2952 -0.4815
31033W        W47880  18.855   5.541  12.948 -0.2825  0.1684 -0.1472
31034W        W47881   5.896   2.674   2.747 -0.0791  0.0455  0.0800
31035W        W47882  13.385  10.588   4.501 -0.1430 -0.1089 -0.1909
31036W        W47883  13.765   4.022   5.775 -0.0187  0.1358  0.1292
31037W        W47884  16.681   1.960  13.916  0.1708  0.1406  0.4120
31038W        W47885   9.762  12.043   4.296  0.3166  0.1752  0.1039
31039W        W47886  13.122  14.583   0.812 -0.0346 -0.0143  0.0088
31040W        W47887  17.461  12.496   3.182  0.0463 -0.3101  0.0220
31041W        W47888  15.388   6.380   1.693  0.1357  0.0206  0.1294
31042W        W47889  15.842  15.215  13.291 -0.2167 -0.2583  0.1306
31043W        W47890  14.161   8.187   4.044 -0.1632  0.0025  0.2497
31044W        W47891  14.308   2.256  12.027 -0.1680  0.2612 -0.1939
31045W        W47892   7.700  19.062   4.398  0.2447  0.0461 -0.1982
31046W        W47893  16.616   6.809   0.181 -0.0782  0.0026  0.3312
31047W        W47894  17.362  15.553   4.839 -0.0458 -0.2525  0.0931
31048W        W47895  16.813  16.232   0.090  0.0783 -0.1738 -0.0882
31049W        W47896   4.766   2.959   2.940  0.2210  0.0460 -0.1709
31050W        W47897   0.853  15.350  13.924 -0.0866 -0.1706  0.0779
31051W        W47898  17.568   7.521   2.685 -0.0770 -0.3094  0.0526
31052W        W47899   5.667  18.080   0.548  0.0186  0.1732 -0.0194
31053W        W47900  18.876   7.820   2.417  0.1230 -0.0271 -0.0998
31054W        W47901   3.519   3.412   3.161 -0.1341 -0.0384  0.2300
31055W        W47902   4.276  18.910   3.291  0.0719  0.1437  0.0414
31056W        W47903   1.240   0.891   2.068  0.1419 -0.1000 -0.0623
31057W        W47904  16.481   3.814  11.833  0.0138 -0.0909 -0.1738
31058W        W47905   8.532  18.705   0.812  0.1973  0.1572  0.0688
31059W        W47906   0.008   7.114   2.016 -0.2226 -0.2130 -0.0087
31060W        W47907   5.636  10.247   1.431 -0.1677 -0.0727 -0.0949
31061W        W47908   2.782   1.371  13.594  0.2630  0.1032  0.1368
31062W        W47909   6.778   1.583  14.176 -0.1731 -0.1043 -0.0260
31063W        W47910  17.646  15.543  14.296  0.1073  0.0576 -0.0695
31064W        W47911  12.236   4.479   3.462 -0.1335 -0.1091  0.0926
31065W        W47912   4.595   8.683  12.757 -0.1955  0.1408 -0.3549
31066W        W47913   2.267  19.148  11.750 -0.1896 -0.0805  0.2072
31067W        W47914  15.653  18.311   4.278  0.1107  0.3473 -0.2926
31068W        W47915   9.626  14.403   3.077  0.2295  0.0347 -0.0499
31069W        W47916  17.552  16.030  11.012 -0.1214 -0.1087 -0.0227
31070W        W47917   2.989   4.276   5.598  0.1040  0.0024 -0.0018
31071W        W47918  18.119  16.447   3.954 -0.0504 -0.0566  0.0747
31072W        W47919  11.360  13.358   2.890 -0.0258 -0.0557 -0.1793
31073W        W47920  18.420  11.974  14.973  0.0971  0.0710  0.0813
31074W        W47921   1.016  16.359  12.578 -0.0534  0.0585  0.2218
31075W        W47922   7.925   6.249  14.089  0.0042  0.0987  0.1090
31076W        W47923  17.156   9.303  10.745  0.1439 -0.0733 -0.0719
31077W        W47924   5.586  15.694   0.105 -0.0784 -0.0603 -0.1942
31078W        W47925   4.083   4.982  13.399 -0.0271 -0.2249 -0.0706
31079W        W47926  13.447  17.474   5.617 -0.1221 -0.1011 -0.0721
31080W        W47927  13.658  12.594   5.246  0.3199  0.0284 -0.0841
31081W        W47928   4.330   2.266   4.406 -0.0779 -0.0612 -0.0609
31082W        W47929   0.629  10.716  13.422 -0.0769  0.0033  0.1309
31083W        W47930  15.943   1.825   1.710 -0.2133  0.0633  0.0062
31084W        W47931  18.976   0.927  10.783  0.0035  0.2472  0.1762
31085W        W47932   6.113  16.343  12.447 -0.0373  0.2590 -0.0296
31086W        W47933   7.662  16.777  12.669  0.0139  0.3667 -0.1473
31087W        W47934   0.138   2.476   1.049  0.1186  0.0493  0.2495
31088W        W47935   9.644  17.042   1.352  0.0534 -0.5501  0.2080
31089W        W47936  16.538  10.134  12.286 -0.0533 -0.0246 -0.0759
31090W        W47937   7.218  14.969   1.104 -0.4473 -0.2661 -0.4150
31091W        W47938   2.584   8.642   4.061 -0.0738 -0.1399 -0.5029
31092W        W47939   3.050  14.513   0.147  0.3797 -0.4588 -0.2294
31093W        W47940   0.523   4.062  12.524  0.0146  0.0507  0.3167
31094W        W47941  12.438   7.482  12.790 -0.0496  0.1773 -0.0380
31095W        W47942  18.926   4.365   3.037  0.1673 -0.1784  0.1217
31096W        W47943  19.079  18.144  12.940  0.1533 -0.0920 -0.0553
31097W        W47944   6.051   6.370  14.799 -0.0965  0.1409 -0.0401
31098W        W47945  17.082   6.263   0.822  0.1132 -0.2395 -0.1727
31099W        W47946   1.786  18.051   4.479 -0.0452 -0.2443  0.0007
31100W        W47947  16.991  16.156   2.670 -0.1462 -0.1717  0.0202
31101W        W47948   8.933  10.228  12.072 -0.4385  0.0997  0.0152
31102W        W47949   6.374  12.716   0.226  0.3541 -0.1491 -0.2087
31103W        W47950  11.744   5.586   0.789  0.1578  0.1960 -0.2785
31104W        W47951  11.771   5.119   3.254  0.2810  0.0444  0.1368
31105W        W47952   9.658  18.449   4.342 -0.1362  0.0431 -0.1220
31106W        W47953   0.056   7.803   5.025 -0.2197  0.0335  0.1494
31107W        W47954  13.450  17.192   3.755  0.1267 -0.2569  0.2655
31108W        W47955   2.008  15.800  12.376 -0.1513  0.1481 -0.1798
31109W        W47956   1.577   9.153   0.042  0.2463 -0.1719 -0.0120
31110W        W47957  13.184   4.436   1.290  0.1288 -0.1002  0.1803
31111W        W47958  12.043   2.030  10.963  0.0253  0.0966  0.0712
31112W        W47959  13.135   3.541   2.523 -0.4947 -0.2112 -0.1060
31113W        W47960  13.531   4.118  14.022 -0.0729 -0.3268 -0.0738
31114W        W47961   1.361   1.882  12.872  0.1556 -0.0803  0.3535
31115W        W47962  13.412  16.984  12.941 -0.4543  0.2154  0.0868
31116W        W47963  14.597   9.734  10.170  0.1202 -0.2188 -0.0919
31117W        W47964  14.429  12.743   2.770  0.0282 -0.1168 -0.1484
31118W        W47965   3.157   1.676  10.845 -0.2471 -0.0332 -0.1485
31119W        W47966  16.002  17.477  14.953  0.2909 -0.1171  0.0164
31120W        W47967   6.133   2.304   4.194 -0.0170  0.0298 -0.1259
31121W        W47968   6.325   5.408  13.962  0.0741  0.3970  0.0360
31122W        W47969  11.152  18.338   2.335 -0.0854  0.1392 -0.3526
31123W        W47970   1.632   7.597   3.340 -0.1806  0.2329  0.0920
31124W        W47971  12.950   6.126   1.414  0.3400 -0.0094 -0.0783
31125W        W47972  17.396  11.738  12.122  0.0234  0.3257  0.0781
31126W        W47973   8.355  10.298   0.029  0.2410 -0.0637  0.1132
31127W        W47974   4.630   5.161  12.678 -0.0070  0.2146 -0.1386
31128W        W47975   8.611  15.950  13.149  0.1126 -0.1952  0.0492
31129W        W47976  13.404   3.865  14.509 -0.1267  0.1315 -0.1005
31130W        W47977  15.407   7.714   1.423  0.0398 -0.1029 -0.0852
31131W        W47978  12.206   8.338   1.771 -0.1306 -0.0816  0.0556
31132W        W47979  15.559   8.178   1.328  0.0876 -0.0052 -0.1284
31133W        W47980  18.642  17.297  12.201 -0.1823 -0.1240 -0.0779
31134W        W47981   9.474  17.681   1.941  0.2775  0.1001  0.1339
31135W        W47982   6.850  18.115  13.473 -0.1582  0.0966 -0.0458
31136W        W47983  17.187  16.938   3.462 -0.0848 -0.3675  0.4725
31137W        W47984  18.071  13.245  10.813 -0.0739  0.2870  0.0609
31138W        W47985  14.858  13.969  14.229  0.2893 -0.0976  0.0027
31139W        W47986   6.759  13.616  10.727  0.0949  0.0417 -0.0033
31140W        W47987  18.845  16.718   0.907 -0.0274  0.1432  0.1025
31141W        W47988  13.936  11.295   3.828  0.1685 -0.0954 -0.1547
31142W        W47989   7.597  12.024   1.653  0.0644  0.0674 -0.0449
31143W        W47990   7.536  17.902  11.886  0.4224 -0.1245 -0.5248
31144W        W47991   5.501  17.873   4.980  0.0216  0.1505  0.0437
31145W        W47992   7.745  18.620  13.224 -0.0507  0.3749 -0.1145
31146W        W47993   3.414  11.363   2.473  0.1661 -0.0422  0.0531
31147W        W47994   7.894   8.004  10.713 -0.1005  0.1714 -0.1701
31148W        W47995   4.669  13.638   2.518 -0.1142 -0.0240 -0.1788
31149W        W47996  10.100  16.722  12.692 -0.2461  0.0178  0.0751
31150W        W47997   1.275   3.997  11.881 -0.2483 -0.0903 -0.2005
31151W        W47998  12.204  11.207  10.460 -0.2457  0.2356  0.2105
31152W        W47999  18.807   8.095  14.300 -0.1655 -0.2516 -0.0818
31153W        W48000   6.626  15.779   3.455  0.2741 -0.0056  0.0738
31154W        W48001  10.284  16.592   1.623  0.2080  0.0306  0.0474
31155W        W48002  15.920   6.758   2.441  0.1877  0.1723  0.4906
31156W        W48003  13.549   4.093  13.248  0.0746 -0.1649 -0.0302
31157W        W48004   7.174   6.236   2.102 -0.0499 -0.2291  0.4990
31158W        W48005  15.178   5.168   0.105 -0.1144  0.1399  0.0722
31159W        W48006   4.145   5.020   1.994 -0.0023  0.0542  0.3020
31160W        W48007   7.843   1.464  10.946 -0.0684 -0.1210  0.1802
31161W        W48008  17.943   4.923  11.706 -0.2183  0.0171 -0.0019
31162W        W48009   3.583   7.918  10.888 -0.1824 -0.1549  0.3344
31163W        W48010  14.567   9.151   0.368  0.0557 -0.0651 -0.0953
31164W        W48011  13.538   4.897  12.811  0.1677  0.0785 -0.1877
31165W        W48012   5.418   6.086   1.338  0.2217  0.1049 -0.2530
31166W        W48013   3.631   7.876   4.237  0.2081  0.0049  0.0360
31167W        W48014  19.029   5.127   2.308  0.0245 -0.2236  0.1917
31168W        W48015  17.993   6.127   3.331 -0.2302 -0.1610  0.0719
31169W        W48016  17.616   4.011  14.093 -0.0965  0.1564 -0.1204
31170W        W48017   3.024  11.636   0.404  0.2513 -0.0121  0.0495
31171W        W48018  13.899  18.912   0.813  0.1744  0.1660  0.0902
31172W        W48019  12.972   2.216  13.329 -0.0139 -0.1453 -0.1480
31173W        W48020  12.105  11.715  12.502  0.2496  0.3159 -0.2869
31174W        W48021  18.101   1.291   1.761 -0.0512 -0.0230  0.1287
31175W        W48022  11.084   8.398   3.220  0.2605  0.1514 -0.0145
31176W        W48023  11.047   1.529  11.330 -0.0393  0.1515 -0.1003
31177W        W48024  17.317   1.010  12.166 -0.0162 -0.0230 -0.4100
31178W        W48025   5.655   1.670  13.246 -0.0179 -0.0465 -0.1042
31179W        W48026   3.922   5.183  11.076 -0.2829  0.4034 -0.1898
31180W        W48027  13.151  17.378  11.409 -0.0545 -0.0957  0.2689
31181W        W48028  12.640   4.624   3.174 -0.0573  0.1348 -0.3824
31182W        W48029  12.634   0.989   3.269  0.0412 -0.0293  0.0903
31183W        W48030   4.279  16.349   2.510  0.2050  0.0558  0.5473
31184W        W48031   7.255  17.345   2.808 -0.4321 -0.1277  0.0757
31185W        W48032  17.250  18.606  14.521 -0.0496  0.1778  0.0633
31186W        W48033  18.388  18.806   1.983  0.1429  0.2293 -0.0980
31187W        W48034  10.788   7.212  13.764 -0.2201 -0.0424 -0.3048
31188W        W48035   4.718  17.413  10.879 -0.2988  0.0665 -0.4593
31189W        W48036   8.377   0.034  11.622 -0.2533  0.1284 -0.0860
31190W        W48037   3.683  18.845  10.379  0.0502 -0.0472  0.1238
31191W        W48038   2.449  17.989   5.423 -0.0553 -0.2188  0.0169
31192W        W48039   1.964  17.460  12.620 -0.2840 -0.1399  0.1182
31193W        W48040   1.082  13.407   0.073 -0.1195  0.0379  0.0617
31194W        W48041   6.234   3.780  14.944 -0.2456  0.1611  0.1554
31195W        W48042  14.842   6.330  11.559  0.0401  0.0271 -0.1472
31196W        W48043   4.578  16.779   3.832 -0.0147 -0.1241 -0.3292
31197W        W48044   2.445  16.807  14.298 -0.0391 -0.0109  0.0118
31198W        W48045   5.596   0.612  12.669  0.0125  0.0337  0.1255
31199W        W48046   8.798  18.261   1.030  0.1098 -0.1275  0.2287
31200W        W48047  11.531  12.539  10.464  0.3475  0.0849  0.4735
31201W        W48048   9.310  15.901  13.775 -0.1041 -0.1495  0.4273
31202W        W48049  16.636   4.870  12.376 -0.1653 -0.1759  0.0341
31203W        W48050  16.631  13.159  13.150 -0.0017 -0.2562  0.0261
31204W        W48051   7.183   7.047   3.349 -0.1898  0.1976  0.2522
31205W        W48052  16.067  13.681   3.092  0.2787 -0.2049  0.1713
31206W        W48053   0.566  12.236   5.345 -0.0130 -0.1202 -0.3587
31207W        W48054  16.578  12.311   2.596 -0.1097 -0.0586  0.0026
31208W        W48055   8.833  11.963  14.110  0.2244  0.1362 -0.0148
31209W        W48056  12.271  10.898   2.209 -0.0580 -0.0654 -0.0211
31210W        W48057  11.873   6.225   0.023  0.0917 -0.0813 -0.0411
31211W        W48058  17.594   3.234  13.469  0.2056  0.0140  0.0953
31212W        W48059  16.186   7.321   3.110 -0.2335 -0.0289  0.4907
31213W        W48060  12.022   5.733   1.280  0.0075 -0.1295  0.0865
31214W        W48061   5.487  12.519   4.436  0.1756  0.2286  0.0039
31215W        W48062   3.658   2.850  11.174  0.0909 -0.1413  0.3521
31216W        W48063  17.669   2.955   5.864  0.0052 -0.2819  0.4149
31217W        W48064   0.826  15.335  11.865 -0.0742 -0.0644 -0.2203
31218W        W48065  18.488  14.914   2.902  0.4438  0.2764  0.0420
31219W        W48066   3.842   8.748   1.980  0.2857 -0.0262  0.0091
31220W        W48067  14.182   0.957   0.881 -0.0296  0.1608 -0.0814
31221W        W48068  18.179  12.796   1.461 -0.1000  0.1033  0.0973
31222W        W48069   7.210  16.206  12.934 -0.1913  0.0328  0.2298
31223W        W48070  16.721  12.795  13.519  0.4042 -0.2089 -0.2690
31224W        W48071  17.825   8.701   2.239 -0.0359  0.2452  0.2410
31225W        W48072   1.807   3.769   2.645 -0.1625  0.0821  0.1117
31226W        W48073  10.697  16.030   1.049 -0.2159 -0.2281  0.3326
31227W        W48074  15.614  12.834   3.460  0.0125 -0.0992 -0.1896
31228W        W48075   8.946  18.794   4.839  0.2729  0.0881  0.2136
31229W        W48076  10.745   8.218  12.904  0.1665 -0.1230  0.1463
31230W        W48077   0.575  13.170   1.803 -0.2417 -0.1655  0.4692
31231W        W48078  15.513  12.379  13.459  0.1350  0.0480  0.1678
31232W        W48079   6.165  13.960  12.473 -0.1264  0.0467 -0.1942
31233W        W48080   0.552   9.941  13.897 -0.1438 -0.1867  0.0026
31234W        W48081  10.969  16.776  11.236 -0.1537 -0.1297 -0.1946
31235W        W48082   4.957   3.206  13.729  0.2632 -0.0830  0.2669
31236W        W48083  14.333  17.907  11.864  0.1690  0.1623 -0.0508
31237W        W48084   4.888  14.186   2.415 -0.1885  0.1652 -0.0377
31238W        W48085   2.727  18.798  12.235 -0.0530 -0.0759  0.0093
31239W        W48086  14.462  15.942   4.566 -0.0269  0.0209 -0.1111
31240W        W48087   1.166   7.022  11.693 -0.2175 -0.0925 -0.0846
31241W        W48088   9.084   3.190  10.695 -0.6309  0.2598  0.3113
31242W        W48089  11.947   9.785   3.380  0.2481 -0.1524 -0.0454
31243W        W48090  12.858   5.666  12.873 -0.2029  0.0429  0.2619
31244W        W48091  17.534   2.573  12.286  0.1658  0.0948  0.0677
31245W        W48092   8.933  12.209   2.527  0.0404  0.2215 -0.1633
31246W        W48093  16.227   6.245  14.400 -0.1742  0.2421  0.3639
31247W        W48094  11.347   9.426  10.370 -0.5699  0.1420 -0.2202
31248W        W48095  17.342  10.539   4.727 -0.5598 -0.1360  0.0780
31249W        W48096  17.967  12.339   0.473  0.2301 -0.0291 -0.2114
31250W        W48097  10.809  12.078   4.595  0.1385  0.1040 -0.2583
31251W        W48098   6.439   8.466  12.270 -0.3433  0.0787 -0.0149
31252W        W48099   4.741  15.298  14.216 -0.2884  0.1132 -0.1292
31253W        W48100   3.834   3.476  12.644  0.0213  0.1352  0.0156
31254W        W48101  11.631   0.979  14.921 -0.3623  0.0229  0.0498
31255W        W48102  13.030   6.977  13.378  0.0780  0.1800 -0.1584
31256W        W48103  18.740  12.244  14.690  0.1620 -0.1041 -0.0359
31257W        W48104  16.898  14.359  14.899 -0.1897  0.2375 -0.0480
31258W        W48105   2.791  18.751  13.153  0.1507 -0.0800  0.0371
31259W        W48106   3.647  19.193  14.466  0.0295 -0.1652 -0.0635
31260W        W48107  16.648  10.020   4.784  0.1066 -0.2890 -0.0047
31261W        W48108  16.614  13.030   2.406  0.3516 -0.0699 -0.1250
31262W        W48109  18.152   9.371   3.558 -0.1415 -0.1113  0.0468
31263W        W48110  11.858  14.449  12.986 -0.0134  0.3099  0.2681
31264W        W48111  18.917  19.188   0.852 -0.2759  0.0398 -0.0276
31265W        W48112   4.757   5.232   2.284 -0.1872  0.0940  0.2899
31266W        W48113   9.784  15.534  14.757  0.0423 -0.0136  0.0980
31267W        W48114   7.759   2.057   1.801 -0.0975  0.1817 -0.1152
31268W        W48115  10.246  16.950   0.704  0.0285  0.1105  0.1924
31269W        W48116   7.594   3.619   0.453  0.4276  0.2677 -0.0933
31270W        W48117   8.866  17.270  11.813  0.0209 -0.0393 -0.0542
31271W        W48118   6.317   9.833  12.955 -0.0579 -0.0094 -0.2114
31272W        W48119   3.029   2.812  11.118  0.5389  0.1593  0.0164
31273W        W48120   0.348   3.928   3.157  0.2357 -0.0830 -0.2104
31274W        W48121  14.575   2.086  10.848  0.0089 -0.1821 -0.0509
31275W        W48122   9.191  12.552  13.595 -0.2795 -0.2631  0.0397
31276W        W48123   6.931   0.937   5.268  0.0911 -0.2739 -0.0205
31277W        W48124  16.563   6.905  13.080 -0.0590  0.0317  0.0848
31278W        W48125   3.446   7.770   2.067  0.3243 -0.2081 -0.4839
31279W        W48126   7.971   7.099   0.880  0.0904 -0.4304 -0.2041
31280W        W48127   8.066  11.976  11.913  0.0706  0.3799  0.0250
31281W        W48128   8.151   7.527   9.959  0.3651  0.1483 -0.0379
31282W        W48129  16.626  13.306  13.751  0.1269  0.0571 -0.1058
31283W        W48130  10.936  15.954  10.977  0.0472 -0.2094 -0.1468
31284W        W48131  12.382   4.244   1.566  0.1070 -0.3335  0.2395
31285W        W48132  14.237   6.448   5.360  0.1820  0.1768 -0.2659
31286W        W48133  16.584  12.848  10.907  0.3241 -0.0516 -0.1839
31287W        W48134   4.716  18.272  14.271 -0.2303  0.0384  0.0782
31288W        W48135  18.799   1.541   3.580  0.0606  0.0019  0.3283
31289W        W48136   7.690   6.621   1.019  0.2776  0.0717  0.0273
31290W        W48137  11.627   6.638  14.822  0.1033 -0.1333  0.1925
31291W        W48138  15.899   3.534   3.190  0.1229 -0.0821 -0.2929
31292W        W48139   5.530   5.482  10.291 -0.1374 -0.2585 -0.0626
31293W        W48140  10.708  16.825   4.013  0.0601  0.1604 -0.1111
31294W        W48141   9.459  11.971   2.527  0.1479 -0.0562  0.1377
31295W        W48142  17.037   6.767  13.165 -0.4514  0.1882 -0.1462
31296W        W48143   8.809   9.932  12.811 -0.1044 -0.0339 -0.1906
31297W        W48144  12.363  16.978  14.542  0.1706  0.0473  0.0158
31298W        W48145   3.786   3.370  10.984  0.0698 -0.0242 -0.1827
31299W        W48146   9.833   6.445  13.655 -0.2743  0.1112 -0.0299
31300W        W48147  16.414  12.428   1.575  0.0732 -0.1848 -0.1138
31301W        W48148   4.595   2.863   1.400 -0.2117 -0.2501  0.1288
31302W        W48149   9.469  11.609   3.749  0.3825  0.2203 -0.1268
31303W        W48150  11.714   1.483   9.913  0.1996 -0.0075  0.2855
31304W        W48151  15.609   9.315   5.034 -0.1695 -0.0889 -0.0905
31305W        W48152   4.818  10.047   4.854  0.1887 -0.1229  0.2669
31306W        W48153   8.574   7.250   3.423 -0.2872  0.0669  0.0803
31307W        W48154   4.150  14.998   4.378  0.2021 -0.2135 -0.0875
31308W        W48155   3.844  16.981  10.839 -0.1781  0.1914 -0.1503
31309W        W48156  11.926   9.555  11.377  0.0807 -0.4590 -0.2249
31310W        W48157   9.451   2.087   0.937 -0.0225  0.3346 -0.0567
31311W        W48158  16.476  14.417  12.804  0.1210  0.2997 -0.1042
31312W        W48159   6.098   6.315  10.383 -0.1469 -0.0107  0.3333
31313W        W48160  11.297  14.575   2.456  0.0148  0.0414  0.0910
31314W        W48161   6.590   9.514   1.493 -0.1538  0.0373 -0.1144
31315W        W48162   3.779   7.129   2.538  0.1146 -0.1405 -0.2953
31316W        W48163  10.828   4.596  11.143 -0.1341  0.0380 -0.2913
31317W        W48164   0.731  14.525  13.222 -0.0360 -0.1180 -0.1459
31318W        W48165   5.041   6.265   1.555  0.0620 -0.2662 -0.1537
31319W        W48166   0.289  16.109  11.398 -0.3564 -0.0866  0.2224
31320W        W48167   9.716  17.018   0.272 -0.1220  0.0213 -0.3371
31321W        W48168  14.208   9.564   0.178 -0.0964  0.1638 -0.0882
31322W        W48169   0.376  11.802   9.687  0.0504  0.1711 -0.0441
31323W        W48170  15.275  11.966  12.806  0.0588 -0.5660  0.0969
31324W        W48171   0.982   7.122   0.837 -0.0506 -0.3260 -0.0350
31325W        W48172   0.426  11.101  10.741  0.0329 -0.1381  0.0554
31326W        W48173  18.461   3.561  13.535 -0.0311 -0.1871 -0.1881
31327W        W48174  10.067  11.551  11.847  0.2420  0.3035  0.1075
31328W        W48175   3.143  16.654   4.215  0.2065 -0.0492  0.1869
31329W        W48176   4.003  11.859   4.219  0.0196  0.0915  0.0753
31330W        W48177  18.742  13.001   0.829 -0.1625  0.0547  0.0628
31331W        W48178   5.326   4.287  13.182 -0.2565  0.1731  0.0979
31332W        W48179  14.675   2.951   0.065  0.1761 -0.2559  0.1099
31333W        W48180   5.733  10.642  14.145 -0.3699  0.1946  0.1679
31334W        W48181   0.709  16.328   2.675  0.0211 -0.0216 -0.1353
31335W        W48182   6.949  11.708   2.977 -0.0211 -0.3626 -0.0486
31336W        W48183  17.311  11.585  10.126 -0.0019  0.3285 -0.2707
31337W        W48184  15.353   2.378  14.108 -0.0300 -0.1262 -0.2663
31338W        W48185   6.538   2.882  11.808  0.2824 -0.1673  0.0105
31339W        W48186   2.325  15.858   5.125  0.3298 -0.1102  0.0170
31340W        W48187   5.411   4.631  12.105 -0.3238  0.0486 -0.0175
31341W        W48188   0.406  10.138  10.668  0.0158  0.0656  0.2712
31342W        W48189  19.027   5.549  11.212 -0.0779 -0.0244 -0.1790
31343W        W48190   5.820   0.297  14.747 -0.0829 -0.1107  0.0514
31344W        W48191  17.409   0.304   0.473 -0.1749 -0.1306 -0.2080
31345W        W48192   9.436  10.335   1.401  0.0855 -0.0332 -0.0907
31346W        W48193  14.737  18.450   5.628  0.0656 -0.0179 -0.0113
31347W        W48194   3.771   6.497   0.280 -0.2597 -0.4784 -0.2350
31348W        W48195  17.590   4.385   3.812  0.0159  0.0516 -0.0405
31349W        W48196   0.188  10.867  12.233 -0.0240  0.2302 -0.1007
31350W        W48197  15.025   5.165   5.514 -0.2499  0.0206 -0.2543
31351W        W48198   4.351  18.332   2.244  0.1234 -0.2788  0.0620
31352W        W48199  19.103   1.690  14.091 -0.1103  0.2180  0.2542
31353W        W48200   6.867   5.612   9.146  0.1525 -0.1753 -0.0688
31354W        W48201  14.405  11.785   4.997  0.0304  0.0324 -0.3756
31355W        W48202   1.708   7.791   4.164 -0.1049  0.1370 -0.0770
31356W        W48203   1.229   3.803   4.914 -0.0271 -0.0689 -0.2921
31357W        W48204  19.078  10.626  14.032 -0.0044 -0.3502 -0.0576
31358W        W48205  17.764  14.701   2.345 -0.1149 -0.1460 -0.2925
31359W        W48206  12.431  16.836   1.862  0.0546 -0.4106 -0.0068
31360W        W48207  17.947  18.138  10.902  0.0301  0.2161 -0.3499
31361W        W48208   8.306  12.678   0.887  0.1857 -0.4340 -0.0747
31362W        W48209   6.252   7.761  11.848  0.0198 -0.0669 -0.2550
31363W        W48210  16.514  19.014   0.730  0.1680  0.0044  0.1169
31364W        W48211  10.400   9.678   3.703  0.1009 -0.0344 -0.3861
31365W        W48212   9.191   6.659   4.292  0.1330 -0.1475 -0.0085
31366W        W48213  12.885   3.017  12.378  0.0296  0.0500 -0.1978
31367W        W48214   9.513   7.614   4.222 -0.1038  0.2850  0.0846
31368W        W48215   0.870   5.860  12.171 -0.1524 -0.1619  0.0117
31369W        W48216  15.701  12.031   2.587 -0.2724 -0.1028 -0.2926
31370W        W48217  13.704  10.335  14.292 -0.1020 -0.2147 -0.1619
31371W        W48218   5.471  11.356   4.748  0.0543 -0.1137 -0.1306
31372W        W48219   5.574   8.702  14.302  0.2575  0.0820  0.0705
31373W        W48220   2.519   1.108  11.050 -0.0823 -0.0987  0.0093
31374W        W48221   3.647  19.025   2.736  0.1330  0.0015  0.0005
31375W        W48222  14.741   6.443  14.748 -0.2053  0.2538 -0.2062
31376W        W48223  13.598  14.785   1.727 -0.0359 -0.0835  0.0726
31377W        W48224   0.333  17.057  12.121 -0.2196 -0.2809  0.0278
31378W        W48225  18.915   9.020   3.919  0.0586 -0.0088 -0.0814
31379W        W48226  11.006  13.448   1.862 -0.0672 -0.0773 -0.1578
31380W        W48227  11.514   5.511   4.612 -0.2803  0.2370  0.1823
31381W        W48228   2.945  19.172   4.921  0.1732  0.2621  0.1074
31382W        W48229  17.768   8.898   1.124 -0.0345  0.0530  0.0428
31383W        W48230  17.600  10.342  13.729  0.1873 -0.2434  0.0589
31384W        W48231  10.989   0.089  12.251  0.0714  0.0264 -0.0950
31385W        W48232  16.649  14.787   2.955 -0.0215 -0.1723  0.0894
31386W        W48233  16.206   8.195  14.955  0.0475 -0.0245  0.1841
31387W        W48234  10.131   7.635   9.393  0.1029  0.3549 -0.1095
31388W        W48235  10.503   3.011  13.362  0.2645 -0.1313  0.3563
31389W        W48236   1.698  15.953  11.034  0.1486 -0.2765  0.2739
31390W        W48237   6.602  18.002  14.266 -0.3162  0.1630  0.0255
31391W        W48238   7.439   4.968   3.681  0.0156  0.1943 -0.0290
31392W        W48239   5.324   9.880   3.390  0.0226 -0.0579 -0.3781
31393W        W48240  11.460   7.462   1.255  0.2469  0.0249 -0.1800
31394W        W48241  14.306  11.007   3.428  0.2970 -0.1081 -0.1530
31395W        W48242  12.414  16.295   1.259  0.0498  0.0041 -0.2308
31396W        W48243  16.581  13.366  11.832  0.0879  0.0612  0.2248
31397W        W48244   2.600   4.703  11.219 -0.2776  0.0633  0.1788
31398W        W48245  11.303  11.916   1.706 -0.0515  0.0339  0.2163
31399W        W48246  15.045   1.779   1.770  0.1059  0.0793  0.0130
31400W        W48247  12.244  13.287  14.920  0.0576  0.1766 -0.1351
31401W        W48248   9.150  13.679  12.581  0.1117  0.0280 -0.3769
31402W        W48249  14.387   9.383   1.963 -0.0412 -0.1378 -0.3207
31403W        W48250  13.879   3.624   2.134  0.0139  0.4424 -0.0859
31404W        W48251   6.570  10.844  14.111  0.2515  0.2597  0.0966
31405W        W48252   0.438  12.789   4.819  0.1947  0.1075  0.2016
31406W        W48253   7.436  14.358  14.657  0.1377  0.1703  0.0670
31407W        W48254  19.196  15.197   1.832 -0.3324  0.2342 -0.1042
31408W        W48255   0.524   6.204   0.938  0.1728  0.0738  0.0872
31409W        W48256   5.359  14.279  13.961 -0.3230  0.0336 -0.0440
31410W        W48257   2.388  16.606  12.555  0.4037  0.3210 -0.1366
31411W        W48258   8.521   7.329   9.723  0.0572  0.0458  0.3221
31412W        W48259  16.820   3.555   2.793  0.1364 -0.0198  0.0634
31413W        W48260   7.552   6.423  10.790  0.0659 -0.0461 -0.0240
31414W        W48261  10.735   0.347   0.211 -0.2396  0.1222  0.2000
31415W        W48262  10.731  11.722  12.121 -0.0552  0.2823 -0.0814
31416W        W48263   2.863   6.982  12.558 -0.2017 -0.1111 -0.1617
31417W        W48264   9.028   2.873  11.585 -0.0981 -0.3847  0.1702
31418W        W48265   4.702  14.839   1.103  0.3558 -0.0330 -0.1310
31419W        W48266   7.763   7.604   2.875  0.1407 -0.2316 -0.1791
31420W        W48267  18.403  12.125  13.212 -0.1193 -0.0817  0.3096
31421W        W48268   1.647   7.775   5.039  0.0363  0.0390 -0.0801
31422W        W48269  14.327  16.148  11.039 -0.0556  0.0736  0.0721
31423W        W48270   7.901  10.468  11.928  0.2393 -0.0250 -0.2370
31424W        W48271   2.919   6.801   2.820  0.0926 -0.3202 -0.1906
31425W        W48272  11.146  12.801  14.070  0.1104  0.0781 -0.3781
31426W        W48273   4.441  10.178  10.926  0.2004 -0.0852 -0.0073
31427W        W48274  17.359  15.350   4.006 -0.1044  0.1502  0.1116
31428W        W48275   9.137  11.988  14.954  0.0556 -0.2604  0.0415
31429W        W48276  11.051  18.830  12.248  0.2688 -0.2510  0.2376
31430W        W48277   3.980  18.872   1.858 -0.0103  0.0965 -0.0947
31431W        W48278  14.387   1.085   1.285 -0.0021 -0.4236 -0.1314
31432W        W48279  15.097   0.457   0.970  0.0660 -0.0387  0.0478
31433W        W48280   2.367   6.256   2.811 -0.2065  0.0401 -0.0937
31434W        W48281  11.810  18.376  13.593  0.1616  0.0945 -0.5223
31435W        W48282   1.350   8.554  11.821 -0.0365  0.0086 -0.4462
31436W        W48283   0.873  11.838  11.249 -0.1371  0.4634 -0.1455
31437W        W48284  19.113  10.275   1.546 -0.2643 -0.0501  0.1275
31438W        W48285   7.026   7.838  13.248  0.1151  0.1982 -0.0555
31439W        W48286   7.437   6.100   3.386 -0.0516  0.0062  0.1384
31440W        W48287  18.995   7.601  11.757  0.3864 -0.2118  0.0122
31441W        W48288   5.789   8.911   1.158 -0.0707 -0.0168 -0.3042
31442W        W48289  16.713   9.355   4.105  0.1775 -0.1923  0.1002
31443W        W48290  14.696  12.663  11.594  0.3416  0.1197 -0.3232
31444W        W48291   6.224   7.035  13.830 -0.0131 -0.0037 -0.0599
31445W        W48292   9.131   3.943   2.526  0.1042  0.0479 -0.1426
31446W        W48293   5.086   3.765  13.799  0.0751  0.1381 -0.3000
31447W        W48294   4.347   7.667   1.671 -0.2313 -0.0145 -0.1107
31448W        W48295   6.303   6.515   4.218  0.0216  0.0443  0.2128
31449W        W48296   2.115   8.879  11.006 -0.0071 -0.4095  0.1309
31450W        W48297   0.760   9.762   2.379  0.0341 -0.0831 -0.2641
31451W        W48298  15.019  15.016   2.642  0.1321  0.1093  0.2884
31452W        W48299   1.738  12.599  14.107  0.0711  0.0800  0.0770
31453W        W48300  18.410   7.860  12.913  0.0351  0.3881  0.0932
31454W        W48301   8.799  18.806  14.388 -0.1383  0.1481  0.2821
31455W        W48302  13.021  11.168   4.267  0.0043 -0.0041  0.3090
31456W        W48303  10.883  12.117  13.206  0.1500  0.0356  0.0677
31457W        W48304   6.727  10.589  10.570 -0.1061 -0.1274  0.2140
31458W        W48305  14.859  14.314  13.835 -0.2041 -0.0372 -0.0327
31459W        W48306  12.618   0.294   1.475  0.1807 -0.1580 -0.0990
31460W        W48307  12.591   4.918   2.759 -0.4201 -0.1923  0.0264
31461W        W48308  15.725   4.828   4.085  0.2297 -0.0573 -0.0520
31462W        W48309   4.124   0.640   3.015 -0.0337 -0.1093 -0.0829
31463W        W48310  16.718   3.270  12.534 -0.0584 -0.4167 -0.0314
31464W        W48311   0.273  18.369   2.575  0.1934  0.1169 -0.0148
31465W        W48312  12.904   6.056  12.019  0.3077  0.1739  0.2683
31466W        W48313  16.563  12.432  10.616  0.0813  0.3310 -0.0153
31467W        W48314   6.432  10.453  12.796  0.3893  0.1905 -0.2383
31468W        W48315   5.431   2.755  14.918  0.2110 -0.0444 -0.0737
31469W        W48316  17.964   2.393   2.769  0.2509 -0.0963 -0.3072
31470W        W48317   1.505  13.984  13.259  0.3101  0.0378 -0.2144
31471W        W48318   7.744   0.356  12.972  0.3592  0.1874 -0.4201
31472W        W48319   9.681  14.918   0.413  0.1240  0.0930  0.0011
31473W        W48320   7.928  14.051  10.200  0.1556 -0.0866  0.2389
31474W        W48321   7.130  12.972  13.292 -0.0808  0.2517 -0.2780
31475W        W48322   8.322   7.429  12.477 -0.1188  0.0818  0.0454
31476W        W48323   8.532  13.070   3.505  0.0440 -0.0633 -0.2718
31477W        W48324  10.559   3.334  11.732 -0.1607  0.1416  0.1647
31478W        W48325   2.208  14.036   3.938 -0.1666 -0.2055  0.1200
31479W        W48326   6.864  13.021  11.360  0.1150  0.3182  0.0675
31480W        W48327  17.053  15.186   5.099  0.2768  0.1871  0.0859
31481W        W48328  12.871   0.099   2.332  0.2807  0.1001 -0.2958
31482W        W48329   1.691  14.288  10.939 -0.2938 -0.0479 -0.2192
31483W        W48330   4.332   6.994   2.403  0.1590 -0.3158 -0.0891
31484W        W48331   1.890   7.857   3.681  0.1403  0.1460 -0.0199
31485W        W48332   3.282   6.456  14.492 -0.1593 -0.4091 -0.1508
31486W        W48333   6.737  15.756   5.513 -0.3073  0.1544 -0.1709
31487W        W48334   6.523   6.136  12.332  0.1133 -0.1000 -0.0382
31488W        W48335  11.397   1.861  12.275  0.0849 -0.0350  0.0372
31489W        W48336   9.300  18.728   5.241  0.1176  0.0680 -0.0633
31490W        W48337   4.050  14.519  14.364 -0.1026  0.0667 -0.2881
31491W        W48338  10.204  13.331  11.781 -0.1449  0.3268 -0.2884
31492W        W48339   5.789   2.772  14.576 -0.3389  0.0468 -0.1948
31493W        W48340  10.258   6.628  12.867  0.0804 -0.4480  0.1288
31494W        W48341   4.600  11.973  11.706 -0.1136 -0.1233 -0.2291
31495W        W48342   5.561  13.167   4.990  0.0458  0.1205 -0.2679
31496W        W48343   5.689  12.305  12.773  0.0246 -0.0401 -0.0120
31497W        W48344   1.948   3.340   3.470 -0.0307 -0.1164 -0.1965
31498W        W48345   8.379   6.335  14.831  0.0119 -0.0445  0.1946
31499W        W48346  15.297  11.356   2.118  0.0196  0.1041  0.2059
31500W        W48347  17.876  16.363   2.712  0.0613 -0.0170  0.3011
31501W        W48348  12.939   5.403   9.442 -0.2990  0.3050 -0.0754
31502W        W48349   9.912   8.377   4.635 -0.0277 -0.2198  0.0182
31503W        W48350   4.660   7.280   0.033 -0.0024  0.2590 -0.0873
31504W        W48351   0.992  18.957   3.125  0.0210 -0.0859  0.1332
31505W        W48352   0.114   0.904   1.452  0.0010 -0.0758  0.0257
31506W        W48353  12.035   9.978  13.718 -0.0132 -0.0130 -0.2347
31507W        W48354  14.292   9.170  13.231 -0.0523 -0.0811  0.1525
31508W        W48355   8.831  10.615  12.362 -0.1188  0.2898  0.1933
31509W        W48356   2.341  17.534  12.937  0.0460 -0.0322  0.2748
31510W        W48357  12.584   5.690  11.128 -0.1422  0.0392  0.0578
31511W        W48358  10.587  13.020   1.015 -0.0484 -0.1361  0.0794
31512W        W48359   1.945  10.555  11.358  0.2784 -0.0362 -0.0383
31513W        W48360   1.916  11.377   4.858  0.1401 -0.0746  0.0413
31514W        W48361  14.713  14.430   3.223 -0.0787  0.1304 -0.1681
31515W        W48362  13.130   7.614  11.012  0.1412 -0.0957  0.0466
31516W        W48363  14.973  13.586  12.712 -0.3762 -0.0919 -0.1665
31517W        W48364  11.718   2.633  12.678  0.0673 -0.1102 -0.0527
31518W        W48365   3.806  11.310   2.918 -0.1479  0.1809 -0.2804
31519W        W48366   8.044  16.852  11.819 -0.2265 -0.0265  0.0601
31520W        W48367  13.640  12.014   2.147 -0.1440 -0.2795 -0.0418
31521W        W48368  18.237   4.512  12.771 -0.0899  0.2094  0.0633
31522W        W48369   5.596   7.327   4.524 -0.4713  0.1518 -0.2718
31523W        W48370   2.377  11.469  14.712 -0.2698  0.1118  0.0939
31524W        W48371   5.394  16.831  11.115  0.0994 -0.2260 -0.0256
31525W        W48372   0.390   1.165  12.992  0.1318  0.3026  0.0054
31526W        W48373  13.912  15.818   0.434 -0.1166  0.2738  0.1513
31527W        W48374  10.424   6.137  10.909 -0.0939 -0.0077  0.4798
31528W        W48375  10.093   9.344   2.745 -0.1620  0.2557  0.1440
31529W        W48376  12.081  17.304   3.708 -0.0113 -0.2473 -0.2126
31530W        W48377   2.104   1.445   1.571 -0.2808 -0.4003 -0.2542
31531W        W48378   5.258   4.297   2.809  0.1872 -0.0315 -0.0230
31532W        W48379  13.350   0.170  11.745  0.1177 -0.3051 -0.0252
31533W        W48380   5.468  10.083  13.221 -0.0525  0.0307  0.2018
31534W        W48381   2.902   1.673   1.333  0.0275  0.1144  0.0736
31535W        W48382   4.470   3.433  11.870  0.2052  0.0765 -0.1817
31536W        W48383  14.469  13.764   2.691 -0.2278  0.3228  0.1910
31537W        W48384   9.438  13.238  12.449 -0.3685 -0.0216 -0.1059
31538W        W48385  14.132  15.214   2.253  0.1449 -0.0310 -0.0343
31539W        W48386   4.129   9.164  12.225 -0.1340  0.1368  0.5981
31540W        W48387  14.813  10.004   3.256 -0.0777  0.2303  0.3893
31541W        W48388   8.670  11.893   4.270  0.1182  0.0475  0.1804
31542W        W48389   8.326  16.683  10.760 -0.0466 -0.3957 -0.0661
31543W        W48390  12.549  11.428  12.179 -0.3308  0.0659 -0.2850
31544W        W48391  11.907   4.296   1.692  0.0818 -0.1316 -0.1603
31545W        W48392   1.791   4.231   2.373 -0.1112 -0.0595 -0.1518
31546W        W48393   3.003  12.743  13.575 -0.2246 -0.2741  0.0255
31547W        W48394   2.901  16.533   1.147 -0.3657 -0.0675 -0.0917
31548W        W48395   5.434   4.208   3.797  0.1440  0.2348  0.0932
31549W        W48396   2.596  14.436  10.458  0.0464 -0.0911  0.0505
31550W        W48397  12.473   0.647   1.770  0.1647 -0.1424 -0.3251
31551W        W48398  17.898  18.999   2.835  0.1120 -0.0944 -0.1769
31552W        W48399  10.639  15.256  10.956  0.2958  0.1228 -0.1165
31553W        W48400   5.064  16.917   3.959 -0.1490  0.0927 -0.0238
31554W        W48401   7.200  17.535  11.178 -0.2442  0.1286 -0.1469
31555W        W48402  11.546   1.430  13.402  0.0792  0.0113 -0.1845
31556W        W48403  10.781  18.952   2.883  0.0394 -0.1597  0.2016
31557W        W48404   2.212  18.016   0.903 -0.1784 -0.0257 -0.0210
31558W        W48405   5.875   3.333   1.379 -0.0488  0.1503  0.1190
31559W        W48406  11.511  17.302   3.764  0.0934 -0.1114  0.1323
31560W        W48407   4.051  18.152  13.207  0.0043 -0.3180  0.1023
31561W        W48408  14.908  15.454  12.987 -0.0190 -0.1747 -0.0682
31562W        W48409   8.444   2.605   4.330 -0.0122 -0.2438 -0.1466
31563W        W48410   8.012  12.559  10.400  0.0330 -0.4059 -0.0799
31564W        W48411  18.793  15.276  14.928 -0.0492  0.0045 -0.2742
31565W        W48412  18.300   3.230  12.072 -0.0220  0.1852 -0.0245
31566W        W48413  14.542   3.629  12.576 -0.3572  0.0537  0.2505
31567W        W48414   5.160   7.393   0.013  0.1770  0.1099 -0.1093
31568W        W48415   8.775   6.779  14.778  0.2788  0.2107 -0.3769
31569W        W48416   5.464  11.493   1.016  0.1640 -0.1985  0.2385
31570W        W48417  12.359   3.393   0.626 -0.0378  0.0930  0.2941
31571W        W48418  17.995   5.888   1.053 -0.1396 -0.2145 -0.2985
31572W        W48419  10.750   8.754   3.977 -0.0865 -0.2090  0.1535
31573W        W48420  13.182   1.160  13.008 -0.3083 -0.1118 -0.0318
31574W        W48421  17.254  13.036   4.128  0.1296 -0.1497 -0.1139
31575W        W48422  12.904   8.011   1.202 -0.0913 -0.0014  0.1016
31576W        W48423  12.222   5.967   0.723 -0.0577 -0.1562  0.1763
31577W        W48424   6.291  13.109  10.569  0.0546 -0.3797  0.1888
31578W        W48425  12.160  12.099   3.179  0.1406 -0.0968  0.0581
31579W        W48426   5.784  18.401  14.251  0.0188 -0.0327  0.0302
31580W        W48427  11.656  14.994   3.014  0.0046  0.1981 -0.1532
31581W        W48428   9.402  11.777  13.010  0.0185 -0.0914  0.1801
31582W        W48429  12.031   6.034   2.466  0.2279  0.1180  0.3604
31583W        W48430   8.019   6.052   4.033 -0.2417 -0.1341 -0.0780
31584W        W48431   3.920  18.965  13.136 -0.2282 -0.2668  0.1706
31585W        W48432  19.037  16.036   3.692 -0.0629  0.1263  0.0757
31586W        W48433   4.083  17.249   0.134 -0.1123 -0.1891 -0.1767
31587W        W48434  13.514   8.890   1.429  0.1630  0.3418 -0.1812
31588W        W48435  11.075   1.011   9.991  0.0805 -0.1817  0.2593
31589W        W48436  11.876  18.492   4.161 -0.0581  0.3006 -0.2539
31590W        W48437  18.772   3.621   3.929  0.1586  0.1620 -0.1638
31591W        W48438   6.353   6.486   1.785  0.4837 -0.0691  0.0065
31592W        W48439   1.657   5.672   2.288  0.1232 -0.0372 -0.2115
31593W        W48440  18.810   7.793  10.785  0.0823  0.1433  0.0569
31594W        W48441  13.525   4.156   3.200 -0.1047  0.0053  0.1280
31595W        W48442   4.330  12.353   0.500  0.0392  0.0084  0.0484
31596W        W48443   7.668  16.429   2.735  0.1008 -0.0161 -0.0928
31597W        W48444   1.140   3.146  13.831  0.0604  0.0911  0.0330
31598W        W48445  14.584  10.333   4.001 -0.0651 -0.1672  0.1612
31599W        W48446   3.580   3.500   4.668  0.0300 -0.2340  0.2955
31600W        W48447   7.173  17.906   0.888  0.0070 -0.3666  0.1688
31601W        W48448   5.382  16.135  14.007  0.1873  0.0190  0.3609
31602W        W48449   0.024   6.024   1.023 -0.0070 -0.4062  0.0940
31603W        W48450   6.381  16.181  11.009  0.2521  0.0082  0.0433
31604W        W48451  10.135   4.673   0.072 -0.0526 -0.0277  0.0247
31605W        W48452   9.129  10.578  15.017 -0.0683 -0.0396  0.2208
31606W        W48453   2.495  17.773  14.289  0.0598 -0.1704  0.1874
31607W        W48454   7.950  10.826  10.666 -0.0543  0.0239  0.2141
31608W        W48455  13.446   1.595  12.202  0.4774 -0.1624  0.2510
31609W        W48456  18.307   4.393  11.350 -0.4453  0.0074  0.1005
31610W        W48457   3.970  11.130  12.983  0.3003 -0.0918 -0.2259
31611W        W48458  13.888   6.351   1.745 -0.2005  0.0023  0.0922
31612W        W48459   2.971  18.570   3.371  0.2580 -0.0200  0.0013
31613W        W48460   6.684  18.536  14.387 -0.2803 -0.1596 -0.0671
31614W        W48461  17.300  15.036  11.780 -0.1594  0.0252 -0.0679
31615W        W48462   6.958  16.230   0.578 -0.0197 -0.1160  0.0579
31616W        W48463   1.343   7.481   5.426  0.0899 -0.3191 -0.0491
31617W        W48464  18.717  13.084  14.696  0.0547  0.2159 -0.2456
31618W        W48465   1.972  10.656   0.545  0.0054 -0.3960 -0.2237
31619W        W48466   0.289   5.801  11.430 -0.0699 -0.0166 -0.0057
31620W        W48467   5.084   2.363   1.396  0.1159  0.0899 -0.6236
31621W        W48468   3.320   0.349  11.171  0.2971 -0.3125 -0.2815
31622W        W48469   8.720  10.304   3.913 -0.1305  0.0141 -0.0997
31623W        W48470   0.322   2.806  13.429 -0.0614  0.3222 -0.1404
31624W        W48471   7.512  15.747   3.861  0.3079 -0.0626 -0.0238
31625W        W48472  12.778   4.078  11.556 -0.4003  0.2792 -0.0489
31626W        W48473   2.105   6.972   0.676 -0.2895  0.0845 -0.0053
31627W        W48474   1.588   6.410  12.918  0.4112  0.2364  0.2591
31628W        W48475   1.434   4.829   0.344 -0.3736  0.2607 -0.0114
31629W        W48476  12.771   3.526  14.077 -0.1234 -0.0305  0.0333
31630W        W48477   7.982   5.080  14.712  0.0740  0.2789  0.2437
31631W        W48478   4.345  12.763   2.606  0.1229  0.1889 -0.0314
31632W        W48479   0.227  13.952  12.778  0.1653  0.0023 -0.0984
31633W        W48480  16.916  13.381  14.738  0.2242  0.0167 -0.1027
31634W        W48481   0.287   1.835  14.146 -0.3660  0.0488 -0.1210
31635W        W48482   9.569   8.733  14.011  0.1080  0.0545  0.2296
31636W        W48483  12.255  14.355  11.890 -0.2106 -0.2415 -0.0472
31637W        W48484   9.160  11.462  14.815  0.2661  0.0622  0.2094
31638W        W48485   1.928  16.916  10.758 -0.0240 -0.1262  0.3166
31639W        W48486   6.181   6.705  11.639 -0.1048 -0.1115 -0.1967
31640W        W48487   5.538  15.740   5.723  0.0113 -0.0647 -0.0692
31641W        W48488   5.446   6.509   4.535 -0.2675 -0.1308  0.1791
31642W        W48489   5.768  18.833  13.085  0.2750  0.1709 -0.1335
31643W        W48490  18.192   4.012   1.029  0.1866  0.0829 -0.2732
31644W        W48491   7.158  16.649   1.548  0.0213  0.0558 -0.1198
31645W        W48492   3.752   1.161  14.947 -0.2157 -0.2207 -0.3171
31646W        W48493   6.813  11.279   1.732 -0.3741 -0.1595 -0.0850
31647W        W48494  10.229  14.335   1.502 -0.0145  0.1265 -0.0944
31648W        W48495   3.039  12.808  11.148  0.3253  0.0401  0.1645
31649W        W48496  12.932   8.372  11.566 -0.1741 -0.0384 -0.0961
31650W        W48497  11.422  14.541  11.400  0.0842 -0.1682  0.3916
31651W        W48498   4.710   1.584   4.831 -0.1110 -0.1013 -0.0148
31652W        W48499   0.838   8.483  14.969  0.0071  0.0319 -0.0239
31653W        W48500  12.651   6.709   3.572  0.1587  0.2135  0.3937
31654W        W48501   5.025   2.323  13.592 -0.0019 -0.0578 -0.1643
31655W        W48502  17.127  10.270  12.968  0.0324 -0.0714  0.0582
31656W        W48503   8.201   7.098   3.673 -0.1406 -0.1552  0.0120
31657W        W48504   8.848  14.039   0.979 -0.1328  0.0148  0.4695
31658W        W48505   5.480  16.065  10.549 -0.3786 -0.0187  0.0789
31659W        W48506   6.886   8.386   0.420 -0.2887 -0.0006  0.0699
31660W        W48507   6.753   3.358  12.431 -0.1624 -0.0586 -0.0612
31661W        W48508   1.646   9.599   3.368 -0.1945 -0.1682 -0.1790
31662W        W48509   8.085  10.048   4.186  0.1305 -0.2247 -0.2591
31663W        W48510  18.897   2.235  12.447 -0.3252 -0.1512  0.0188
31664W        W48511  10.267  17.958   4.769  0.0091 -0.0737  0.2244
31665W        W48512   8.160  19.221   1.905 -0.0903  0.0811 -0.4584
31666W        W48513   2.609   9.985  12.371  0.1360  0.1051 -0.0399
31667W        W48514   4.955  12.797  12.671  0.0110  0.2622  0.0122
31668W        W48515  14.123   8.641  14.195 -0.0567 -0.1028 -0.2750
31669W        W48516   7.485  11.514   1.861  0.3851  0.0535  0.0434
31670W        W48517   1.093   1.755  14.555  0.0774  0.2639  0.0545
31671W        W48518  18.053  11.574   1.590 -0.2016 -0.0104  0.0249
31672W        W48519  11.945  11.753   2.766  0.2680 -0.0555  0.0937
31673W        W48520   9.271   4.240  11.211  0.2302  0.1129  0.0040
31674W        W48521   1.981   0.316  13.115  0.3272  0.3819  0.0531
31675W        W48522  16.336   1.852   0.479  0.1373 -0.0914 -0.0274
31676W        W48523   0.314   5.164   9.194  0.2156  0.0447 -0.2292
31677W        W48524   3.068  19.152   2.067  0.0174 -0.0739  0.1632
31678W        W48525  11.879   9.447   2.627  0.0968  0.1044  0.1949
31679W        W48526   8.691  19.263   5.673 -0.0420  0.1187  0.1445
31680W        W48527  10.406   6.726   0.586 -0.0730  0.1930 -0.0638
31681W        W48528  18.783   1.891  14.851  0.2153  0.4758  0.0404
31682W        W48529  16.538   3.414   1.522  0.1032 -0.0310 -0.2702
31683W        W48530  14.329  10.569   2.772  0.0275 -0.2621 -0.1280
31684W        W48531   4.467   6.499   3.729 -0.0805  0.0871  0.1833
31685W        W48532  13.352   8.006  12.625  0.1963  0.1378  0.1238
31686W        W48533   0.449   0.706   1.774  0.2989 -0.0474 -0.1952
31687W        W48534  13.151   5.260  14.537  0.1491  0.1286 -0.2135
31688W        W48535  11.724   0.228  14.175 -0.1341  0.3415  0.5003
31689W        W48536   6.629  13.789  14.216  0.2353  0.0252  0.0428
31690W        W48537  18.811   7.151   0.485 -0.0910 -0.0181 -0.1081
31691W        W48538   8.343  14.719   4.703  0.3622 -0.0492 -0.1098
31692W        W48539   2.043  17.853  13.287 -0.0912 -0.1803 -0.3596
31693W        W48540  18.357  11.833  11.794 -0.2263 -0.2325  0.1864
31694W        W48541  18.119  13.909  12.959  0.0288  0.1835 -0.2774
31695W        W48542  14.964   7.440  12.985  0.0666 -0.0941  0.0130
31696W        W48543   7.323  14.432   2.534  0.0134 -0.2706 -0.0041
31697W        W48544   6.751   8.494   4.445 -0.1213 -0.1665  0.3314
31698W        W48545   9.524   9.881  10.796 -0.0796  0.1025  0.1528
31699W        W48546   2.247   9.566   2.117 -0.2277  0.1666 -0.0087
31700W        W48547  15.571  14.649   5.131 -0.0547 -0.3929 -0.0796
31701W        W48548   9.647  14.786   3.457  0.1763 -0.0327 -0.1380
31702W        W48549   9.194  12.519   1.170  0.1996 -0.3641  0.1103
31703W        W48550  13.586   0.547   1.242 -0.1048  0.2007 -0.2061
31704W        W48551  18.248  17.166   3.249 -0.1305 -0.0624 -0.2198
31705W        W48552   9.381   1.692   2.502 -0.1734 -0.0197 -0.2978
31706W        W48553   5.508  13.031   3.031 -0.0028 -0.2045 -0.0321
31707W        W48554   2.876   6.253   2.947  0.1331 -0.4701  0.2910
31708W        W48555   9.503  10.578  14.687 -0.0470  0.0563  0.1846
31709W        W48556   0.044   2.692  12.641  0.0730 -0.3728  0.3191
31710W        W48557  16.258   6.744  11.093 -0.1836 -0.1084 -0.1318
31711W        W48558   8.837  17.965   3.048  0.1675 -0.2367  0.0674
31712W        W48559   3.829  14.532   5.377  0.0672 -0.4940  0.0060
31713W        W48560   2.449  16.983   4.583 -0.0206  0.1916  0.0031
31714W        W48561   9.768  14.178  10.734  0.0259 -0.0614  0.0683
31715W        W48562   9.831  13.583   1.731  0.0476  0.1056  0.0957
31716W        W48563   5.061  17.493   1.073 -0.0348 -0.1497  0.1782
31717W        W48564   6.125   2.444   1.141  0.1837  0.0704  0.1093
31718W        W48565  15.953  16.457   3.663 -0.2545 -0.1643 -0.1494
31719W        W48566   1.323   4.834   1.290 -0.0040  0.1292 -0.0928
31720W        W48567   9.921  10.831  13.365  0.4277 -0.0042 -0.1525
31721W        W48568  15.257   9.773   1.805  0.2223 -0.0495  0.0506
31722W        W48569  11.867   3.972  14.183  0.0905 -0.2807 -0.2034
31723W        W48570  13.979   2.062  12.291 -0.1395 -0.2982 -0.1916
31724W        W48571  13.110   1.054  12.097  0.1479  0.0751  0.2995
31725W        W48572  18.233  14.668   0.980 -0.1719  0.4762 -0.3456
31726W        W48573   8.169  13.026  10.517  0.1298 -0.2414 -0.0917
31727W        W48574   1.979  11.208   0.653  0.1837 -0.0580 -0.0951
31728W        W48575   6.391   0.654   3.868 -0.1211 -0.1701  0.0036
31729W        W48576  17.806  17.615   0.330 -0.5683  0.4038 -0.0516
31730W        W48577   8.165  13.930   4.118 -0.2111  0.0412 -0.2098
31731W        W48578   0.428  11.405   0.442 -0.0165 -0.0941 -0.4279
31732W        W48579  12.179  17.424   5.022  0.3219 -0.2160 -0.0601
31733W        W48580  16.037   2.962   3.779  0.2012  0.3408  0.0741
31734W        W48581   7.365  16.981  14.044 -0.0699  0.0106 -0.1647
31735W        W48582  17.943   4.846   4.854 -0.1185 -0.0814  0.0149
31736W        W48583   9.718  15.318  11.091  0.0519 -0.1417  0.2821
31737W        W48584  16.126  17.867   3.822 -0.1661 -0.3178 -0.0706
31738W        W48585   8.072  13.475   0.442  0.0776  0.0643 -0.0347
31739W        W48586   5.799   8.585   0.404  0.1401  0.1385 -0.2588
31740W        W48587  16.664   8.487   1.349  0.2605  0.2313 -0.2608
31741W        W48588   7.700   8.232  11.367  0.0969 -0.2296 -0.1065
31742W        W48589  11.328  19.034  13.145  0.0866 -0.4456  0.0712
31743W        W48590  13.179   7.173  11.855 -0.0308  0.1383  0.2276
31744W        W48591  12.147   6.644   0.069  0.0561 -0.0948 -0.0103
31745W        W48592   8.396  13.744  13.877  0.1215 -0.4515  0.3205
31746W        W48593   1.776  19.010   2.075 -0.1371  0.1452  0.0653
31747W        W48594  19.089   7.560  14.078  0.0374 -0.0551 -0.0095
31748W        W48595  15.113   9.493  14.805 -0.0424  0.0717 -0.0089
31749W        W48596   9.981  19.158   1.208 -0.1774  0.1328  0.0086
31750W        W48597  14.614  14.345   3.678 -0.4183 -0.0339  0.3430
31751W        W48598  17.900  18.237  13.991 -0.0877  0.1436  0.2401
31752W        W48599   0.848   7.110   1.584  0.0126 -0.1732 -0.1165
31753W        W48600   3.798   1.666   3.306  0.0601  0.0712 -0.0683
31754W        W48601   1.121   6.697  11.197 -0.1395  0.0616 -0.0991
31755W        W48602  12.368   4.530  13.163  0.0208  0.3367 -0.2187
31756W        W48603  19.279   7.418  12.151 -0.1246  0.2066  0.0923
31757W        W48604  13.506   7.793  10.713 -0.0346  0.2104  0.1683
31758W        W48605  16.496   8.137  11.070  0.1784  0.0750 -0.1593
31759W        W48606   0.396   3.470   3.240  0.0754 -0.0320 -0.3035
31760W        W48607  14.669   8.423  11.945  0.0401 -0.0059  0.2315
31761W        W48608  12.997   4.799   1.853  0.1212 -0.0840  0.1645
31762W        W48609   0.399  12.397   2.318  0.0013  0.0062 -0.1210
31763W        W48610   5.695  12.037   3.231  0.1733 -0.1098  0.0283
31764W        W48611   5.628   6.529  12.055 -0.2464 -0.2552 -0.0534
31765W        W48612  11.879   0.052   4.507 -0.0801 -0.0713  0.0136
31766W        W48613   0.548  14.083   5.192  0.1344 -0.4234  0.0111
31767W        W48614   6.857   9.871   0.642  0.2072 -0.1127  0.0800
31768W        W48615  12.973  13.297   0.196 -0.0781 -0.0620  0.0090
31769W        W48616   9.963   4.476  14.177 -0.0033  0.2629  0.1905
31770W        W48617  12.953  13.520  14.451 -0.1130  0.1945 -0.0812
31771W        W48618  10.734   8.701  12.751 -0.1289 -0.1682  0.0396
31772W        W48619   2.549   7.930  10.123  0.1039 -0.0403 -0.1562
31773W        W48620  16.038  10.347  14.296 -0.1722 -0.1503 -0.0450
31774W        W48621   3.545  14.105   3.707  0.0166 -0.0107  0.1620
31775W        W48622   6.380   7.205   2.699  0.0412  0.0575  0.1558
31776W        W48623   9.206  18.588   0.036 -0.0099  0.1422  0.2581
31777W        W48624  18.614   1.348   1.173  0.2325  0.4040 -0.1711
31778W        W48625   1.534   7.267  12.104 -0.4085  0.1580 -0.0520
31779W        W48626  13.060   6.651  12.852  0.3046  0.0827 -0.0666
31780W        W48627   7.368   0.891   2.258  0.1837  0.0215 -0.2360
31781W        W48628  18.376  12.874   3.107  0.1691  0.1137  0.1281
31782W        W48629  17.391  18.268   4.591 -0.0326  0.2641  0.2519
31783W        W48630   1.281   5.828  12.583 -0.2948 -0.0115  0.2255
31784W        W48631   2.330  19.263   0.702 -0.0655  0.0049  0.0294
31785W        W48632   9.819  17.516   2.428  0.1533  0.0525  0.1282
31786W        W48633  12.244  10.320   2.233 -0.1007 -0.0613 -0.2733
31787W        W48634  12.748   7.413   4.172 -0.1710 -0.1318 -0.1580
31788W        W48635   2.704   4.973   3.614  0.0401 -0.1703 -0.0523
31789W        W48636  11.410   5.569   1.986 -0.0601 -0.0659 -0.0729
31790W        W48637   9.779  13.515  11.517 -0.3559 -0.1008 -0.4007
31791W        W48638  10.489  11.549   9.621 -0.0776  0.4483  0.2217
31792W        W48639   3.041  12.302   4.221  0.0379 -0.1636  0.1203
31793W        W48640   0.409   2.293  14.879  0.0635  0.2042 -0.2313
31794W        W48641   1.960  13.774   4.408  0.2673 -0.0094 -0.1205
31795W        W48642  10.336   9.567  13.526 -0.0154  0.1248  0.1724
31796W        W48643  18.197   1.647  14.962 -0.0957  0.0368 -0.0354
31797W        W48644  16.439  10.410  12.696  0.0458  0.1157  0.0916
31798W        W48645  10.738  12.689   3.162  0.1256 -0.2126  0.2644
31799W        W48646   8.016  12.491   0.467  0.2500 -0.0087  0.1445
31800W        W48647  15.876  15.439  10.322  0.1761 -0.3156  0.1492
31801W        W48648  12.555   3.753  11.205 -0.2196 -0.3163 -0.3453
31802W        W48649   1.937   8.761  14.481  0.0647 -0.0675  0.1116
31803W        W48650  10.044  12.134  10.270 -0.0097 -0.1074 -0.0653
31804W        W48651   2.584  16.419  12.109 -0.1514 -0.2325  0.0781
31805W        W48652   1.065  15.157   4.202  0.3415  0.1428 -0.2680
31806W        W48653  13.303   9.786  14.741  0.4846 -0.0973  0.0184
31807W        W48654  19.119   7.097  13.536 -0.0248  0.0473 -0.1014
31808W        W48655   1.454  11.759   5.240  0.0479 -0.0623  0.3723
31809W        W48656  19.240   8.789  12.221 -0.1847 -0.0333 -0.1250
31810W        W48657  14.411  17.893  13.177  0.0383 -0.0614  0.1364
31811W        W48658  18.335   1.855  11.464  0.0533  0.2663 -0.5445
31812W        W48659  14.899  19.251  13.175 -0.1242 -0.5107  0.0429
31813W        W48660  16.697   9.982  11.049 -0.1279 -0.1955  0.3014
31814W        W48661   0.744   7.038  14.839 -0.0361  0.4327  0.2117
31815W        W48662  13.217   4.396   9.306  0.0944 -0.0885 -0.1618
31816W        W48663  10.351   8.975  11.219 -0.0764  0.0650  0.0021
31817W        W48664  18.251  17.440   5.517 -0.2422 -0.0607  0.0142
31818W        W48665   5.356   4.561  14.717 -0.2395  0.1158  0.1744
31819W        W48666  11.706   5.192   1.778 -0.1256 -0.4016  0.2879
31820W        W48667   5.537  16.313  11.891 -0.4594 -0.1389  0.0960
31821W        W48668   3.689   4.546  11.581 -0.3232  0.0877 -0.3120
31822W        W48669  18.623   2.666   3.589 -0.0709 -0.5033 -0.2238
31823W        W48670  15.148  18.749   2.965  0.1009 -0.0604 -0.0634
31824W        W48671  16.192   5.736  14.292 -0.1977  0.3825 -0.1709
31825W        W48672   1.593   2.491   2.433 -0.2192  0.1848  0.0843
31826W        W48673   1.465   9.380  10.394 -0.0637  0.1240  0.0435
31827W        W48674   7.111  10.717  14.205 -0.0078  0.1976  0.0489
31828W        W48675  15.685  12.284   0.449  0.1141  0.2437  0.2300
31829W        W48676   5.551   3.775   0.424 -0.1925  0.1120  0.0720
31830W        W48677   5.259   4.089   0.787  0.1794  0.1963  0.2490
31831W        W48678  10.023   2.961  12.386  0.1578  0.4978  0.0702
31832W        W48679   8.280  15.224   4.587 -0.2267  0.2789 -0.1126
31833W        W48680  18.389  10.972   1.739  0.0869  0.1163 -0.1908
31834W        W48681  12.749   1.477   3.204 -0.3899  0.0609 -0.0537
31835W        W48682   5.602  11.499   3.121 -0.0190  0.1143  0.0321
31836W        W48683   4.208   6.307  14.522 -0.2895  0.0627  0.0932
31837W        W48684   4.149   6.319  12.110 -0.2786  0.0969 -0.0235
31838W        W48685   9.578  13.205  13.325 -0.2759  0.0336  0.1631
31839W        W48686   4.982   7.403  14.105  0.0658  0.1991 -0.0660
31840W        W48687  10.368   6.803   4.922  0.1710  0.3561 -0.1811
31841W        W48688  10.667   2.596  13.116 -0.1870 -0.0563 -0.1342
31842W        W48689   4.571   8.550   2.708 -0.1415  0.0419  0.3309
31843W        W48690  15.742   2.921  13.210 -0.2415  0.0252 -0.2447
31844W        W48691   9.739  10.079  14.549 -0.1609  0.5495  0.0405
31845W        W48692   8.460   9.139  11.048  0.0771 -0.1053  0.1680
31846W        W48693   0.901   8.273   1.844  0.0044 -0.2738  0.1082
31847W        W48694  19.131   7.044  12.443 -0.0143 -0.1985  0.3050
31848W        W48695  12.412  15.036  14.531  0.0188 -0.0964 -0.1104
31849W        W48696   8.637  12.197   1.624 -0.0162  0.0784 -0.2220
31850W        W48697  13.875   5.616   2.304  0.0482  0.2559  0.2007
31851W        W48698  13.607  16.798   2.967 -0.0852 -0.3884 -0.3110
31852W        W48699   9.844   5.770   3.909 -0.0019  0.1180 -0.0015
31853W        W48700   2.284  12.133   2.879 -0.0488  0.2588  0.0586
31854W        W48701  12.336   4.280   3.960 -0.0550  0.3545  0.1140
31855W        W48702   6.171  13.529   3.787  0.1726  0.0001  0.0610
31856W        W48703  11.485  17.813   5.539  0.2533 -0.3125  0.1015
31857W        W48704  18.985   1.822   9.807 -0.1930  0.1087 -0.0527
31858W        W48705  13.391   7.754   3.525 -0.1542 -0.0687 -0.4665
31859W        W48706   1.389   3.445  12.601 -0.1705  0.0704 -0.1417
31860W        W48707   2.305   6.650  10.775  0.0648  0.0926 -0.0893
31861W        W48708  16.922   6.158  14.872  0.1106  0.1931  0.0562
31862W        W48709  16.302  16.002  13.462  0.2367 -0.0605  0.3652
31863W        W48710  14.286  15.502  12.424 -0.0102 -0.1620  0.0059
31864W        W48711   9.995   9.363   3.784  0.0523  0.2740 -0.0544
31865W        W48712  14.925   8.092  13.809 -0.1192  0.0157  0.2264
31866W        W48713   8.987  16.034   0.016 -0.3218  0.2344  0.0407
31867W        W48714  12.738  13.316  13.223  0.1521 -0.1287  0.0287
31868W        W48715   2.922  14.658   1.080 -0.0952 -0.1353 -0.1750
31869W        W48716  11.565   4.299   3.704 -0.2106  0.1159  0.1063
31870W        W48717   9.668   0.265  12.543 -0.1033  0.0149  0.0644
31871W        W48718   8.545  11.865   2.506  0.0879 -0.0102  0.1973
31872W        W48719   0.562   6.526  14.867  0.1403  0.2008 -0.0168
31873W        W48720   0.289   8.230  10.778  0.1332 -0.0809  0.1283
31874W        W48721   2.448  15.547  14.858  0.0863 -0.1144  0.1451
31875W        W48722   9.431  18.718   3.400  0.0966 -0.2273 -0.0728
31876W        W48723   0.220  13.860  11.359  0.0852  0.2335  0.1432
31877W        W48724  16.815   6.609  10.363  0.0020 -0.1302  0.2292
31878W        W48725  13.894   0.269  13.852 -0.1972  0.1819 -0.0685
31879W        W48726   6.398   2.294   0.181 -0.1764  0.0966  0.3980
31880W        W48727   6.142   8.092  13.208 -0.5732 -0.1504  0.1227
31881W        W48728  11.472  13.986  11.716  0.3857 -0.0347 -0.0524
31882W        W48729   6.847   6.488  14.349 -0.0425  0.3870  0.0468
31883W        W48730  17.464   7.524  10.798 -0.0874  0.0750 -0.3523
31884W        W48731   7.694   5.018   1.794  0.4289 -0.0360 -0.1787
31885W        W48732   3.862  16.631   4.624  0.0781 -0.1777 -0.2266
31886W        W48733  17.029   6.505  12.720  0.0117 -0.0362  0.2388
31887W        W48734  18.398  15.147  11.050  0.0435 -0.0000  0.1549
31888W        W48735  14.703   3.570  11.697  0.1555  0.0190  0.2456
31889W        W48736  11.174  10.174   0.041  0.0208  0.2100  0.0515
31890W        W48737   4.686  17.112  10.509 -0.0876 -0.3610  0.1042
31891W        W48738   3.838   7.980   2.435  0.1287 -0.0251  0.0828
31892W        W48739   3.254  13.473   4.497  0.4170  0.1075 -0.0405
31893W        W48740  14.716   6.024   4.267 -0.3047  0.0122  0.4775
31894W        W48741   1.324   9.360  13.983  0.1286 -0.4506 -0.3802
31895W        W48742   3.628   7.510   3.885 -0.1561  0.0321  0.0461
31896W        W48743  18.298  11.050  14.309 -0.1463 -0.1961 -0.0095
31897W        W48744   7.272   9.192   3.357  0.0300 -0.1518 -0.1732
31898W        W48745   5.795  16.063  13.663 -0.1720  0.0082 -0.1086
31899W        W48746  14.536  13.743  12.873 -0.2055  0.0728 -0.1497
31900W        W48747   1.642   6.979  14.167 -0.0902  0.1052  0.2749
31901W        W48748  15.984   2.720   4.855 -0.2046 -0.1248  0.1991
31902W        W48749  17.696   9.393   3.345  0.0873 -0.1494 -0.2073
31903W        W48750   4.556  17.457   4.632  0.0326  0.1789  0.0917
31904W        W48751   9.623   4.526   0.568 -0.2108  0.0685 -0.0779
31905W        W48752   8.092   3.317  10.686 -0.2362  0.2696 -0.1327
31906W        W48753   0.457   7.948   5.356  0.0437 -0.1845 -0.1728
31907W        W48754  15.838   2.136   4.686  0.0101  0.0602 -0.0825
31908W        W48755   1.269  16.363   4.420 -0.0927 -0.2056  0.2238
31909W        W48756   2.787  18.223   3.875  0.0502 -0.1190 -0.0933
31910W        W48757   9.036   5.627  10.814 -0.0584 -0.2063 -0.0793
31911W        W48758   0.265  10.929   9.362  0.2803 -0.1847 -0.1697
31912W        W48759  18.084  12.355   4.885  0.0357 -0.0108  0.0103
31913W        W48760  16.619   3.030  12.068 -0.0759  0.4645  0.0655
31914W        W48761  13.981   7.617  14.610 -0.2118  0.0939  0.1537
31915W        W48762   5.892  16.702  12.031 -0.0332 -0.0301 -0.0964
31916W        W48763  11.068   3.602  10.992  0.0093 -0.0036 -0.1811
31917W        W48764   2.507   3.804  12.499 -0.1288  0.0455  0.1087
31918W        W48765  14.248   6.400   4.800 -0.2896 -0.0686 -0.0718
31919W        W48766   6.420  19.071  10.382  0.0010  0.0417  0.2267
31920W        W48767  13.161  11.716  14.479 -0.0659  0.1920  0.1781
31921W        W48768  12.691   8.847  13.712 -0.0098 -0.2337  0.1902
31922W        W48769   5.057   5.094  13.108 -0.3090  0.2144 -0.0624
31923W        W48770  16.462  16.801  10.979 -0.5793 -0.0118  0.2945
31924W        W48771  18.441   9.082   1.500 -0.1003  0.0021 -0.3938
31925W        W48772   4.903  14.139  10.468  0.0043 -0.5576  0.0121
31926W        W48773  18.350   3.048  13.830 -0.0112  0.0766 -0.0509
31927W        W48774   3.221   4.633   4.220  0.1091 -0.0060 -0.3621
31928W        W48775   4.060   5.999   0.325  0.0517 -0.2766 -0.0423
31929W        W48776  15.482   2.569  14.551  0.0210  0.1453 -0.0060
31930W        W48777  10.404  11.520   1.809  0.2929  0.1547  0.1153
31931W        W48778   0.021   5.610   3.758 -0.2551  0.0109 -0.1004
31932W        W48779   1.548  13.725  12.760  0.3877  0.2638 -0.0567
31933W        W48780   6.684   3.683  14.423  0.0054 -0.3400  0.4324
31934W        W48781  10.201  18.362   0.611 -0.1620  0.0807  0.1542
31935W        W48782   5.877   6.129  13.634 -0.2071 -0.0951  0.0265
31936W        W48783  10.675   3.757   3.367  0.0239 -0.1262 -0.3541
31937W        W48784   9.398  18.151  14.326 -0.0358 -0.3038  0.0437
31938W        W48785   1.731   4.864  12.792 -0.1585  0.0506 -0.0314
31939W        W48786  18.835  14.815   4.689 -0.0512  0.0113  0.1659
31940W        W48787  10.506   9.589  13.025  0.0025  0.6220 -0.0190
31941W        W48788   7.555  10.885  14.950 -0.2646 -0.0762  0.1968
31942W        W48789   5.943   3.974   1.361 -0.0905 -0.0799  0.2256
31943W        W48790   2.571   5.958   3.688  0.1026 -0.0908  0.1183
31944W        W48791  14.187   3.459   4.124  0.0317  0.1610 -0.1191
31945W        W48792  17.893  15.532   1.756  0.0582 -0.2247 -0.1600
31946W        W48793  15.780  17.602   3.427 -0.1475  0.2021 -0.1032
31947W        W48794   0.043   3.055  13.065 -0.1465 -0.1940  0.2369
31948W        W48795  13.096   5.995   3.896 -0.0557 -0.1408 -0.2988
31949W        W48796  12.793   6.325  14.488 -0.0214  0.1350  0.2751
31950W        W48797   1.336   1.751  12.343  0.0148 -0.2160 -0.1590
31951W        W48798  14.242   4.374   1.484 -0.0236 -0.2309  0.2470
31952W        W48799   0.046  19.130  13.512 -0.0416  0.1077  0.2894
31953W        W48800  11.242  18.794  13.964 -0.3662  0.0610 -0.0912
31954W        W48801  17.816   6.012  14.292  0.0748 -0.2959 -0.0661
31955W        W48802   5.125  11.346  11.955  0.0370 -0.0546  0.0042
31956W        W48803   2.486   3.326   3.255 -0.0929  0.2607  0.1272
31957W        W48804   6.018  12.077  10.530  0.3131  0.0568 -0.1109
31958W        W48805  10.988  13.496   0.164 -0.1731  0.0513 -0.0031
31959W        W48806  16.135  11.992   3.502  0.0131 -0.3072 -0.0743
31960W        W48807   0.226  16.174  13.419 -0.0547 -0.1567 -0.0929
31961W        W48808   4.889  15.741   0.619 -0.3115 -0.1662 -0.0802
31962W        W48809  16.244   3.858  14.357 -0.1177  0.0067 -0.0239
31963W        W48810   1.260   8.268   0.229  0.2673  0.4546  0.0465
31964W        W48811   8.797   1.621  14.387  0.1918 -0.0268 -0.2236
31965W        W48812  17.165   5.020  11.380  0.0334 -0.1114  0.0079
31966W        W48813   7.251   0.355  12.724  0.3000  0.1157 -0.3946
31967W        W48814   3.585   4.682  13.279 -0.1362 -0.0494  0.0150
31968W        W48815   1.998   7.881  13.603 -0.3033  0.1816 -0.0599
31969W        W48816  15.142   3.211  12.193 -0.1177 -0.0164  0.3123
31970W        W48817  14.252  13.545  11.213 -0.1311 -0.0595 -0.3980
31971W        W48818   2.415  18.438   2.354  0.2316 -0.3437 -0.0039
31972W        W48819  12.072  16.264   4.603 -0.0643  0.0579  0.0062
31973W        W48820   8.945   1.865   3.348 -0.0760 -0.2986  0.0955
31974W        W48821   3.174  17.108   3.765 -0.2041 -0.0872  0.0724
31975W        W48822   5.310   1.619  11.954  0.3719  0.1084  0.0711
31976W        W48823  11.931  10.915  10.086 -0.0679 -0.2821  0.4384
31977W        W48824  17.359   3.240  12.144 -0.1392 -0.0999 -0.1361
31978W        W48825  12.284   0.411  14.050  0.3168  0.2219 -0.0091
31979W        W48826  18.791   5.725  14.691 -0.1352  0.2130 -0.1972
31980W        W48827  16.844  14.874   5.688  0.0088 -0.0110  0.3107
31981W        W48828   3.636  17.365   1.871 -0.0373  0.1334  0.1106
31982W        W48829   5.219   8.086   1.130 -0.3877 -0.2081  0.1585
31983W        W48830   8.299  12.515  13.942  0.1539  0.1210 -0.2052
31984W        W48831  10.828   5.631  12.061  0.2463  0.2760 -0.1788
31985W        W48832   5.295  11.225   0.638  0.1742  0.0598 -0.1927
31986W        W48833   7.825  18.657   4.127  0.3115  0.1220 -0.3764
31987W        W48834  13.772  12.023  12.098  0.0204 -0.0126  0.1886
31988W        W48835  17.524  12.979   2.166 -0.2971 -0.0691  0.0481
31989W        W48836   7.494  19.057  14.792 -0.2135  0.0421 -0.0712
31990W        W48837  15.811  12.742   0.548  0.1864  0.0294 -0.0001
31991W        W48838   9.454   3.740  12.577 -0.0007 -0.2393  0.0986
31992W        W48839   3.720  11.133  11.150  0.1822  0.1260 -0.0167
31993W        W48840   5.457   8.139   9.762 -0.0944 -0.1705  0.1607
31994W        W48841  11.357  10.187  14.264 -0.0714  0.4352  0.1041
31995W        W48842  12.193   3.028  12.553 -0.2428 -0.0973 -0.0515
31996W        W48843   2.212   5.237   4.834 -0.1653 -0.4924  0.0018
31997W        W48844  16.353  11.583  14.964 -0.0237 -0.2863 -0.1225
31998W        W48845  19.104   6.961   2.852 -0.1853 -0.0602  0.0746
31999W        W48846   0.450   0.204   0.426  0.1567 -0.0225 -0.0965
32000W        W48847  15.522  16.457  12.077  0.2860 -0.0345  0.2865
32001W        W48848  11.995  18.778   3.751 -0.1114  0.1437  0.3129
32002W        W48849   1.110   4.967  13.644  0.0582 -0.1429  0.3136
32003W        W48850  14.760   9.864   3.776 -0.2153 -0.2960  0.4120
32004W        W48851  15.088   9.886  10.246  0.0550 -0.1630  0.0031
32005W        W48852   1.913   9.507   2.812 -0.2267  0.0635  0.0800
32006W        W48853   1.921  11.352  12.836  0.2987 -0.2192  0.4048
32007W        W48854  12.431  19.062   2.623  0.1950  0.1032 -0.0074
32008W        W48855  18.654   6.201  14.941 -0.2833  0.0868 -0.0188
32009W        W48856   0.130  13.308   1.861  0.0979 -0.0860  0.0230
32010W        W48857   4.320  13.739  13.501  0.5064 -0.0216  0.2089
32011W        W48858   3.796   7.831  12.864 -0.0322  0.1847  0.0620
32012W        W48859   7.309   0.519   1.821 -0.1998  0.0533 -0.1498
32013W        W48860  12.508   1.318   4.510  0.0524 -0.5378 -0.2722
32014W        W48861   4.958   3.143   1.633 -0.0114 -0.5126  0.0955
32015W        W48862   7.589   6.705  12.890  0.1625 -0.0122  0.2938
32016W        W48863  12.579  16.388   3.243  0.0559 -0.2961 -0.0681
32017W        W48864   5.902  12.942   0.322  0.2572  0.3194 -0.0226
32018W        W48865  12.158  14.936   1.810  0.1007 -0.3747  0.0144
32019W        W48866   2.826   1.725   0.351 -0.1226 -0.2105 -0.1145
32020W        W48867   1.187   9.537   0.571  0.2087 -0.0210 -0.2201
32021W        W48868   1.883   8.597   0.919 -0.2416  0.2213  0.2379
32022W        W48869  18.482   6.491   3.664  0.0777  0.1743 -0.0046
32023W        W48870  17.489   5.882  12.948 -0.0359  0.1083  0.0523
32024W        W48871   5.009   2.438   5.043  0.0142 -0.0297 -0.0636
32025W        W48872  13.837   7.891  12.826 -0.2947  0.0877 -0.0746
32026W        W48873   6.735  15.636  11.579 -0.0408 -0.2467  0.0173
32027W        W48874  14.908  13.014  11.907 -0.1391 -0.1097 -0.1645
32028W        W48875   2.780  15.884  10.473  0.1046 -0.0503 -0.2521
32029W        W48876   8.366   3.210  13.222 -0.0027 -0.0312 -0.2577
32030W        W48877  11.833  14.289   0.663 -0.0962 -0.3144 -0.2602
32031W        W48878  12.171  12.968   3.074 -0.1038  0.1530  0.0473
32032W        W48879  17.806  16.040  12.743  0.4518 -0.2338 -0.2342
32033W        W48880   6.610   6.638   1.180 -0.0650  0.4248  0.3765
32034W        W48881   7.505   4.470  11.446 -0.0713 -0.2864 -0.2089
32035W        W48882   0.407  19.011   4.474  0.0889 -0.2583 -0.2295
32036W        W48883  18.252  10.155  11.118 -0.1508  0.2006 -0.2090
32037W        W48884   5.414  12.518  10.709 -0.1899 -0.0185 -0.0522
32038W        W48885  17.409  12.556   4.395  0.2838 -0.0398  0.2621
32039W        W48886   2.546   0.882   3.975 -0.3513 -0.3431 -0.1215
32040W        W48887   9.638  15.245  13.391 -0.1616 -0.1723 -0.0675
32041W        W48888  15.621   9.114  13.232 -0.0803 -0.0447  0.2577
32042W        W48889   5.768  19.017  10.265  0.3113 -0.0170 -0.2503
32043W        W48890   5.429   4.701  12.626  0.1339 -0.0196 -0.0203
32044W        W48891  16.529   5.307  14.282 -0.1538  0.2954  0.1234
32045W        W48892   0.976  10.252  14.592  0.1330  0.2203 -0.0658
32046W        W48893   6.488   8.340  10.662 -0.1206 -0.0508 -0.1226
32047W        W48894   1.871   6.726  13.467 -0.1737 -0.0522  0.2922
32048W        W48895  16.329   5.322   0.966 -0.1010 -0.0207 -0.1786
32049W        W48896  10.043   1.507  11.222  0.3632 -0.1256 -0.2101
32050W        W48897  12.620   2.888  13.268 -0.2792 -0.3113  0.0669
32051W        W48898   4.914  16.093  12.758 -0.3644 -0.2925  0.1812
32052W        W48899  15.694  16.388  10.471 -0.1175 -0.0655 -0.3660
32053W        W48900  12.604   9.416   4.386 -0.0041  0.2943 -0.0252
32054W        W48901   3.782  16.507   1.118  0.0007  0.1019  0.1992
32055W        W48902   0.232   3.720  14.611 -0.3511 -0.1091  0.0288
32056W        W48903  18.391  17.756   2.448  0.0110  0.3447 -0.2749
32057W        W48904  13.453   0.860  13.733 -0.1233 -0.1505  0.0870
32058W        W48905   8.408   5.110   2.427  0.0867  0.3964  0.1941
32059W        W48906   2.132  10.074   1.932 -0.1248 -0.2047 -0.0195
32060W        W48907   9.092   7.915  12.436 -0.0859  0.4020 -0.0128
32061W        W48908   8.873  13.062   3.860  0.3252 -0.2676 -0.0302
32062W        W48909   7.368   4.335   5.172 -0.0779 -0.1444 -0.1442
32063W        W48910   4.967   2.458  14.060 -0.1072 -0.1742 -0.2056
32064W        W48911  18.208   5.797   0.491  0.3031  0.0053 -0.0014
32065W        W48912  19.177  13.995  14.609  0.1009 -0.1458  0.1465
32066W        W48913   5.197   8.957   2.686 -0.0087 -0.2816 -0.0748
32067W        W48914   5.598   1.142  13.254 -0.4073 -0.4007  0.1810
32068W        W48915  10.491   5.645  10.249 -0.0662  0.2106 -0.3632
32069W        W48916  18.508   7.411   3.967 -0.1805  0.3366  0.2048
32070W        W48917  11.164   6.481   2.183 -0.0649 -0.0149 -0.0094
32071W        W48918  13.863   7.230   4.259  0.0338  0.0705 -0.0318
32072W        W48919   9.623   2.818   2.333 -0.1426  0.1606 -0.0964
32073W        W48920   9.276   5.884   2.914  0.2558  0.1599  0.2055
32074W        W48921  12.767  13.556  13.750 -0.2517  0.0470  0.0356
32075W        W48922  16.756   7.541  12.704 -0.4418  0.1165 -0.2058
32076W        W48923  17.304   9.241   2.965  0.0335 -0.4854  0.0147
32077W        W48924   7.437   8.766  13.641  0.0382 -0.1134 -0.4453
32078W        W48925   1.456   2.939   0.745  0.0532  0.0973 -0.0615
32079W        W48926  10.945   6.242  11.574 -0.0284  0.0467  0.1275
32080W        W48927  11.402   7.107   3.118  0.1303  0.0286 -0.0121
32081W        W48928   3.369  11.278  11.625 -0.3241  0.0430  0.1365
32082W        W48929   5.238  17.563  11.694  0.2529 -0.1178  0.4104
32083W        W48930   9.806   3.164  13.952  0.3151  0.2324  0.1588
32084W        W48931  18.356  17.630  10.367 -0.2015 -0.0721  0.4731
32085W        W48932   2.556   5.878  13.218 -0.1893  0.0005  0.0238
32086W        W48933   4.615   7.977  10.577 -0.1553  0.2773 -0.3136
32087W        W48934  15.725  12.174  14.468 -0.2121 -0.2200  0.2033
32088W        W48935  17.022   2.782  12.180  0.0256 -0.1575  0.1568
32089W        W48936  13.273   4.241   3.764 -0.0124  0.1132 -0.0316
32090W        W48937   5.258   5.663   2.256 -0.5876  0.1066 -0.2001
32091W        W48938   9.763   9.744   4.077  0.0040 -0.1284 -0.1371
32092W        W48939  11.001  17.952   3.006 -0.1205 -0.0981 -0.0967
32093W        W48940   0.631  13.703   4.801  0.0738  0.1800  0.3189
32094W        W48941   2.871   1.432   3.805  0.1000 -0.4817 -0.0934
32095W        W48942   1.281  18.788  13.544 -0.0420 -0.2399 -0.0692
32096W        W48943   2.356   2.789  13.798  0.1617  0.0159  0.0327
32097W        W48944   3.098  12.279   0.777  0.3421  0.2759 -0.0942
32098W        W48945  14.110   9.080   4.853 -0.0419 -0.3389 -0.0925
32099W        W48946  10.294   0.921   2.303  0.2322  0.3546  0.0437
32100W        W48947   0.407   5.716   2.988  0.1847  0.3964  0.1925
32101W        W48948   8.421  13.791   1.179  0.1370  0.5945 -0.1432
32102W        W48949  17.626   3.150  12.583  0.1319  0.3151 -0.0929
32103W        W48950  18.797  15.561  11.183  0.0179  0.2200  0.0518
32104W        W48951   2.534  10.519  12.985  0.1237  0.0209 -0.0790
32105W        W48952  15.564   9.374  13.704 -0.0068  0.0711 -0.0517
32106W        W48953  11.202  12.997   1.746  0.0318 -0.0715 -0.0568
32107W        W48954  18.769   7.408  13.718 -0.0671 -0.0519 -0.1518
32108W        W48955  12.192   5.499   0.519 -0.1391 -0.2376  0.0932
32109W        W48956   8.526   7.900   4.006 -0.0842  0.1326  0.0725
32110W        W48957  11.749   7.673  13.880 -0.2102  0.1322  0.1013
32111W        W48958  12.357   6.639  14.429 -0.0768  0.0600 -0.0679
32112W        W48959  11.107   7.265   0.891 -0.2660  0.0874  0.1351
32113W        W48960   6.776   9.147   3.266  0.2029 -0.0918  0.2524
32114W        W48961   0.771   0.582   4.005 -0.1302  0.3197  0.1435
32115W        W48962   8.957  15.920  10.578  0.1073 -0.1285  0.2305
32116W        W48963   1.544  15.432   9.672 -0.1246 -0.1545  0.0483
32117W        W48964   7.551   8.274   1.212 -0.2951 -0.1779 -0.1148
32118W        W48965   3.632   3.577   3.592 -0.2076  0.6221  0.1028
32119W        W48966   7.269  12.707  14.750 -0.0264 -0.1668 -0.3149
32120W        W48967  15.881   9.551   0.395 -0.1175 -0.2098  0.0977
32121W        W48968   1.179   3.165   1.093  0.1678 -0.2490 -0.0260
32122W        W48969   7.030   2.752   4.237  0.4040 -0.1315 -0.0192
32123W        W48970   7.369   5.820  10.810  0.1321 -0.0645  0.3953
32124W        W48971  13.753   8.544   4.025  0.0332  0.0574  0.0769
32125W        W48972  11.011   3.981   0.784  0.2761  0.2757 -0.1002
32126W        W48973   7.054  12.716   4.429 -0.0596 -0.1050 -0.1466
32127W        W48974   0.450   5.397  12.442 -0.1415  0.2895  0.1273
32128W        W48975   2.859  19.136   3.993  0.0429  0.0604  0.0732
32129W        W48976  11.224   7.494   4.483 -0.2553  0.2031 -0.0261
32130W        W48977   5.723   0.732   2.598 -0.0900  0.1827  0.0657
32131W        W48978  17.650  19.150   1.787 -0.2176  0.0218  0.1082
32132W        W48979   8.090  14.652  14.042  0.0442 -0.2175 -0.0160
32133W        W48980   8.976  13.273  14.385 -0.3597  0.0545 -0.1098
32134W        W48981  11.977   8.105  14.784 -0.1095  0.0310 -0.1675
32135W        W48982   5.103   7.545  11.295  0.0791  0.3871  0.4002
32136W        W48983   5.130  14.533   0.940 -0.3945  0.2714  0.0147
32137W        W48984  15.389  15.851   0.516 -0.0485 -0.2383  0.1918
32138W        W48985  15.656  15.662   3.953  0.0695  0.2311 -0.0295
32139W        W48986   2.413  10.452  10.118  0.4041 -0.0361 -0.1219
32140W        W48987  14.151  18.616   4.728 -0.0240  0.1677 -0.1819
32141W        W48988  11.320  17.795  11.052 -0.0650  0.0805  0.1079
32142W        W48989  12.668   4.047  12.382  0.0028  0.0227 -0.1772
32143W        W48990   1.809   2.436  12.190  0.0457 -0.0855  0.1109
32144W        W48991   5.830   7.916  13.622  0.3503  0.0001 -0.0349
32145W        W48992  12.185  17.087  13.718 -0.5214  0.3297  0.0534
32146W        W48993   7.790   3.051   4.443 -0.0196  0.1689  0.3564
32147W        W48994  19.149  10.330  13.650 -0.1242  0.0687 -0.0707
32148W        W48995  17.822   2.402  10.738  0.1848  0.0051 -0.0318
32149W        W48996   2.413   2.356   3.052  0.2263  0.0720 -0.2616
32150W        W48997   8.221  15.855  12.749  0.4509  0.1323  0.0067
32151W        W48998   8.883   6.182  10.072 -0.0454 -0.0596 -0.0619
32152W        W48999  13.033  19.050   3.028 -0.2805  0.4351 -0.2367
32153W        W49000   5.179   2.891  11.387  0.1513  0.1758 -0.3562
32154W        W49001  10.130   7.550   2.963  0.1064  0.2374  0.0741
32155W        W49002   8.693   2.564  13.498  0.0428  0.0719 -0.2166
32156W        W49003   3.503  13.103  10.867  0.1952  0.3613  0.2581
32157W        W49004  13.720   5.649  13.169 -0.0465 -0.1623 -0.1408
32158W        W49005   5.378  10.708   4.612 -0.0730  0.1977  0.2974
32159W        W49006  10.201   0.624   3.242 -0.1075 -0.1048  0.3781
32160W        W49007   7.844  18.100   3.299 -0.3254 -0.0973  0.0263
32161W        W49008  15.501  11.908  13.297 -0.2371 -0.1460 -0.1553
32162W        W49009   3.632  14.902   1.030 -0.1932 -0.2360  0.0929
32163W        W49010   4.370  15.403   1.876  0.0122 -0.3723  0.6020
32164W        W49011   9.245   4.519   2.405  0.0062 -0.0113  0.0350
32165W        W49012  17.695   0.184   2.782  0.0474  0.2301  0.0028
32166W        W49013  11.464  12.478   2.338  0.1413 -0.2783  0.0881
32167W        W49014  11.687  18.376   2.454  0.0172 -0.3716  0.5208
32168W        W49015   8.095  12.471   3.959  0.3245  0.0219 -0.0851
32169W        W49016  15.776  18.562   2.201 -0.2191 -0.1236  0.3354
32170W        W49017  16.304   3.043  13.062 -0.3908  0.1049 -0.3818
32171W        W49018  16.298   1.458  12.079  0.4004 -0.0872 -0.0116
32172W        W49019  13.895  12.893  11.993  0.0837  0.0194 -0.1620
32173W        W49020  12.536   0.812   2.337 -0.1398  0.1773 -0.2315
32174W        W49021   0.725   8.913  10.609 -0.0906  0.3343  0.2328
32175W        W49022  12.265   8.702   1.013  0.0733  0.4656 -0.2689
32176W        W49023   9.405  18.191   4.713 -0.1417 -0.0457 -0.0915
32177W        W49024   0.660   6.743  11.418  0.0522 -0.0275 -0.0552
32178W        W49025   2.036   1.507  14.678  0.2100  0.1150  0.1012
32179W        W49026  12.248  17.913   4.955 -0.3682  0.0851  0.1516
32180W        W49027  18.277  13.757   1.355 -0.0709  0.3457 -0.1494
32181W        W49028  12.921  16.340  13.256 -0.0962  0.5239 -0.0065
32182W        W49029   4.075   6.589   3.987 -0.2090 -0.0570  0.0072
32183W        W49030   9.394  17.543   4.070  0.3381 -0.1122 -0.0438
32184W        W49031  17.042  15.022   2.858 -0.0961  0.1076 -0.0072
32185W        W49032  16.378  10.247   0.198  0.6748 -0.2113  0.1185
32186W        W49033  13.081   6.070   5.496 -0.0858 -0.2368  0.4106
32187W        W49034   9.866  16.994   2.347  0.2383 -0.2199 -0.2316
32188ION     NA49035   7.444   9.734   9.816 -0.1205  0.0743 -0.1125
32189ION     NA49036  11.369  18.752  10.529 -0.1558 -0.0106 -0.2639
32190ION     NA49037   3.892   9.033   9.679  0.1623  0.3972 -0.1214
32191ION     NA49038  17.673   1.145  10.024 -0.0612  0.1219  0.4301
32192ION     NA49039  10.737  14.973   0.267 -0.1277 -0.0494 -0.0539
32193ION     NA49040   5.353   2.190   9.762 -0.3973  0.2503  0.1198
32194ION     NA49041   0.592  18.120   0.304  0.0787  0.0869  0.4369
32195ION     NA49042  15.675   4.481   3.301  0.1584 -0.1374  0.5551
32196ION     NA49043   6.787   6.074  12.791  0.1623 -0.2402  0.0661
32197ION     NA49044  15.719   5.455  11.447  0.1935  0.0794 -0.0863
32198ION     NA49045  15.429   9.227  12.418  0.0374 -0.0023  0.0064
32199ION     NA49046   2.642  17.965   9.515  0.3080 -0.0820 -0.0270
32200ION     NA49047  13.874   4.963   3.887  0.0685  0.1777 -0.0793
32201ION     NA49048  18.797   2.791   4.933  0.0252  0.0580 -0.3579
32202ION     NA49049   5.852  16.275   4.997 -0.4712  0.1153 -0.2238
32203ION     NA49050  14.646   5.632  11.102 -0.1648  0.2770  0.2059
32204ION     NA49051   8.496   1.431   3.352 -0.0598 -0.0710  0.2987
32205ION     NA49052   4.372   1.823  12.928 -0.0304  0.1056 -0.0381
32206ION     NA49053   2.765   6.079   1.428  0.1885 -0.0090  0.0818
32207ION     NA49054   8.360   9.764   3.269  0.0289 -0.0944 -0.1572
32208ION     NA49055   1.210   8.982   2.383 -0.0448 -0.0885  0.0917
32209ION     NA49056  17.925  11.533  14.960  0.0192 -0.0620 -0.1838
32210ION     NA49057   5.932  10.478   4.237  0.3131 -0.0860  0.0947
32211ION     NA49058   7.045  11.053   5.291  0.3355 -0.2274  0.0854
32212ION     NA49059  14.068  10.213   9.365 -0.2890 -0.1469 -0.0574
32213ION     NA49060  18.734   8.568  12.251 -0.3950  0.4469 -0.2752
32214ION     NA49061   0.354   6.573   9.568  0.1870  0.4245 -0.0868
32215ION     NA49062  13.264   3.662  10.019 -0.0015  0.0654  0.1912
32216ION     NA49063  11.726  12.744   9.457 -0.1002 -0.1930 -0.0173
32217ION     NA49064  10.466   4.965   9.518 -0.0446 -0.2477 -0.1371
32218ION     NA49065   3.080   3.790   5.451 -0.2703 -0.2996  0.1786
32219ION     NA49066   8.011   8.542   9.208  0.0994  0.0715 -0.0432
32220ION     NA49067  13.497   8.307   9.566 -0.1193  0.0617 -0.0105
32221ION     NA49068   0.047   3.113   0.229 -0.3596 -0.2566 -0.0651
32222ION     NA49069  10.209  15.368   9.769  0.0251  0.2125  0.1257
32223ION     NA49070  10.705   4.462   0.729  0.2127 -0.0875  0.0263
32224ION     NA49071  13.722   4.523  12.520  0.2943  0.0066 -0.1982
32225ION     NA49072  14.107   4.637   9.816 -0.2745 -0.0480 -0.4348
32226ION     NA49073   1.416   3.920   3.359 -0.1086 -0.2138 -0.3820
32227ION     NA49074  12.616   9.901   3.087  0.1884 -0.1346  0.2011
32228ION     NA49075  18.731  14.366  10.325 -0.2555  0.0149  0.1252
32229ION     NA49076  11.410   9.889   0.438 -0.3236  0.2112  0.3533
32230ION     NA49077   4.353   6.114   4.660 -0.0417 -0.1059 -0.1488
32231ION     NA49078  12.790   8.577  13.273 -0.4055 -0.4096  0.0529
32232ION     NA49079  17.393   3.732   1.321  0.2484 -0.0830  0.0696
32233ION     NA49080  17.497   2.502   9.927  0.0363 -0.2620 -0.2063
32234ION     NA49081   9.450   8.029   4.540  0.3593  0.2270  0.0746
32235ION     NA49082  11.521   3.243   9.913  0.3162  0.1951  0.1206
32236ION     NA49083   8.442  13.074   5.477 -0.0038 -0.1327 -0.2668
32237ION     NA49084   4.776  10.645   4.847  0.2028 -0.0428  0.0901
32238ION     NA49085  15.884  16.600   1.457  0.0883  0.1424 -0.1307
32239ION     NA49086  12.572  10.328   1.825 -0.1388  0.0054  0.0441
32240ION     NA49087   8.108   3.690   4.965 -0.1001  0.2487 -0.3060
32241ION     NA49088  17.601   9.833   5.658  0.2540  0.0597  0.2676
32242ION     NA49089   8.463  11.383  11.714 -0.2282 -0.0220 -0.0655
32243ION     NA49090   4.528  17.013   5.071 -0.1612 -0.1891  0.1003
32244ION     NA49091   4.604  15.528   5.188 -0.3557  0.1873 -0.3278
32245ION     NA49092   1.465  17.772   9.941 -0.0707  0.0499  0.2712
32246ION     NA49093  15.903   7.716   9.781  0.1471  0.1640  0.2240
32247ION     NA49094  18.040  10.720   4.862 -0.1999  0.3610  0.1291
32248ION     NA49095  14.212  18.100   0.474 -0.1652 -0.0353  0.2091
32249ION     NA49096   3.352  15.462   2.192  0.0542  0.0450  0.3442
32250ION     NA49097  17.068   8.796   5.592  0.2244 -0.1882  0.2563
32251ION     NA49098   1.815  16.424   3.707  0.2785  0.1478  0.0588
32252ION     NA49099   2.158   9.093   2.230 -0.1803  0.2070 -0.3133
32253ION     NA49100  10.894  15.172   9.838 -0.1394  0.0727 -0.2386
32254ION     NA49101   7.055  15.140   9.750 -0.1533  0.0948  0.0867
32255ION     NA49102   5.556   5.381  13.641 -0.0508  0.2848  0.1864
32256ION     NA49103  14.101  15.705  10.341  0.1115 -0.0659  0.0347
32257ION     NA49104  17.879  12.228   9.693 -0.1793 -0.2394  0.0161
32258ION     NA49105  10.008   2.483  10.848  0.2849 -0.4322 -0.2539
32259ION     NA49106   1.717  13.729   9.713 -0.0215  0.0749 -0.0844
32260ION     NA49107   7.851  17.192  11.532 -0.0129  0.4960 -0.3110
32261ION     NA49108  17.199  18.080   5.868 -0.1471 -0.1026  0.0129
32262ION     NA49109   3.959  10.073   9.573  0.2213 -0.0055 -0.1018
32263ION     NA49110  12.210  10.143   3.633 -0.1887 -0.0638  0.1285
32264ION     NA49111   5.614   9.232   5.413  0.0927 -0.1634  0.2349
32265ION     NA49112   6.680  13.991  13.286 -0.1238 -0.1656  0.0029
32266ION     NA49113  18.947   7.114   5.281  0.2558 -0.1149 -0.0153
32267ION     NA49114   6.174   7.735   9.419 -0.0060  0.2227 -0.0211
32268ION     NA49115  13.399   9.432   3.694  0.0931  0.1756 -0.0485
32269ION     NA49116   1.110  18.796  10.089 -0.0229 -0.1387 -0.0595
32270ION     NA49117  10.010  16.785   1.147  0.1395 -0.0742 -0.0041
32271ION     NA49118   7.571   4.067   9.402 -0.1519 -0.1970  0.0344
32272ION     NA49119   9.166  15.629   9.882 -0.1279  0.1255 -0.2856
32273ION     NA49120   5.624  14.376   9.467 -0.0146  0.0336  0.0379
32274ION     NA49121   4.669  15.680   9.702 -0.0496 -0.0079 -0.1371
32275ION     NA49122   2.678   8.274   9.743 -0.0172 -0.3675  0.0302
32276ION     NA49123   0.232  16.184  10.029 -0.3455 -0.1354  0.0852
32277ION     NA49124   9.178  18.572  10.400  0.0082 -0.0340  0.2023
32278ION     NA49125   0.128   8.037   9.749  0.0103 -0.1409  0.1083
32279ION     NA49126   6.236  16.674   1.149  0.2131 -0.1209 -0.2202
32280ION     NA49127   1.215   5.682   2.541 -0.1163  0.0165  0.1348
32281ION     NA49128   1.605  11.965  10.253 -0.1455 -0.1912 -0.1665
32282ION     NA49129   8.331   7.205   9.274 -0.0611  0.2542 -0.0437
32283ION     NA49130  15.118  18.429   0.900 -0.1468  0.0524 -0.2521
32284ION     NA49131  17.759   1.197   5.568 -0.0940  0.1076 -0.2991
32285ION     NA49132   1.291   2.161  12.073  0.1505 -0.1866 -0.0626
32286ION     NA49133  10.571   7.620   3.301 -0.2477 -0.0468  0.3677
32287ION     NA49134   2.012   6.054   5.253 -0.0413 -0.0977  0.0142
32288ION     NA49135   9.482   4.376  14.409 -0.0396  0.0926 -0.0351
32289ION     NA49136  16.757  10.070   5.283  0.3178  0.2178  0.0146
32290ION     NA49137  16.440  18.163   5.651  0.1488  0.2200  0.4242
32291ION     NA49138  16.493  15.216   5.360 -0.2627  0.1753  0.1616
32292ION     NA49139   7.695  17.256   1.164 -0.1353 -0.3126  0.3585
32293ION     NA49140  17.825   4.524   0.301 -0.1460  0.2539  0.1531
32294ION     NA49141  18.591   5.958   5.253  0.0928  0.1069 -0.0490
32295ION     NA49142  10.207   9.957  13.846  0.1300  0.1903  0.0878
32296ION     NA49143  16.755   7.257   9.558 -0.0385  0.2717 -0.1113
32297ION     NA49144   0.057   9.974   4.742  0.0364 -0.0245  0.0236
32298ION     NA49145  13.708  16.725  10.432  0.1205 -0.1019 -0.4222
32299ION     NA49146   4.397  15.221   1.368 -0.0874 -0.2634  0.1477
32300ION     NA49147  18.361  18.725   5.279 -0.0307 -0.0058  0.0371
32301ION     NA49148   5.823   7.107  10.114 -0.0328  0.1102 -0.0132
32302ION     NA49149  15.806  12.728   5.212  0.1204 -0.3812  0.0525
32303ION     NA49150   7.170  18.423   4.953 -0.0754  0.0493  0.0626
32304ION     NA49151   3.364  15.881   9.680  0.2926 -0.0668 -0.1043
32305ION     NA49152   5.750  16.601   9.347 -0.2525 -0.1357 -0.2838
32306ION     NA49153   1.860   6.963   1.554  0.0948 -0.0212  0.3532
32307ION     NA49154   7.333   3.169   9.486  0.1280 -0.1142 -0.0690
32308ION     NA49155   8.924  15.911   5.354  0.0554  0.0647  0.1976
32309ION     NA49156  17.852   4.034   4.583 -0.2732  0.2044 -0.2644
32310ION     NA49157   8.533  13.485   3.840  0.0863  0.1670  0.5005
32311ION     NA49158   0.305   3.608  13.764 -0.0495  0.2125 -0.1330
32312ION     NA49159  11.662   0.257   3.115  0.0748 -0.4197  0.1255
32313ION     NA49160  18.484  11.533   9.458 -0.2097  0.0924  0.0406
32314ION     NA49161   4.184  16.481   9.744  0.1857 -0.2109  0.4741
32315ION     NA49162   3.861  14.429   3.902  0.0962 -0.1859 -0.0812
32316ION     NA49163   1.748   1.459   5.420 -0.1491 -0.0496 -0.0061
32317ION     NA49164  11.074  15.792  10.126  0.0186  0.1790  0.3884
32318ION     NA49165   6.331  15.703   9.767  0.0821 -0.3570  0.0377
32319ION     NA49166  13.504  11.788   5.209  0.1622 -0.0870 -0.0705
32320ION     NA49167   1.211   3.217   4.161 -0.1225  0.0112 -0.0736
32321ION     NA49168   1.146   1.001   5.495 -0.0022  0.1018  0.0227
32322ION     NA49169   1.059   8.990   1.403 -0.1519  0.0484 -0.3228
32323ION     NA49170  10.094  18.671  10.083 -0.0472 -0.1468 -0.0079
32324ION     NA49171   5.421   8.548   3.083 -0.0268  0.1145 -0.1243
32325ION     NA49172   7.254  15.088   4.967 -0.0726 -0.0172 -0.0113
32326ION     NA49173  14.861  15.263  10.228 -0.0432 -0.2928 -0.1814
32327ION     NA49174  15.871   5.461  12.756  0.5167 -0.0412 -0.2111
32328ION     NA49175   5.277   5.117   4.896 -0.1073 -0.2616 -0.0373
32329ION     NA49176  12.570  13.660   5.170 -0.2885  0.1814 -0.0421
32330ION     NA49177   4.409  18.912  13.801  0.0517 -0.2021  0.2452
32331ION     NA49178  14.517  16.663  10.151 -0.3872  0.0972  0.2132
32332ION     NA49179  13.258   6.603   9.652 -0.1907  0.1131 -0.1686
32333ION     NA49180   6.992   1.027   3.280 -0.0080 -0.0352  0.0577
32334ION     NA49181  14.521   7.141   9.903 -0.0849  0.2112  0.0057
32335ION     NA49182  16.515  17.597  12.389  0.2183 -0.2346  0.1608
32336ION     NA49183  15.352   3.700   5.356 -0.0519  0.0204 -0.0450
32337ION     NA49184   5.198   4.349   9.694 -0.1920 -0.0034 -0.1975
32338ION     NA49185   8.314  18.995   2.389 -0.0606 -0.0034  0.3950
32339ION     NA49186  19.108  13.567   5.225 -0.1981  0.0913  0.2591
32340ION     NA49187  10.548   7.900  14.993 -0.0842 -0.4601 -0.0268
32341ION     NA49188   4.096   0.631   9.607  0.0241 -0.2393 -0.4044
32342ION     NA49189  13.976   6.092   9.403  0.1174  0.1100 -0.1332
32343ION     NA49190  14.188  15.098   3.469  0.1846 -0.0558 -0.0915
32344ION     NA49191  12.768   3.784  12.893  0.1361 -0.0643  0.1184
32345ION     NA49192   1.576  14.617   9.906  0.1858 -0.1120  0.1392
32346ION     NA49193  15.853   3.650   2.674 -0.2508 -0.0798 -0.0496
32347ION     NA49194   9.913   1.554   9.882  0.0867 -0.1972  0.1311
32348ION     NA49195  11.834  16.467  10.073 -0.3372 -0.0884  0.0930
32349ION     NA49196   4.625   1.125   0.962 -0.1271 -0.1619 -0.2764
32350ION     NA49197   6.783   5.987   1.773 -0.2899  0.0132 -0.0425
32351ION     NA49198   1.582  18.021   4.945 -0.1746  0.0657 -0.1700
32352ION     NA49199   2.493  13.950   5.253 -0.2563 -0.1373 -0.0416
32353ION     NA49200  15.649  16.392   5.487 -0.0921 -0.1793 -0.1610
32354ION     NA49201   4.513   5.701   9.641 -0.6205 -0.0922  0.5796
32355ION     NA49202  13.548  10.972   9.675 -0.0702 -0.0727  0.2217
32356ION     NA49203   0.283  14.166   2.989 -0.0197  0.0176 -0.2354
32357ION     NA49204  10.721  18.810  13.878 -0.0413  0.2736 -0.0478
32358ION     NA49205   2.861  11.566   9.665  0.0242 -0.0155  0.0050
32359ION     NA49206   4.969  14.603   5.473 -0.2657  0.0271  0.2650
32360ION     NA49207   9.854   2.967   5.437 -0.0456  0.1576  0.0960
32361ION     NA49208  17.542  16.029   2.533  0.0724 -0.0507  0.0086
32362ION     NA49209  18.624   9.776   9.831 -0.0920 -0.1473  0.0553
32363ION     NA49210   2.444  11.035   5.496 -0.2061  0.3849  0.7547
32364ION     NA49211   4.687   0.325   4.992  0.0342  0.1436  0.0294
32365ION     NA49212  14.997   0.087  10.205  0.0206 -0.2531  0.0236
32366ION     NA49213   5.623   0.676   1.482 -0.2091 -0.2354  0.3113
32367ION     NA49214   0.136   4.544   5.125 -0.2783 -0.2343  0.1532
32368ION     NA49215   4.626   8.950   4.806 -0.1388 -0.0537 -0.3392
32369ION     NA49216   2.907   0.660  12.991  0.1384  0.3873  0.1788
32370ION     NA49217  18.398  12.635  13.956  0.2902 -0.1156  0.2337
32371ION     NA49218   9.679   7.777  13.885 -0.1098  0.0254 -0.1707
32372ION     NA49219   8.983   8.778  12.876 -0.2247  0.1130  0.1328
32373ION     NA49220  12.491  11.630  10.677 -0.3817 -0.1262 -0.0751
32374ION     NA49221  16.384   8.792   5.402  0.1899 -0.0642  0.0004
32375ION     NA49222  15.674  15.941  10.000 -0.0898  0.1552  0.1785
32376ION     NA49223   8.236  16.241  10.227 -0.1704 -0.1381 -0.2394
32377ION     NA49224   8.120  11.947   9.592 -0.1521 -0.2159  0.0984
32378ION     NA49225  10.919  17.306  12.844 -0.0041  0.0669  0.0690
32379ION     NA49226   8.802  18.850   5.344  0.2466  0.0213  0.2028
32380ION     NA49227   6.428  10.400   5.365 -0.1406  0.0199 -0.0614
32381ION     NA49228   2.635  19.000   5.278  0.3949  0.0497 -0.1214
32382ION     NA49229  14.150  11.182   5.639 -0.4838 -0.0221 -0.2669
32383ION     NA49230   0.256  17.224   2.275  0.2257 -0.0884 -0.2646
32384ION     NA49231   0.947  14.734   1.950 -0.4513  0.0286  0.1968
32385ION     NA49232  15.128   2.476  10.067  0.0157  0.0607  0.0988
32386ION     NA49233   6.567   0.176   1.527 -0.0821  0.0952  0.3818
32387ION     NA49234   9.831  10.697   1.335 -0.3013  0.1875 -0.1045
32388ION     NA49235  11.957   9.097   9.731  0.1689 -0.0445  0.0146
32389ION     NA49236   8.674   8.966   9.566  0.1015 -0.0275 -0.1100
32390ION     NA49237   8.148   5.954  12.606  0.1465  0.2117 -0.3262
32391ION     NA49238   4.396   7.864   2.212  0.0828  0.5681  0.0571
32392ION     NA49239   5.537   1.545  11.038  0.2808 -0.0213  0.0426
32393ION     NA49240   5.220  10.976  11.590  0.2690 -0.2348  0.1272
32394ION     NA49241   5.131  17.938   9.500 -0.1511 -0.2270 -0.2022
32395ION     NA49242  18.088  19.000   1.469  0.1693  0.0024 -0.1660
32396ION     NA49243  14.815   6.917   2.646 -0.0490  0.2086  0.1761
32397ION     NA49244   8.142  10.203   4.777 -0.0244 -0.4756 -0.0966
32398ION     NA49245  12.195  18.973   4.355  0.1026  0.2720  0.4620
32399ION     NA49246   3.393   0.996   9.757  0.1343 -0.0408  0.0535
32400ION     NA49247   5.474  15.213   9.617  0.0988  0.0298  0.1390
32401ION     NA49248  16.291  11.623   2.202  0.1710 -0.1661 -0.0178
32402ION     NA49249  15.787  19.181  10.339  0.2182  0.1542 -0.1284
32403ION     NA49250   3.435  12.155   1.636  0.1830  0.1016 -0.3475
32404ION     NA49251   9.677   1.899   5.495  0.1222  0.0248 -0.0483
32405ION     NA49252   4.079   0.424   0.544  0.1332 -0.2387 -0.0342
32406ION     NA49253  10.467  13.428  13.519 -0.3719  0.0434  0.0240
32407ION     NA49254   9.659  15.509  14.108 -0.0288  0.4956 -0.1313
32408ION     NA49255   8.031   1.786   9.642 -0.1258  0.0520 -0.2657
32409ION     NA49256   3.099  18.216   0.216  0.1862  0.3288  0.1178
32410ION     NA49257  15.750  15.002  10.053 -0.0289 -0.1874 -0.1547
32411ION     NA49258   3.531   0.808   1.409 -0.0511 -0.1711 -0.1689
32412ION     NA49259  12.704   3.685   5.271  0.1805  0.0588 -0.0305
32413ION     NA49260   4.071   8.150  10.723  0.0230 -0.0292  0.0600
32414ION     NA49261  12.325  18.037  10.632  0.2365 -0.2077 -0.1932
32415ION     NA49262  19.094  17.444  10.333 -0.0818 -0.0364 -0.1166
32416ION     NA49263  15.932  14.901   1.215  0.0114  0.0155 -0.3262
32417ION     NA49264   0.118  16.211   1.820  0.4164  0.0044 -0.4459
32418ION     NA49265  10.127   3.786  14.900  0.0660  0.2298  0.1708
32419ION     NA49266   2.485  15.811  11.460 -0.2645  0.1107 -0.1784
32420ION     NA49267   2.912  18.932   0.086 -0.1732 -0.0957 -0.0253
32421ION     NA49268   1.163   6.461   9.307 -0.1309  0.2059  0.0307
32422ION     NA49269  17.516   5.917  10.006  0.1774  0.1630 -0.1196
32423ION     NA49270  11.497   7.874  14.608 -0.1657 -0.1766 -0.2121
32424ION     NA49271   0.801  16.667  12.190 -0.1243  0.0372  0.2722
32425ION     NA49272  17.762  15.992  10.010 -0.0531  0.1370 -0.0065
32426ION     NA49273  18.047  10.107   5.303 -0.0693  0.3179  0.2601
32427ION     NA49274  18.337   2.780   9.846 -0.3638 -0.0082 -0.2332
32428ION     NA49275   0.913   7.391   9.548  0.1431 -0.0898  0.2336
32429ION     NA49276   0.548   9.060   5.206  0.1051 -0.0812  0.1967
32430ION     NA49277   7.917   5.009   9.662 -0.0232  0.1416 -0.2245
32431ION     NA49278   6.968   2.959   2.925  0.4324 -0.3314  0.0234
32432ION     NA49279  10.739   9.252   2.104  0.3251  0.1044  0.2513
32433ION     NA49280   6.979  17.128   0.222  0.0143  0.0373  0.1325
32434ION     NA49281   3.413   8.886   1.654  0.2009  0.4097 -0.1206
32435ION     NA49282   2.639   5.576  11.353 -0.1667 -0.0408 -0.2405
32436ION     NA49283   6.756   6.522   9.635 -0.2474 -0.0622 -0.2118
32437ION     NA49284  11.599  13.243   5.074  0.2804  0.2063 -0.0462
32438ION     NA49285   8.584  14.785  14.273  0.0043  0.2958 -0.1383
32439ION     NA49286  17.499  14.317   1.079 -0.1836  0.0923  0.0902
32440ION     NA49287   9.656  11.899  14.657 -0.1464 -0.3051 -0.2348
32441ION     NA49288   2.755  15.468   5.254  0.1673 -0.2481 -0.0636
32442ION     NA49289  17.527   4.026  11.593 -0.0670 -0.0253 -0.0697
32443ION     NA49290  12.328  14.833  12.113 -0.0356  0.2688 -0.0364
32444ION     NA49291   2.521  10.056   3.864  0.0558  0.1293  0.2376
32445ION     NA49292   6.293   3.623  12.493 -0.1869  0.0559  0.2026
32446ION     NA49293   0.040   2.859   9.912 -0.0797 -0.0095 -0.2817
32447ION     NA49294  16.354  15.641   3.007  0.0980 -0.0014 -0.0189
32448ION     NA49295   9.289  17.255  10.544 -0.3386 -0.1667  0.2695
32449ION     NA49296   6.655  17.950   9.695  0.2134 -0.1686 -0.0071
32450ION     NA49297   4.433   1.298   2.799 -0.1454  0.1848  0.1713
32451ION     NA49298  18.038  14.837   0.528  0.0400 -0.2271  0.0857
32452ION     NA49299   5.936   5.064   9.812  0.0085 -0.1685  0.0352
32453ION     NA49300  10.285  11.684   5.349 -0.1128 -0.2635 -0.0492
32454ION     NA49301  18.559   6.237   0.444 -0.0164 -0.1575 -0.3492
32455ION     NA49302   5.535   8.471  11.815  0.0034  0.0618 -0.2946
32456ION     NA49303  17.811  14.068   3.412 -0.2282  0.1152  0.4232
32457ION     NA49304  15.398  10.268   0.046 -0.0788 -0.0684 -0.1836
32458ION     NA49305  15.666   8.547   2.410  0.2212 -0.0600 -0.0685
32459ION     NA49306   6.295   8.084  14.728  0.1621 -0.1570  0.3919
32460ION     NA49307  17.818   9.099  10.005  0.0885 -0.2494 -0.4650
32461ION     NA49308   7.424  15.546   5.125  0.0314  0.0714 -0.4097
32462ION     NA49309   4.358   9.931  14.433 -0.1026 -0.0631 -0.3391
32463ION     NA49310  15.220  10.190  12.300 -0.3069 -0.0560  0.3007
32464ION     NA49311   9.039   1.692   9.738 -0.1871 -0.0831  0.1258
32465ION     NA49312  16.798   5.975   9.545 -0.2041  0.2035 -0.0773
32466ION     NA49313   8.702   3.553   9.363 -0.0352 -0.0391  0.2992
32467ION     NA49314  16.428  15.702   3.899  0.1694  0.0264 -0.1705
32468ION     NA49315   1.610  18.951   5.209  0.2267  0.0819  0.0293
32469ION     NA49316  18.648   4.427  12.964  0.1853  0.0903 -0.0722
32470ION     NA49317   9.375   3.680   2.892 -0.0116 -0.0066  0.1838
32471ION     NA49318  16.423  14.277   9.833 -0.4157  0.2901 -0.1406
32472ION     NA49319  17.051  13.887   2.584 -0.0690 -0.0627 -0.2492
32473ION     NA49320  14.851   7.115   5.461  0.2499 -0.0881 -0.1704
32474ION     NA49321   1.264   5.718   3.966 -0.2542  0.0852  0.0984
32475ION     NA49322   2.832   0.668   5.367 -0.0911 -0.2773 -0.3614
32476ION     NA49323   6.358  12.558   4.746  0.1592 -0.0400  0.1314
32477ION     NA49324  15.076  17.822  10.588 -0.1352 -0.0946 -0.0544
32478ION     NA49325  17.707   9.971   9.677 -0.1134  0.1627 -0.1037
32479ION     NA49326   8.021   9.918   9.377  0.2495 -0.0758 -0.1060
32480ION     NA49327   0.223  18.864  10.075 -0.2300 -0.1773 -0.2410
32481ION     NA49328   2.978   6.940   9.605 -0.2637  0.1214  0.0939
32482ION     NA49329  10.652  11.421   5.219  0.0105 -0.1611  0.1515
32483ION     NA49330  14.443   1.033  10.056  0.1301  0.1627 -0.0301
32484ION     NA49331   6.259   4.968  13.670 -0.1569  0.0615  0.1133
32485ION     NA49332   8.316  12.637   3.491 -0.0683  0.2524  0.1205
32486ION     NA49333  18.254  14.204   5.046 -0.1947  0.0352  0.3197
32487ION     NA49334   9.544   7.413  13.027  0.1092  0.1295  0.0258
32488ION     NA49335   6.298   2.521   5.397 -0.0755  0.1649 -0.2230
32489ION     NA49336  15.765   4.710   5.296  0.2757  0.1939 -0.1213
32490ION     NA49337  17.726   6.849   3.801  0.1611 -0.3933 -0.2280
32491ION     NA49338  11.298  17.884  10.483 -0.0381 -0.2711  0.0482
32492ION     NA49339  11.867   6.967   3.154  0.1374  0.0641  0.1441
32493ION     NA49340  17.339  10.226  14.435 -0.2099 -0.0715 -0.2413
32494ION     NA49341   3.532  15.612   3.320  0.1706  0.0263 -0.0588
32495ION     NA49342  11.751  11.068   4.441 -0.1722  0.2651  0.0547
32496ION     NA49343   1.833  13.391  14.416 -0.0495  0.2151 -0.2071
32497ION     NA49344  11.177  11.989   9.853  0.0779 -0.2929 -0.0307
32498ION     NA49345  10.504   1.501  14.875 -0.0369 -0.2002 -0.3998
32499ION     NA49346   3.195  14.520   5.396 -0.0749 -0.0347  0.1136
32500ION     NA49347   3.964   6.542   9.717 -0.1257 -0.0614 -0.0717
32501ION     NA49348  13.952  14.260  14.418  0.3691 -0.0358  0.0288
32502ION     NA49349   6.809  17.286   3.135 -0.0208  0.1622 -0.2119
32503ION     NA49350   4.552   0.497   3.283  0.1966  0.1702 -0.1915
32504ION     NA49351   6.759  13.832   4.988  0.1931 -0.1155  0.3893
32505ION     NA49352  15.100   7.160  12.054  0.2832  0.1555 -0.1112
32506ION     NA49353   8.024  12.843   5.542  0.3054  0.2582  0.1902
32507ION     NA49354   7.112   6.103   0.111  0.3315 -0.3213  0.1345
32508ION     NA49355  17.193   2.498   0.357 -0.0223  0.0692  0.0103
32509ION     NA49356   3.637   0.003  12.373 -0.1864  0.1114 -0.0736
32510ION     NA49357   5.414   6.998  14.469  0.2609 -0.0609  0.1361
32511ION     NA49358  12.713   1.796   4.298  0.0935 -0.0797 -0.0933
32512ION     NA49359   3.298   9.464   4.799  0.2349 -0.1226  0.3026
32513ION     NA49360   0.633  11.517  13.887 -0.1253  0.0541 -0.4753
32514ION     NA49361  10.535  10.300   5.150 -0.1982 -0.0290  0.1710
32515ION     NA49362   7.398   6.328   4.751  0.1579  0.2307  0.1934
32516ION     NA49363   9.279   9.056  12.547 -0.1179 -0.0526  0.0044
32517ION     NA49364   4.070  11.646   9.658 -0.1806 -0.0631  0.0427
32518ION     NA49365  11.121   7.432  13.109 -0.2867 -0.1719  0.2851
32519ION     NA49366   3.839   6.579   5.511  0.0012 -0.2581  0.2287
32520ION     NA49367   4.971  14.733  14.057  0.1182  0.1503 -0.0462
32521ION     NA49368   5.331  18.714   1.264 -0.1259  0.1248 -0.0360
32522ION     NA49369  16.635  18.348  10.392 -0.3557 -0.2882  0.0381
32523ION     NA49370   0.280  13.523   9.896 -0.0451 -0.2853 -0.1611
32524ION     NA49371  15.666  17.658   2.465  0.0595 -0.0302  0.1235
32525ION     NA49372   8.781  18.461   3.365  0.0824  0.3423  0.2381
32526ION     NA49373   8.819  11.411   5.105  0.1835 -0.2012 -0.0287
32527ION     NA49374  11.484  15.118   3.714 -0.1075 -0.1852 -0.2928
32528ION     NA49375   0.368   5.638   9.537  0.2431 -0.0815 -0.0673
32529ION     NA49376  16.330   4.517   0.214 -0.1173  0.0003 -0.0485
32530ION     NA49377  11.062   8.694  11.666  0.1386 -0.0091  0.1038
32531ION     NA49378  18.963  14.579   9.674 -0.0314 -0.1480  0.0715
32532ION     NA49379  11.245   1.277   4.943 -0.0986 -0.1720  0.0908
32533ION     NA49380  12.987  10.886   2.908  0.0052  0.0073  0.1385
32534ION     NA49381  13.691  18.295   5.448  0.1113 -0.0911  0.0550
32535ION     NA49382   6.175  17.647  12.834 -0.2240  0.1249 -0.2243
32536ION     NA49383   8.714  11.394   0.575  0.1397  0.0140  0.0019
32537ION     NA49384   4.632   5.352   4.184  0.1608  0.0306  0.1737
32538ION     NA49385   6.257  15.893  12.292  0.0684 -0.1506  0.1886
32539ION     NA49386  18.485   4.325   9.547  0.0138  0.0444 -0.2195
32540ION     NA49387   3.356   4.961   5.278 -0.1754 -0.1526  0.1104
32541ION     NA49388   0.091  13.135  14.119  0.1818 -0.1327  0.6238
32542ION     NA49389   0.895   0.888  14.672  0.1894  0.1129 -0.0708
32543ION     NA49390  18.506  15.959   5.226  0.2233 -0.1345  0.1038
32544ION     NA49391   0.915   2.558   9.726 -0.1231 -0.2754  0.0115
32545ION     NA49392   6.916  19.162   0.085  0.2718  0.2873 -0.2663
32546ION     NA49393   5.037  18.338  11.589 -0.0790 -0.0682 -0.0085
32547ION     NA49394  13.849   9.240   9.365 -0.2082  0.0493 -0.2251
32548ION     NA49395  17.326  10.720   9.892  0.0089 -0.0600  0.1272
32549ION     NA49396   6.870   0.650   9.762 -0.1306 -0.0814 -0.0740
32550ION     NA49397  12.731   1.170   2.770  0.0978 -0.0013  0.0078
32551ION     NA49398   5.844  17.382   9.362 -0.0731  0.1236  0.2342
32552ION     NA49399   0.509  15.279   9.782  0.1925  0.1670 -0.2818
32553ION     NA49400   3.898   9.909   0.686 -0.1321  0.0643 -0.2924
32554ION     NA49401  13.338  18.145   2.654  0.1823 -0.2106 -0.0285
32555ION     NA49402  18.842  18.563  10.116 -0.1551 -0.1136 -0.0830
32556ION     NA49403   9.411   0.680  11.032  0.2525  0.1838  0.0553
32557ION     NA49404   3.999  14.981   5.684 -0.1538 -0.1652  0.0111
32558ION     NA49405  14.144  13.754  12.584  0.1344 -0.0419  0.2351
32559ION     NA49406   7.193   7.460  13.790  0.2886 -0.1409  0.3328
32560ION     NA49407   6.483   4.289   9.688  0.2335 -0.1219 -0.2534
32561ION     NA49408   4.519  19.090   9.901  0.2784  0.1299 -0.0574
32562ION     NA49409   2.539  10.659   3.034  0.1628  0.3562  0.2436
32563ION     NA49410   0.819  18.076  12.349 -0.0534  0.1705 -0.4529
32564ION     NA49411   7.727  16.962   2.822  0.0019 -0.1647 -0.1167
32565ION     NA49412  14.127  11.943   4.170  0.0719 -0.2346 -0.0531
32566ION     NA49413   5.320   3.830   2.935 -0.3048  0.2566  0.0339
32567ION     NA49414  16.832   2.968   1.524  0.3326 -0.1854  0.2765
32568ION     NA49415   9.672  16.406  10.085 -0.2327 -0.0509 -0.5362
32569ION     NA49416  15.638  10.305   9.613  0.0186 -0.4832  0.1130
32570ION     NA49417   1.343   3.466   9.732 -0.0781 -0.0261  0.2397
32571ION     NA49418  12.085  11.208   0.869  0.0596 -0.3808  0.0615
32572ION     NA49419  14.200  12.957   9.755 -0.0630 -0.1845 -0.2326
32573ION     NA49420   6.661   8.898   9.373 -0.3213  0.0781 -0.1040
32574ION     NA49421  16.224   2.937   2.416 -0.1686  0.0031 -0.3527
32575ION     NA49422  14.729   3.204  11.353  0.1527  0.5242 -0.0094
32576ION     NA49423   1.247  12.160   9.499  0.1017 -0.2100 -0.0803
32577ION     NA49424  11.417   4.976   5.367  0.3797  0.1316 -0.2722
32578ION     NA49425   0.145   1.485  14.487  0.0480 -0.0203  0.2216
32579ION     NA49426  14.290   2.254   5.186 -0.1125 -0.1882  0.2401
32580ION     NA49427  16.067   8.867   9.608 -0.4131 -0.0935  0.2202
32581ION     NA49428  11.920  18.612  14.456  0.0807 -0.0413 -0.2967
32582ION     NA49429   1.522  13.729  11.644  0.0254 -0.2192 -0.1929
32583ION     NA49430  11.722   2.776   1.801 -0.1503  0.0952 -0.0473
32584ION     NA49431  11.835   0.615  10.230 -0.0725  0.4388 -0.2322
32585ION     NA49432   8.214   1.757   5.067  0.2361  0.1272  0.1537
32586ION     NA49433  13.100  10.670  14.162 -0.2226 -0.1454  0.0759
32587ION     NA49434  13.193   5.586   9.788  0.3356 -0.1586  0.1327
32588ION     NA49435  15.531   0.506  13.117 -0.2218  0.0685 -0.2565
32589ION     NA49436   0.615  10.960   9.710  0.0969 -0.0240 -0.0915
32590ION     NA49437   1.798   2.115   4.916  0.0156  0.0582  0.1188
32591ION     NA49438   1.082   8.271  12.184 -0.0791 -0.0027 -0.0368
32592ION     NA49439   4.709  13.014   9.602  0.3682  0.3476  0.1119
32593ION     NA49440   4.980   5.807  13.067  0.1397 -0.0446 -0.2663
32594ION     NA49441   6.212   1.117   4.875 -0.3767 -0.1839 -0.2636
32595ION     NA49442   0.690  14.470   3.627 -0.3654  0.0540 -0.3163
32596ION     NA49443  17.313  18.821   5.232 -0.1157 -0.1419 -0.1586
32597ION     NA49444  13.059  11.340  12.482  0.0458 -0.3115  0.0750
32598ION     NA49445   7.504  18.518  10.033  0.2242 -0.0199  0.1522
32599ION     NA49446   1.939   1.030   9.877 -0.0942 -0.0459  0.2752
32600ION     NA49447  13.600  15.063   0.773 -0.0112  0.1330  0.0715
32601ION     NA49448   6.786   2.735   9.621 -0.0202  0.0843  0.0216
32602ION     NA49449   9.191   3.983   5.311  0.2663 -0.0778 -0.2827
32603ION     NA49450  14.812  11.218   0.592 -0.3586  0.0283  0.0794
32604ION     NA49451   5.339  18.940   9.457  0.1028  0.1299  0.1004
32605ION     NA49452   8.308   5.835   9.506 -0.2441 -0.1945 -0.1927
32606ION     NA49453  10.033   0.714  10.014 -0.1059 -0.1518 -0.0996
32607ION     NA49454  12.449  16.945   0.509  0.1059 -0.3170 -0.0408
32608ION     NA49455   7.031  17.143   9.784  0.3799  0.5434  0.2201
32609ION     NA49456  12.023   8.134   5.181  0.0102 -0.2269  0.0196
32610ION     NA49457   8.848   2.621   4.000  0.1614 -0.1219 -0.1370
32611ION     NA49458  16.390  19.110   3.581 -0.2094 -0.4153  0.2718
32612ION     NA49459  16.536   4.390   5.221  0.0181  0.0203 -0.0805
32613ION     NA49460  10.984  12.014  13.712 -0.0309 -0.0917 -0.0852
32614ION     NA49461   1.437   9.386   5.143 -0.1122  0.1067 -0.1555
32615ION     NA49462   7.552  11.871  12.739  0.0883 -0.3886  0.4021
32616ION     NA49463   9.619  12.526   3.829 -0.0295  0.2528 -0.0346
32617ION     NA49464   4.605   2.219   9.807  0.1496 -0.3234 -0.1636
32618ION     NA49465   3.363   1.201  11.610  0.0422 -0.2281 -0.2537
32619ION     NA49466   8.241   0.684   9.715 -0.0426  0.2082 -0.0613
32620ION     NA49467   2.672  15.311   9.931 -0.1194 -0.1600 -0.1796
32621ION     NA49468  16.808   0.983   5.561  0.0884  0.4445 -0.0047
32622ION     NA49469  16.505  12.119   0.022  0.2129 -0.2582 -0.2835
32623ION     NA49470   8.634  12.580   9.598 -0.1538  0.0689 -0.1906
32624ION     NA49471   8.992   8.375   9.531 -0.1278  0.3384  0.2297
32625ION     NA49472  17.995  10.255   3.519  0.0506 -0.0847 -0.0511
32626ION     NA49473  18.371   9.195   5.549 -0.0382  0.2567 -0.2082
32627ION     NA49474  17.951  13.192   4.824 -0.1343 -0.1075 -0.2542
32628ION     NA49475  12.309  17.408   3.147 -0.2302  0.1739 -0.3241
32629ION     NA49476  10.010   8.662   5.076 -0.0841  0.0420  0.0598
32630ION     NA49477  13.891  14.861  10.229  0.2779  0.0052 -0.1866
32631ION     NA49478  16.538  14.076   1.205 -0.1672  0.0630 -0.1060
32632ION     NA49479   0.200  11.865  12.908  0.1514 -0.2371  0.0505
32633ION     NA49480   7.062  13.792   2.142  0.2384  0.0203  0.4341
32634ION     NA49481   7.886  17.740  10.047 -0.0904 -0.0499  0.3544
32635ION     NA49482  10.643   8.910   9.941  0.0398  0.0910 -0.1096
32636ION     NA49483   4.169  18.209   9.852 -0.3039  0.2369 -0.4129
32637ION     NA49484  14.709   6.385   9.547  0.1270  0.2345  0.1148
32638ION     NA49485  11.067  14.526  13.853 -0.0219 -0.4016 -0.1141
32639ION     NA49486  11.860  16.599   5.040  0.0966 -0.0831 -0.1031
32640ION     NA49487  16.985   2.667   5.715  0.1287 -0.1396 -0.0801
32641ION     NA49488   1.086   9.297  11.226 -0.0213 -0.0131 -0.0970
32642ION     NA49489   0.889  15.119  12.324 -0.2522  0.1198 -0.0105
32643ION     NA49490   3.296  18.883  10.045 -0.2005 -0.1542  0.1167
32644ION     NA49491   7.388  15.938  10.487 -0.1681 -0.3872  0.2094
32645ION     NA49492   7.006  10.294   9.420 -0.0460 -0.3465  0.0444
32646ION     NA49493  11.272   0.196   3.889 -0.0407  0.2931  0.2395
32647ION     NA49494   3.146  14.689  14.240 -0.1343  0.2811  0.2471
32648ION     NA49495   7.658  15.843   9.792 -0.1506 -0.1004  0.0027
32649ION     NA49496   6.388  13.796   9.666 -0.0325  0.2004  0.0384
32650ION     NA49497   0.339  13.605   5.314  0.3000  0.0621 -0.2522
32651ION     NA49498   2.434   9.214  13.021  0.0732 -0.1230  0.2493
32652ION     NA49499   5.903   7.693   4.770 -0.1269 -0.0313 -0.1303
32653ION     NA49500  19.046   2.794  13.396 -0.0284 -0.0703  0.0695
32654ION     NA49501   3.033   7.915   9.684  0.0672 -0.0246  0.0673
32655ION     NA49502  13.883  15.671   5.715  0.2404 -0.1598 -0.1176
32656ION     NA49503  12.311  14.410  10.409 -0.0693  0.1458 -0.2455
32657ION     NA49504   2.173   9.558   9.722  0.1638  0.1096 -0.1889
32658ION     NA49505   1.210  12.826   3.151  0.1055  0.1615  0.0379
32659ION     NA49506  16.718  13.140   0.789  0.0464 -0.0083  0.1631
32660ION     NA49507  13.687  13.292  13.931 -0.2314  0.0291 -0.2934
32661ION     NA49508  19.090  17.525   0.291  0.1396 -0.1032 -0.2674
32662ION     NA49509   5.303  18.165   1.935 -0.2786  0.0442  0.0853
32663ION     NA49510   9.227  15.065   4.985  0.3037  0.0070 -0.0811
32664ION     NA49511   5.082  13.279  13.552  0.1890  0.3021 -0.0710
32665ION     NA49512   6.568   5.398   2.626 -0.0566  0.2579 -0.3113
32666ION     NA49513  14.460   8.721  13.263  0.1795 -0.1137 -0.1746
32667ION     NA49514   4.631   2.526  10.309  0.1065  0.2166 -0.3496
32668ION     NA49515  18.790   9.464   2.731 -0.0266  0.6570 -0.0233
32669ION     NA49516   0.276   8.670  13.258  0.2860  0.1332  0.0655
32670ION     NA49517  17.829   1.601   2.061  0.3692 -0.2735  0.4693
32671ION     NA49518  10.919  17.194   5.531 -0.1464 -0.1037 -0.1526
32672ION     NA49519  18.292  10.567   9.694  0.2680 -0.5024  0.1355
32673ION     NA49520   5.507   1.639   0.264 -0.2058 -0.0345 -0.1301
32674ION     NA49521  14.165   1.171  14.877  0.0837 -0.2621 -0.1852
32675ION     NA49522   0.262  18.037  10.066 -0.3339 -0.2495 -0.0736
32676ION     NA49523   0.999  13.240  13.299 -0.0203  0.0207 -0.2457
32677ION     NA49524  13.117   7.527   1.334 -0.0189 -0.3481  0.2861
32678ION     NA49525  12.327   9.204   1.793  0.2315  0.0192  0.0417
32679ION     NA49526  15.784   5.237   1.580  0.1549  0.0147  0.0467
32680ION     NA49527  13.008   2.821   5.657  0.2829  0.3785 -0.2450
32681ION     NA49528  18.916   6.156   9.454  0.0430 -0.5278  0.0149
32682ION     NA49529  18.630   1.464   5.300  0.1767 -0.0652 -0.1178
32683ION     NA49530  10.585   2.376   5.267 -0.0461 -0.0947 -0.0429
32684ION     NA49531  11.739  11.176  14.352  0.0001 -0.0341 -0.0666
32685ION     NA49532   5.405   5.905   9.635  0.2654  0.1050  0.1440
32686ION     NA49533   0.281  10.312   1.794  0.2757  0.2795  0.1965
32687ION     NA49534  11.116   8.453   4.830  0.2912 -0.0251 -0.0760
32688ION     NA49535   1.210   6.012   0.340 -0.1181 -0.4423  0.1647
32689ION     NA49536   1.620   7.672   9.740 -0.0135 -0.0165  0.0875
32690ION     NA49537  18.621   2.756   2.247  0.2606  0.1062  0.1431
32691ION     NA49538  18.833  17.708  10.668  0.3486  0.0789 -0.3308
32692ION     NA49539   9.961  10.655   9.472  0.1507 -0.1300 -0.1811
32693ION     NA49540  11.155   1.568   2.956 -0.1707 -0.3411 -0.0154
32694ION     NA49541   1.241  10.222   3.682  0.0209  0.2339  0.0240
32695ION     NA49542  15.317  11.813  11.401 -0.1360 -0.1311 -0.0965
32696ION     NA49543  17.964   0.376  10.236 -0.2590  0.1745  0.3525
32697ION     NA49544   5.726  12.494  13.240  0.2240  0.1194 -0.4073
32698ION     NA49545  10.657  14.781   5.482  0.2410  0.0284  0.2845
32699ION     NA49546   6.263  14.899   9.560 -0.1081  0.1363 -0.0508
32700ION     NA49547  15.509  10.591   1.585 -0.1698  0.2253 -0.1096
32701ION     NA49548   1.548   0.565  14.352  0.2839  0.2038  0.0314
32702ION     NA49549  14.744   0.068   6.124  0.1900 -0.0223  0.4261
32703ION     NA49550   2.913   4.698  13.765  0.0579  0.2635  0.0337
32704ION     NA49551   9.290  12.281   2.883 -0.0058 -0.0845  0.1350
32705ION     NA49552   2.491  17.153   9.899 -0.0199 -0.2585  0.1658
32706ION     NA49553   9.142   9.913   9.583  0.3246  0.1017 -0.0516
32707ION     NA49554  11.377   2.822   2.735 -0.3408  0.1023  0.0858
32708ION     NA49555  15.758   3.995   9.786 -0.2237  0.2246  0.1331
32709ION     NA49556   0.376  19.267   5.032  0.4179  0.1079  0.0403
32710ION     NA49557  14.578  19.248  14.084  0.0865  0.1443 -0.1645
32711ION     NA49558   9.484   0.916   5.123 -0.2032  0.0852 -0.0872
32712ION     NA49559   3.414   4.760   2.523 -0.1673  0.0342  0.0030
32713ION     NA49560   2.370  18.512   5.187 -0.0702 -0.0252 -0.2963
32714ION     NA49561   4.375  17.536  13.985 -0.3523  0.1039 -0.1727
32715ION     NA49562   4.861  19.250   0.541  0.1051  0.0126  0.0280
32716ION     NA49563  14.566  19.063   0.505 -0.2791  0.0963  0.1298
32717ION     NA49564   9.333   5.806   9.282 -0.0655  0.2021  0.0791
32718ION     NA49565   1.763   3.813   4.178 -0.2683 -0.2569 -0.1868
32719ION     NA49566   7.351  10.541  10.251  0.1445 -0.0888  0.0711
32720ION     NA49567   9.899   4.403   9.723  0.0358  0.3158 -0.0378
32721ION     NA49568  13.387   2.327   3.161  0.0099 -0.2258 -0.2873
32722ION     NA49569   1.208   5.477   5.291 -0.1221 -0.0778 -0.0152
32723ION     NA49570  18.161  10.887   0.930  0.2057  0.0586 -0.0032
32724ION     NA49571   2.113  14.036   1.020 -0.1859  0.0717  0.0769
32725ION     NA49572  15.492  10.575  13.651 -0.0183  0.3973  0.0874
32726ION     NA49573   1.747  12.492  11.283  0.5067 -0.0972  0.0476
32727ION     NA49574   2.287   2.927   1.692  0.0401  0.0219  0.1093
32728ION     NA49575  12.473  14.215   9.969 -0.3394  0.0305  0.0961
32729ION     NA49576   3.379  12.995   1.515  0.1743 -0.2261 -0.1469
32730ION     NA49577   9.039   7.731   9.087  0.0972  0.1393 -0.0578
32731ION     NA49578  14.901   9.455   9.852 -0.2941  0.1313 -0.2172
32732ION     NA49579  18.433  16.895   0.662  0.0415  0.1572  0.1288
32733ION     NA49580  14.491  18.460   6.075  0.4063 -0.2428 -0.3768
32734ION     NA49581  15.508   2.675  11.604  0.1326 -0.2554  0.2523
32735ION     NA49582  15.768  11.225  11.868 -0.1732  0.0763 -0.0424
32736ION     NA49583  18.626   7.210  11.645  0.2829 -0.0981  0.2501
32737ION     NA49584  15.439  11.725   4.799 -0.0112 -0.1363  0.1204
32738ION     NA49585   9.782   8.074   9.462 -0.0845 -0.0317  0.1496
32739ION     NA49586  14.382  13.522   1.806 -0.1412  0.2032 -0.2852
32740ION     NA49587  19.208  18.065   1.750 -0.4365 -0.2380  0.2900
32741ION     NA49588   1.580  15.373  13.075  0.2247 -0.3514 -0.4927
32742ION     NA49589   3.063   5.340   9.670  0.0866 -0.1331 -0.0540
32743ION     NA49590   5.117   2.346   2.285 -0.3466 -0.0345 -0.3823
32744ION     NA49591   8.090  16.985   3.569 -0.0778 -0.1498 -0.2449
32745ION     NA49592  15.465   7.016   9.652 -0.0405 -0.0923  0.1189
32746ION     NA49593   7.750  17.267  13.813  0.1272 -0.1302  0.3176
32747ION     NA49594   2.428  12.077   5.363 -0.2256  0.2267 -0.2200
32748ION     NA49595  17.449  15.862   0.838 -0.1123  0.1030 -0.2695
32749ION     NA49596   5.863  10.685   1.283 -0.4343 -0.0557  0.4648
32750ION     NA49597  12.780   3.824   2.744  0.0187  0.1657 -0.1166
32751ION     NA49598   2.151   0.032   1.694  0.0129  0.1275  0.1036
32752ION     NA49599   5.169   6.405   5.372  0.1758 -0.1279  0.1110
32753ION     NA49600   4.061   4.467   3.709  0.2392  0.0829  0.1693
32754ION     NA49601   2.273   5.072   2.821  0.0495  0.0950 -0.1765
32755ION     NA49602  12.477  16.852   0.025  0.1691 -0.0704 -0.0263
32756ION     NA49603  19.129  15.201   9.779  0.0188  0.0238  0.4141
32757ION     NA49604  18.157  11.796  13.486  0.0368 -0.1477 -0.1435
32758ION     NA49605  11.523  14.366   9.751 -0.0392 -0.1875  0.1125
32759ION     NA49606  15.962  11.925   9.522  0.1105  0.3701 -0.0398
32760ION     NA49607   6.169  10.868   9.589 -0.0239 -0.2159  0.2044
32761ION     NA49608   6.506  13.455  11.984  0.0839  0.0666  0.1439
32762ION     NA49609  15.512  12.720   9.656 -0.0276 -0.1721 -0.0480
32763ION     NA49610  17.791  11.207  10.835 -0.1319  0.2290  0.1977
32764ION     NA49611   2.989   8.866   3.702  0.0917 -0.1335 -0.1959
32765ION     NA49612  10.484  17.893  14.918  0.0358  0.2929  0.1002
32766ION     NA49613   2.757   2.430   5.554  0.1659  0.0706  0.3237
32767ION     NA49614   9.725   0.236   0.743  0.1511 -0.0700  0.2566
32768ION     NA49615   5.188   6.729  10.498  0.1348  0.0667 -0.1009
32769ION     NA49616  16.186  15.187   0.297 -0.1219  0.1602 -0.0555
32770ION     NA49617   7.356  15.999   0.302  0.2069  0.4803 -0.2440
32771ION     NA49618  14.490   8.542   5.327 -0.2553  0.1378 -0.0057
32772ION     NA49619   4.959  16.687   5.019 -0.2531 -0.1902  0.0429
32773ION     NA49620  16.654   7.639   3.613 -0.2791 -0.0088  0.2162
32774ION     NA49621  10.751   5.201   0.076 -0.1040 -0.0470 -0.2103
32775ION     NA49622  19.082   0.631   5.343  0.2098 -0.0330  0.1282
32776ION     NA49623   8.769   6.740   9.301  0.0832  0.1161  0.0738
32777ION     NA49624   2.578  12.284   4.053  0.1947 -0.0768 -0.2144
32778ION     NA49625  15.424  16.349   0.293 -0.2506 -0.0442  0.1573
32779ION     NA49626  13.632   0.816   1.873 -0.3912  0.3700  0.0338
32780ION     NA49627   3.980  16.750  12.216 -0.2626  0.0624 -0.0983
32781ION     NA49628   0.466   5.339   0.469 -0.0401 -0.1602  0.2927
32782ION     NA49629   8.224   8.091   9.270 -0.0902 -0.1447 -0.2367
32783ION     NA49630  14.342   2.798  10.111  0.1828  0.0754  0.1862
32784ION     NA49631   8.181  10.468   1.981  0.1252 -0.0641  0.0158
32785ION     NA49632   3.400   0.975   0.292 -0.0175 -0.1276 -0.1686
32786ION     NA49633   8.359   5.307  14.413  0.0964 -0.0914 -0.2483
32787ION     NA49634  16.753   6.115   5.374 -0.1836 -0.0288 -0.1742
32788ION     NA49635  15.000   3.514  10.174 -0.0185 -0.0635  0.1210
32789ION     NA49636  10.080   1.481   5.583 -0.1587  0.1230  0.1631
32790ION     NA49637  16.090   1.560  12.975  0.0676 -0.1221  0.0069
32791ION     NA49638  12.579   0.026  13.927  0.1589  0.1313 -0.1594
32792ION     NA49639  17.805  12.517   1.196  0.3649 -0.1093 -0.2557
32793ION     NA49640   6.401   5.755   9.386  0.0568 -0.3520 -0.3778
32794ION     NA49641   8.849  13.314   4.292 -0.0468 -0.4429 -0.2222
32795ION     NA49642   1.316  15.630   5.093  0.1864  0.0013 -0.1426
32796ION     NA49643   1.863   2.231   0.261  0.3911  0.3898  0.0907
32797ION     NA49644  10.814   2.167  14.067  0.3355  0.3403  0.1052
32798ION     NA49645  12.826   9.792   4.944  0.0693 -0.1922  0.1775
32799ION     NA49646  18.512  18.722  14.762  0.1945  0.1515 -0.1146
32800ION     NA49647   4.837   8.397   1.341 -0.0587 -0.0945 -0.0390
32801ION     NA49648   5.686   6.658   1.097 -0.1319 -0.2228  0.4886
32802ION     NA49649  16.271   5.161  12.556  0.0627  0.1892  0.2993
32803ION     NA49650   7.816  18.521   1.148 -0.1971  0.1947  0.0347
32804ION     NA49651  10.599  16.449   0.195  0.1823 -0.0215  0.0381
32805ION     NA49652   6.403   0.536   0.542 -0.0158 -0.0374 -0.2677
32806ION     NA49653   1.662  16.132  11.865  0.1408  0.0614  0.0558
32807ION     NA49654   7.141  12.717   5.276 -0.0892  0.2371  0.1459
32808ION     NA49655  16.980  11.367   2.932 -0.1212 -0.1716  0.4312
32809ION     NA49656   1.985   3.785   5.387  0.1268 -0.0228 -0.3587
32810ION     NA49657   8.745   8.280   5.004  0.0526  0.1276  0.2814
32811ION     NA49658   0.642  14.630  10.870  0.0243 -0.0342  0.0877
32812ION     NA49659   1.086   0.807  10.153  0.0569  0.1976 -0.2686
32813ION     NA49660   7.349  14.100   9.551  0.1543  0.1363  0.0523
32814ION     NA49661  14.455   1.370   5.831  0.1238 -0.1929 -0.1952
32815ION     NA49662  10.372  17.633  10.168 -0.1432  0.0149  0.0973
32816ION     NA49663  10.815   8.066   5.011 -0.2462  0.2464  0.0922
32817ION     NA49664   5.807  12.110   1.515  0.2365 -0.1008  0.1576
32818ION     NA49665   5.978   6.509   9.474 -0.2228 -0.2817 -0.3393
32819ION     NA49666  13.238   0.017   5.689 -0.0344 -0.0668  0.1247
32820ION     NA49667   8.315   9.854  13.660  0.2340 -0.0725  0.1161
32821ION     NA49668  14.933   9.556  10.653  0.3805 -0.0085  0.2919
32822ION     NA49669  17.729   6.972   9.494  0.0289  0.0366 -0.2515
32823ION     NA49670  16.858  14.798   2.399 -0.0484 -0.0154 -0.0770
32824ION     NA49671  14.354  10.448   4.963  0.1310  0.2816 -0.0568
32825ION     NA49672  15.221  14.019   9.980 -0.1534 -0.0176  0.2271
32826ION     NA49673  15.837   1.444   3.092  0.0115  0.1890 -0.0444
32827ION     NA49674   3.796   4.180  10.228  0.0526 -0.1289  0.0879
32828ION     NA49675  10.159  17.879   5.705 -0.1742  0.0600 -0.1058
32829ION     NA49676   9.016   0.974   1.892 -0.2108  0.0646 -0.1950
32830ION     NA49677  10.221   1.665  13.371 -0.0206 -0.0173  0.2031
32831ION     NA49678  12.260   4.555  11.027  0.1133  0.1407  0.1247
32832ION     NA49679  12.224   7.927   2.143  0.0142  0.0212 -0.0410
32833ION     NA49680  11.586  18.769   0.770 -0.0803  0.2794  0.2325
32834ION     NA49681  10.901   6.205   9.304  0.0226 -0.1082  0.0566
32835ION     NA49682   9.899  13.691   1.062  0.1140 -0.1105 -0.1318
32836ION     NA49683  18.208  14.326  14.344 -0.1504  0.0842 -0.1739
32837ION     NA49684  16.819   0.849   1.378 -0.0453 -0.0799 -0.0214
32838ION     NA49685   2.415   0.991   5.543  0.4172 -0.0746  0.2803
32839ION     NA49686   9.746  12.992   5.387  0.0839  0.0169 -0.1173
32840ION     NA49687   0.406   8.455   0.301 -0.0041  0.1742  0.1271
32841ION     NA49688  15.577   3.472   3.590  0.0568 -0.0024  0.1472
32842ION     NA49689   2.456   6.471  12.582 -0.0393 -0.1457  0.2540
32843ION     NA49690   2.276   5.612  14.806 -0.2647 -0.2273 -0.2476
32844ION     NA49691   0.013  11.553   5.370 -0.0497 -0.1094  0.1517
32845ION     NA49692  15.540  13.840   1.759 -0.2306 -0.2462  0.0369
32846ION     NA49693  17.401   7.796   9.846  0.0671  0.2752  0.3046
32847ION     NA49694   2.713   7.831   1.437  0.0872 -0.0893  0.3154
32848ION     NA49695   8.924   5.652   0.701  0.1915  0.0031 -0.2694
32849ION     NA49696  16.186   6.090   4.644  0.1791 -0.6524  0.1344
32850ION     NA49697  10.769   0.543   5.523  0.1830 -0.0503 -0.3397
32851ION     NA49698   1.941   2.088   1.467  0.0782  0.0080  0.0795
32852ION     NA49699   2.242   9.544   5.437 -0.3655  0.1992  0.1084
32853ION     NA49700  17.461  18.769  10.258  0.1333 -0.1599 -0.0832
32854ION     NA49701   4.769   6.172  14.460  0.0086  0.1193 -0.3915
32855ION     NA49702  13.363   1.983   2.078  0.0048  0.1066 -0.0186
32856ION     NA49703  11.965   1.210   5.760 -0.1696 -0.2066  0.1798
32857ION     NA49704  12.216   4.889   9.685 -0.4189 -0.0260  0.0198
32858ION     NA49705  10.750  13.301   9.614  0.1460 -0.0337 -0.0243
32859ION     NA49706  10.760   3.835   3.860 -0.1545  0.2825 -0.3639
32860ION     NA49707   0.702   8.618  11.986 -0.2244 -0.1962  0.4793
32861ION     NA49708  13.555  12.736   3.159 -0.3244  0.2707  0.1026
32862ION     NA49709  12.164  11.724   9.550  0.1220  0.1414 -0.1245
32863ION     NA49710   2.949   8.416   4.634 -0.0363 -0.1163  0.2918
32864ION     NA49711  14.303   6.920   5.145  0.0056  0.2085 -0.1765
32865ION     NA49712   0.283   3.385  11.116 -0.2465  0.1476  0.1728
32866ION     NA49713   7.745   9.189   9.350 -0.2998  0.1254  0.2394
32867ION     NA49714  10.842   0.616  13.930  0.0091 -0.0395  0.0705
32868ION     NA49715  13.701  17.369   5.197  0.0246 -0.1471  0.0534
32869ION     NA49716   7.141   5.594  14.798  0.0314  0.3584  0.1865
32870ION     NA49717  16.008   7.538  13.752  0.1585 -0.0919  0.2945
32871ION     NA49718   6.930   9.928  14.045  0.0625 -0.0427 -0.0803
32872ION     NA49719   9.342   7.332  10.303 -0.0173 -0.0412 -0.0697
32873ION     NA49720   7.255   4.998  13.446  0.1553 -0.0840  0.0799
32874ION     NA49721   7.220   8.850   4.906 -0.0084 -0.3294 -0.2184
32875ION     NA49722   9.660  16.518   2.394 -0.0394 -0.1429  0.0575
32876ION     NA49723  13.768   4.043   3.657  0.1365 -0.1403 -0.0490
32877ION     NA49724  17.565  14.398   9.729  0.3274 -0.1383  0.3139
32878ION     NA49725   1.496   2.911  11.188 -0.0871  0.0306 -0.1884
32879ION     NA49726   5.839  12.871   3.483  0.3580  0.0684 -0.1248
32880ION     NA49727  13.071  11.782   9.460 -0.1261  0.2308  0.1658
32881ION     NA49728  10.939   4.588   2.637  0.1011  0.0778  0.1580
32882ION     NA49729   7.416   0.163   0.958  0.1651 -0.1400  0.0425
32883ION     NA49730   3.202   1.954   9.921  0.1025 -0.3083  0.4559
32884ION     NA49731  15.794   7.457   4.972 -0.4667  0.0770  0.1458
32885ION     NA49732   4.364   4.265   2.934 -0.2327  0.4049 -0.1059
32886ION     NA49733   0.095  11.772   2.570  0.1750 -0.1010 -0.1862
32887ION     NA49734  14.213  18.046  10.618 -0.1357 -0.0448  0.0201
32888ION     NA49735   3.842   4.262   5.733  0.1140  0.0302 -0.0270
32889ION     NA49736  11.473   4.451  12.896  0.3521  0.2068 -0.1082
32890ION     NA49737  18.687   5.376   9.452 -0.0682  0.0130  0.1578
32891ION     NA49738  15.041  11.519   3.012 -0.3822 -0.2112 -0.1831
32892ION     NA49739  10.049  18.576   1.115 -0.0536 -0.2812  0.2704
32893ION     NA49740   8.035  13.133   9.541 -0.1563 -0.0037  0.0260
32894ION     NA49741  17.782   8.340   5.419  0.3793  0.0327  0.1304
32895ION     NA49742   0.026   9.705  14.428  0.0851  0.1484 -0.1764
32896ION     NA49743  10.779  10.243   9.849  0.2072  0.3993 -0.3381
32897ION     NA49744  12.805   5.732  13.679  0.1696  0.0501 -0.0100
32898ION     NA49745  14.490   0.005   4.223  0.2937  0.3816 -0.4184
32899ION     NA49746  11.771   6.184   9.476  0.2616 -0.1475  0.0088
32900ION     NA49747   7.792   0.911   9.550  0.1393 -0.4045  0.1714
32901ION     NA49748   0.079   8.878   1.770 -0.2954  0.0910  0.1085
32902ION     NA49749   1.423   3.575   5.354  0.0203  0.2972 -0.2368
32903ION     NA49750  10.716  12.418  14.471  0.2333 -0.0144 -0.1310
32904ION     NA49751  12.348  14.273   1.202 -0.3020 -0.2304 -0.3360
32905ION     NA49752   8.787   1.583  13.436 -0.0689  0.1712  0.0178
32906ION     NA49753  13.589   2.261   5.817  0.0893  0.0118  0.3208
32907ION     NA49754  12.376  19.104  10.335  0.0865 -0.1713 -0.3831
32908ION     NA49755  15.559  18.484   5.878  0.3670 -0.2261 -0.0860
32909ION     NA49756   6.506   7.142   4.387 -0.1505  0.0202  0.2335
32910ION     NA49757  12.974  17.642   0.165  0.1333 -0.1708 -0.1105
32911ION     NA49758   8.625   0.129   0.368  0.0848 -0.0695 -0.3148
32912ION     NA49759   1.063  13.045   5.245  0.0818 -0.0820 -0.1402
32913ION     NA49760  15.570   0.575   9.995  0.1245 -0.2650 -0.1541
32914ION     NA49761   2.648   0.275   9.899 -0.0610 -0.0884  0.0376
32915ION     NA49762   3.005   5.624   2.224 -0.0497 -0.1532  0.3563
32916ION     NA49763   7.428   1.953   3.707 -0.0550  0.0219 -0.1522
32917ION     NA49764  15.117  10.402   9.609 -0.1356  0.1373 -0.1601
32918ION     NA49765   7.575   2.342   9.387 -0.1548 -0.0391 -0.2947
32919ION     NA49766  13.067   6.847  11.449 -0.2791  0.0412  0.2427
32920ION     NA49767  16.558   6.615  12.698 -0.1704  0.2485 -0.2655
32921ION     NA49768   6.089   6.402  13.270 -0.4476  0.0982 -0.2950
32922ION     NA49769   5.029  17.043   9.631 -0.0753 -0.2284 -0.1029
32923ION     NA49770   5.369   8.996   4.338  0.0200  0.0863 -0.3685
32924ION     NA49771   7.730  12.611  13.430 -0.0357  0.2142  0.0291
32925ION     NA49772   2.093   2.906   5.196 -0.0643  0.0129  0.0664
32926ION     NA49773  12.405  18.231   2.973 -0.3003  0.1258  0.3039
32927ION     NA49774  17.685   2.520   4.444 -0.0319 -0.2954  0.2861
32928ION     NA49775   4.199  11.943   2.181  0.1420  0.1029  0.0707
32929ION     NA49776   8.385   8.275  14.150  0.0379  0.0915  0.0285
32930ION     NA49777  14.313  19.040  10.605 -0.2487  0.0759  0.3759
32931ION     NA49778  10.729   4.189   9.815  0.1608 -0.1508  0.4450
32932ION     NA49779   5.557  13.416   9.626  0.1736  0.2556  0.0091
32933ION     NA49780   5.208   7.708   9.450 -0.1832 -0.0644  0.1307
32934ION     NA49781   9.313  13.748  13.567 -0.1030  0.0140  0.1527
32935ION     NA49782  17.863   0.435  12.951  0.0743 -0.2398  0.2390
32936ION     NA49783  16.221   0.442  11.043  0.1782 -0.2939 -0.0050
32937ION     NA49784  17.198  18.457  12.881 -0.3796  0.2355 -0.0212
32938ION     NA49785   2.077   3.387   2.940 -0.1402  0.2252 -0.0796
32939ION     NA49786  15.369   4.433   2.210 -0.1135 -0.0029 -0.2506
32940ION     NA49787   0.349   5.168  14.657 -0.0704 -0.0010 -0.2961
32941ION     NA49788   7.008   4.561  13.949 -0.5538 -0.3031 -0.0800
32942ION     NA49789  18.840  10.153   5.373  0.0807  0.0277 -0.1675
32943ION     NA49790   3.654   2.081   0.802  0.0593 -0.4124  0.1081
32944ION     NA49791   5.715  14.679   4.795  0.1838 -0.1263 -0.1664
32945ION     NA49792  19.190  14.007   1.221 -0.1917 -0.0085  0.0814
32946ION     NA49793  11.875  12.332  13.480 -0.0722  0.5964 -0.0339
32947ION     NA49794   3.275   5.996   4.655  0.0841 -0.0091  0.1313
32948ION     NA49795  14.803   4.746   0.922  0.0636  0.0279  0.0667
32949ION     NA49796  16.847   7.673   0.742 -0.2634 -0.0391 -0.0652
32950ION     NA49797   7.389  13.435   5.119  0.0334 -0.3328 -0.1571
32951ION     NA49798   4.333   5.139   5.514  0.0003  0.2811 -0.0211
32952ION     NA49799   3.960   2.689   9.801  0.0700 -0.0708  0.2755
32953ION     NA49800   6.583   7.843   1.514 -0.2555 -0.1822 -0.2385
32954ION     NA49801  13.826   3.867  14.809  0.3043  0.2343  0.0671
32955ION     NA49802   2.784   0.976  14.552  0.1609 -0.1170  0.0246
32956ION     NA49803  16.430  10.529   9.994  0.2482  0.4551 -0.0912
32957ION     NA49804  11.489  11.049   9.838 -0.1148 -0.0936  0.1569
32958ION     NA49805   9.001   2.676   9.630  0.0701 -0.1873 -0.2327
32959ION     NA49806  14.580  16.158   2.265  0.1659  0.1780 -0.0498
32960ION     NA49807   9.206  13.602   9.409  0.3613 -0.0991 -0.1314
32961ION     NA49808  12.965   0.983  13.493 -0.0750  0.0934 -0.0049
32962ION     NA49809  15.454  15.081   3.415  0.3407 -0.2659 -0.0076
32963ION     NA49810   1.596   3.371   0.871 -0.5030 -0.0803 -0.1072
32964ION     NA49811  12.640   5.781   4.059 -0.0291 -0.2801 -0.0224
32965ION     NA49812   4.965   4.812  11.966  0.0985 -0.3545 -0.2498
32966ION     NA49813  11.777   9.146  12.678 -0.0472  0.3496 -0.1418
32967ION     NA49814  12.225  17.734  11.574  0.2437 -0.0608  0.3325
32968ION     NA49815   0.509   2.122  13.784  0.2451 -0.2651  0.0847
32969ION     NA49816   6.067  12.447   9.398 -0.3082 -0.2136 -0.2086
32970ION     NA49817   9.417  14.830  13.144 -0.0606 -0.1290  0.0042
32971ION     NA49818   5.855  18.348   5.040  0.0699 -0.0575  0.2079
32972ION     NA49819   0.042   8.863   3.162 -0.2882  0.0362  0.3606
32973ION     NA49820   7.670   5.982  13.785  0.4944 -0.0305 -0.0903
32974ION     NA49821  19.279  12.769   9.903  0.0172 -0.1979 -0.1229
32975ION     NA49822   7.381   6.003   9.525  0.0334 -0.0105  0.3848
32976ION     NA49823  11.718  17.289   2.404  0.1015  0.0228 -0.1574
32977ION     NA49824   3.455  15.441   4.734 -0.0559 -0.0458 -0.1330
32978ION     NA49825  17.695   6.057   5.301 -0.1788  0.1694 -0.2077
32979ION     NA49826   9.575   4.796   5.152  0.1974  0.0631  0.0063
32980ION     NA49827  15.604   4.124   0.562 -0.2039  0.1838  0.1998
32981ION     NA49828  15.939  17.954  13.013  0.1051  0.1888  0.1208
32982ION     NA49829   5.647   8.770   9.616 -0.1338 -0.0462 -0.1257
32983ION     NA49830  10.094  13.744   4.580  0.4212 -0.0030 -0.0757
32984ION     NA49831   9.951   9.663   5.228  0.2500  0.1658 -0.0018
32985ION     NA49832  12.363   0.180   5.865  0.3309 -0.0709  0.2752
32986ION     NA49833   6.324  11.173   2.561  0.1303  0.0964  0.3073
32987ION     NA49834   5.877   1.728   0.680  0.0658 -0.4065  0.1828
32988ION     NA49835   4.118  13.687  12.517 -0.0474 -0.1613  0.2442
32989ION     NA49836   1.285  10.805   9.539  0.2021  0.0553  0.0329
32990ION     NA49837   2.854   3.982   0.833 -0.2603 -0.3650 -0.1173
32991ION     NA49838  17.056   5.072   9.619 -0.0149 -0.1447  0.2854
32992ION     NA49839   4.408   7.811   3.675  0.2246 -0.0518 -0.1508
32993ION     NA49840  18.192  17.142  12.988  0.0073  0.1131 -0.0047
32994ION     NA49841   9.617   9.085   9.675  0.0676  0.0458 -0.1310
32995ION     NA49842  10.917  14.071   4.993 -0.1481 -0.0136 -0.1420
32996ION     NA49843   3.598  13.699   2.294  0.0570  0.2538  0.0481
32997ION     NA49844  16.324   8.750   1.164  0.5581 -0.0649  0.0733
32998ION     NA49845   7.316   0.224   9.603  0.0799 -0.3332 -0.0755
32999ION     NA49846  10.128  14.573   9.668 -0.1277  0.3514 -0.0715
33000ION     NA49847  16.025  17.987   5.097 -0.0724  0.1300  0.0674
33001ION     NA49848  17.287  10.691   5.219  0.0271 -0.3210  0.1306
33002ION     NA49849  14.502  16.979   2.592  0.1924 -0.0582  0.0314
33003ION     NA49850   4.143   9.738   4.185  0.0761 -0.0603  0.2542
33004ION     NA49851  17.390  15.173  11.330 -0.1523  0.2656 -0.1253
33005ION     NA49852   3.381  10.331   0.668 -0.0685 -0.1420 -0.0031
33006ION     NA49853  17.881   8.544  10.634  0.0381 -0.3559 -0.1501
33007ION     NA49854  18.152   8.305   9.820  0.0107  0.0634 -0.3043
33008ION     NA49855  15.791   1.819  10.019 -0.3189 -0.3885  0.1451
33009ION     NA49856  12.253   1.534  10.261 -0.0829 -0.1122 -0.2893
33010ION     NA49857   9.449  13.228   5.707  0.1127 -0.4482 -0.2360
33011ION     NA49858   3.740  17.110   4.874  0.0187 -0.3802  0.1398
33012ION     NA49859  12.684   8.689   9.474  0.0494  0.2527 -0.0348
33013ION     NA49860   9.758  10.920   5.248  0.0451  0.0396  0.2027
33014ION     NA49861  15.124  16.631   9.898 -0.2071  0.1750  0.1930
33015ION     NA49862   7.095   5.570   9.618 -0.3521  0.0433  0.1739
33016ION     NA49863   0.694   8.886   9.777  0.2631  0.0694 -0.0810
33017ION     NA49864  10.252   5.446   4.920 -0.1192  0.0593 -0.1788
33018ION     NA49865  10.900  17.028  10.210  0.1009  0.1237  0.1716
33019ION     NA49866  18.182  13.125   9.914 -0.0553 -0.0238 -0.0857
33020ION     NA49867  17.990   4.974   9.487 -0.1584 -0.0445 -0.1900
33021ION     NA49868   5.671   9.343   1.442  0.1086  0.3306  0.2319
33022ION     NA49869  13.718  18.285  13.592  0.0996 -0.0064 -0.0528
33023ION     NA49870  12.660   9.035   0.846  0.1175 -0.2169 -0.3412
33024ION     NA49871  16.100   6.454   9.677 -0.2307 -0.0537 -0.1328
33025ION     NA49872  18.947   8.486   5.394 -0.2737 -0.2292  0.1538
33026ION     NA49873  10.931   6.047   0.041  0.1818 -0.1657  0.0727
33027ION     NA49874   9.983  17.678   1.507  0.1481 -0.1304 -0.0892
33028ION     NA49875   9.008  14.602   9.625  0.3245 -0.0580 -0.0244
33029ION     NA49876   9.796   6.758   9.328  0.2345  0.2197  0.1092
33030ION     NA49877   4.595  12.182   4.671  0.1078 -0.2641 -0.0850
  19.28316  19.28316  15.02097
